Automatically generated mesh
      71
Reciprocal lattice
    0.00000000000000    0.00000000000000    0.00000000000000             1
    0.14285714285714    0.00000000000000    0.00000000000000             2
    0.28571428571429    0.00000000000000    0.00000000000000             2
    0.42857142857143    0.00000000000000    0.00000000000000             2
    0.00000000000000    0.20000000000000    0.00000000000000             2
    0.14285714285714    0.20000000000000    0.00000000000000             2
    0.28571428571429    0.20000000000000    0.00000000000000             2
    0.42857142857143    0.20000000000000    0.00000000000000             2
   -0.42857142857143    0.20000000000000    0.00000000000000             2
   -0.28571428571429    0.20000000000000    0.00000000000000             2
   -0.14285714285714    0.20000000000000    0.00000000000000             2
    0.00000000000000    0.40000000000000    0.00000000000000             2
    0.14285714285714    0.40000000000000    0.00000000000000             2
    0.28571428571429    0.40000000000000    0.00000000000000             2
    0.42857142857143    0.40000000000000    0.00000000000000             2
   -0.42857142857143    0.40000000000000    0.00000000000000             2
   -0.28571428571429    0.40000000000000    0.00000000000000             2
   -0.14285714285714    0.40000000000000    0.00000000000000             2
    0.00000000000000    0.00000000000000    0.25000000000000             2
    0.14285714285714    0.00000000000000    0.25000000000000             2
    0.28571428571429    0.00000000000000    0.25000000000000             2
    0.42857142857143    0.00000000000000    0.25000000000000             2
   -0.42857142857143    0.00000000000000    0.25000000000000             2
   -0.28571428571429    0.00000000000000    0.25000000000000             2
   -0.14285714285714    0.00000000000000    0.25000000000000             2
    0.00000000000000    0.20000000000000    0.25000000000000             2
    0.14285714285714    0.20000000000000    0.25000000000000             2
    0.28571428571429    0.20000000000000    0.25000000000000             2
    0.42857142857143    0.20000000000000    0.25000000000000             2
   -0.42857142857143    0.20000000000000    0.25000000000000             2
   -0.28571428571429    0.20000000000000    0.25000000000000             2
   -0.14285714285714    0.20000000000000    0.25000000000000             2
    0.00000000000000    0.40000000000000    0.25000000000000             2
    0.14285714285714    0.40000000000000    0.25000000000000             2
    0.28571428571429    0.40000000000000    0.25000000000000             2
    0.42857142857143    0.40000000000000    0.25000000000000             2
   -0.42857142857143    0.40000000000000    0.25000000000000             2
   -0.28571428571429    0.40000000000000    0.25000000000000             2
   -0.14285714285714    0.40000000000000    0.25000000000000             2
    0.00000000000000   -0.40000000000000    0.25000000000000             2
    0.14285714285714   -0.40000000000000    0.25000000000000             2
    0.28571428571429   -0.40000000000000    0.25000000000000             2
    0.42857142857143   -0.40000000000000    0.25000000000000             2
   -0.42857142857143   -0.40000000000000    0.25000000000000             2
   -0.28571428571429   -0.40000000000000    0.25000000000000             2
   -0.14285714285714   -0.40000000000000    0.25000000000000             2
    0.00000000000000   -0.20000000000000    0.25000000000000             2
    0.14285714285714   -0.20000000000000    0.25000000000000             2
    0.28571428571429   -0.20000000000000    0.25000000000000             2
    0.42857142857143   -0.20000000000000    0.25000000000000             2
   -0.42857142857143   -0.20000000000000    0.25000000000000             2
   -0.28571428571429   -0.20000000000000    0.25000000000000             2
   -0.14285714285714   -0.20000000000000    0.25000000000000             2
    0.00000000000000    0.00000000000000    0.50000000000000             1
    0.14285714285714    0.00000000000000    0.50000000000000             2
    0.28571428571429    0.00000000000000    0.50000000000000             2
    0.42857142857143    0.00000000000000    0.50000000000000             2
    0.00000000000000    0.20000000000000    0.50000000000000             2
    0.14285714285714    0.20000000000000    0.50000000000000             2
    0.28571428571429    0.20000000000000    0.50000000000000             2
    0.42857142857143    0.20000000000000    0.50000000000000             2
   -0.42857142857143    0.20000000000000    0.50000000000000             2
   -0.28571428571429    0.20000000000000    0.50000000000000             2
   -0.14285714285714    0.20000000000000    0.50000000000000             2
    0.00000000000000    0.40000000000000    0.50000000000000             2
    0.14285714285714    0.40000000000000    0.50000000000000             2
    0.28571428571429    0.40000000000000    0.50000000000000             2
    0.42857142857143    0.40000000000000    0.50000000000000             2
   -0.42857142857143    0.40000000000000    0.50000000000000             2
   -0.28571428571429    0.40000000000000    0.50000000000000             2
   -0.14285714285714    0.40000000000000    0.50000000000000             2
Tetrahedra
       418    0.00119047619048
         2         1         2         6        19
         2         1         5         6        19
         2         5         6        19        26
         2         2         6        19        20
         2         6        19        20        27
         2         6        19        26        27
         2         2         3         7        20
         2         2         6         7        20
         2         6         7        20        27
         2         3         7        20        21
         2         7        20        21        28
         2         7        20        27        28
         2         3         4         8        21
         2         3         7         8        21
         2         7         8        21        28
         2         4         8        21        22
         2         8        21        22        29
         2         8        21        28        29
         2         4         4         9        22
         2         4         8         9        22
         2         8         9        22        29
         2         4         9        22        23
         2         9        22        23        30
         2         9        22        29        30
         2         3         4        10        23
         2         4         9        10        23
         2         9        10        23        30
         2         3        10        23        24
         2        10        23        24        31
         2        10        23        30        31
         2         2         3        11        24
         2         3        10        11        24
         2        10        11        24        31
         2         2        11        24        25
         2        11        24        25        32
         2        11        24        31        32
         2         1         2         5        25
         2         2         5        11        25
         2         5        11        25        32
         2         1         5        19        25
         2         5        19        25        26
         2         5        25        26        32
         2         5         6        13        26
         2         5        12        13        26
         2        12        13        26        33
         2         6        13        26        27
         2        13        26        27        34
         2        13        26        33        34
         2         6         7        14        27
         2         6        13        14        27
         2        13        14        27        34
         2         7        14        27        28
         2        14        27        28        35
         2        14        27        34        35
         2         7         8        15        28
         2         7        14        15        28
         2        14        15        28        35
         2         8        15        28        29
         2        15        28        29        36
         2        15        28        35        36
         2         8         9        16        29
         2         8        15        16        29
         2        15        16        29        36
         2         9        16        29        30
         2        16        29        30        37
         2        16        29        36        37
         2         9        10        17        30
         2         9        16        17        30
         2        16        17        30        37
         2        10        17        30        31
         2        17        30        31        38
         2        17        30        37        38
         2        10        11        18        31
         2        10        17        18        31
         2        17        18        31        38
         2        11        18        31        32
         2        18        31        32        39
         2        18        31        38        39
         2         5        11        12        32
         2        11        12        18        32
         2        12        18        32        39
         2         5        12        26        32
         2        12        26        32        33
         2        12        32        33        39
         2        12        13        18        33
         2        12        12        18        33
         2        12        18        33        40
         2        13        18        33        34
         2        18        33        34        41
         2        18        33        40        41
         2        13        14        17        34
         2        13        17        18        34
         2        17        18        34        41
         2        14        17        34        35
         2        17        34        35        42
         2        17        34        41        42
         2        14        15        16        35
         2        14        16        17        35
         2        16        17        35        42
         2        15        16        35        36
         2        16        35        36        43
         2        16        35        42        43
         4        15        15        16        36
         2        15        16        36        43
         2        15        16        36        37
         2        15        36        37        44
         2        15        36        43        44
         2        14        16        17        37
         2        14        15        16        37
         2        14        15        37        44
         2        14        17        37        38
         2        14        37        38        45
         2        14        37        44        45
         2        13        17        18        38
         2        13        14        17        38
         2        13        14        38        45
         2        13        18        38        39
         2        13        38        39        46
         2        13        38        45        46
         2        12        12        18        39
         2        12        13        18        39
         2        12        13        39        46
         2        12        12        33        39
         2        12        33        39        40
         2        12        39        40        46
         2        11        12        18        40
         2         5        11        12        40
         2         5        11        40        47
         2        11        18        40        41
         2        11        40        41        48
         2        11        40        47        48
         2        10        17        18        41
         2        10        11        18        41
         2        10        11        41        48
         2        10        17        41        42
         2        10        41        42        49
         2        10        41        48        49
         2         9        16        17        42
         2         9        10        17        42
         2         9        10        42        49
         2         9        16        42        43
         2         9        42        43        50
         2         9        42        49        50
         2         8        15        16        43
         2         8         9        16        43
         2         8         9        43        50
         2         8        15        43        44
         2         8        43        44        51
         2         8        43        50        51
         2         7        14        15        44
         2         7         8        15        44
         2         7         8        44        51
         2         7        14        44        45
         2         7        44        45        52
         2         7        44        51        52
         2         6        13        14        45
         2         6         7        14        45
         2         6         7        45        52
         2         6        13        45        46
         2         6        45        46        53
         2         6        45        52        53
         2         5        12        13        46
         2         5         6        13        46
         2         5         6        46        53
         2         5        12        40        46
         2         5        40        46        47
         2         5        46        47        53
         2         2         5        11        47
         2         1         2         5        47
         2         1         2        19        47
         2         2        11        47        48
         2         2        20        47        48
         2         2        19        20        47
         2         3        10        11        48
         2         2         3        11        48
         2         2         3        20        48
         2         3        10        48        49
         2         3        21        48        49
         2         3        20        21        48
         2         4         9        10        49
         2         3         4        10        49
         2         3         4        21        49
         2         4         9        49        50
         2         4        22        49        50
         2         4        21        22        49
         2         4         8         9        50
         2         4         4         9        50
         2         4         4        22        50
         2         4         8        50        51
         2         4        23        50        51
         2         4        22        23        50
         2         3         7         8        51
         2         3         4         8        51
         2         3         4        23        51
         2         3         7        51        52
         2         3        24        51        52
         2         3        23        24        51
         2         2         6         7        52
         2         2         3         7        52
         2         2         3        24        52
         2         2         6        52        53
         2         2        25        52        53
         2         2        24        25        52
         2         1         5         6        53
         2         1         2         6        53
         2         1         2        25        53
         2         1         5        47        53
         2         1        19        47        53
         2         1        19        25        53
         2        19        20        27        54
         2        19        26        27        54
         2        26        27        54        58
         2        20        27        54        55
         2        27        54        55        59
         2        27        54        58        59
         2        20        21        28        55
         2        20        27        28        55
         2        27        28        55        59
         2        21        28        55        56
         2        28        55        56        60
         2        28        55        59        60
         2        21        22        29        56
         2        21        28        29        56
         2        28        29        56        60
         2        22        29        56        57
         2        29        56        57        61
         2        29        56        60        61
         2        22        23        30        57
         2        22        29        30        57
         2        29        30        57        61
         2        23        30        57        57
         2        30        57        57        62
         2        30        57        61        62
         2        23        24        31        57
         2        23        30        31        57
         2        30        31        57        62
         2        24        31        56        57
         2        31        56        57        63
         2        31        57        62        63
         2        24        25        32        56
         2        24        31        32        56
         2        31        32        56        63
         2        25        32        55        56
         2        32        55        56        64
         2        32        56        63        64
         2        19        25        26        55
         2        25        26        32        55
         2        26        32        55        64
         2        19        26        54        55
         2        26        54        55        58
         2        26        55        58        64
         2        26        27        34        58
         2        26        33        34        58
         2        33        34        58        65
         2        27        34        58        59
         2        34        58        59        66
         2        34        58        65        66
         2        27        28        35        59
         2        27        34        35        59
         2        34        35        59        66
         2        28        35        59        60
         2        35        59        60        67
         2        35        59        66        67
         2        28        29        36        60
         2        28        35        36        60
         2        35        36        60        67
         2        29        36        60        61
         2        36        60        61        68
         2        36        60        67        68
         2        29        30        37        61
         2        29        36        37        61
         2        36        37        61        68
         2        30        37        61        62
         2        37        61        62        69
         2        37        61        68        69
         2        30        31        38        62
         2        30        37        38        62
         2        37        38        62        69
         2        31        38        62        63
         2        38        62        63        70
         2        38        62        69        70
         2        31        32        39        63
         2        31        38        39        63
         2        38        39        63        70
         2        32        39        63        64
         2        39        63        64        71
         2        39        63        70        71
         2        26        32        33        64
         2        32        33        39        64
         2        33        39        64        71
         2        26        33        58        64
         2        33        58        64        65
         2        33        64        65        71
         2        33        34        41        65
         2        33        40        41        65
         2        40        41        65        65
         2        34        41        65        66
         2        41        65        66        71
         2        41        65        65        71
         2        34        35        42        66
         2        34        41        42        66
         2        41        42        66        71
         2        35        42        66        67
         2        42        66        67        70
         2        42        66        70        71
         2        35        36        43        67
         2        35        42        43        67
         2        42        43        67        70
         2        36        43        67        68
         2        43        67        68        69
         2        43        67        69        70
         2        36        37        44        68
         2        36        43        44        68
         2        43        44        68        69
         2        37        44        68        69
         4        44        68        68        69
         2        37        38        45        69
         2        37        44        45        69
         2        44        45        68        69
         2        38        45        69        70
         2        45        67        69        70
         2        45        67        68        69
         2        38        39        46        70
         2        38        45        46        70
         2        45        46        67        70
         2        39        46        70        71
         2        46        66        70        71
         2        46        66        67        70
         2        33        39        40        71
         2        39        40        46        71
         2        40        46        66        71
         2        33        40        65        71
         2        40        65        65        71
         2        40        65        66        71
         2        40        41        48        65
         2        40        47        48        65
         2        47        48        58        65
         2        41        48        65        71
         2        48        64        65        71
         2        48        58        64        65
         2        41        42        49        71
         2        41        48        49        71
         2        48        49        64        71
         2        42        49        70        71
         2        49        63        70        71
         2        49        63        64        71
         2        42        43        50        70
         2        42        49        50        70
         2        49        50        63        70
         2        43        50        69        70
         2        50        62        69        70
         2        50        62        63        70
         2        43        44        51        69
         2        43        50        51        69
         2        50        51        62        69
         2        44        51        68        69
         2        51        61        68        69
         2        51        61        62        69
         2        44        45        52        68
         2        44        51        52        68
         2        51        52        61        68
         2        45        52        67        68
         2        52        60        67        68
         2        52        60        61        68
         2        45        46        53        67
         2        45        52        53        67
         2        52        53        60        67
         2        46        53        66        67
         2        53        59        66        67
         2        53        59        60        67
         2        40        46        47        66
         2        46        47        53        66
         2        47        53        59        66
         2        40        47        65        66
         2        47        58        65        66
         2        47        58        59        66
         2        20        47        48        58
         2        19        20        47        58
         2        19        20        54        58
         2        20        48        58        64
         2        20        55        58        64
         2        20        54        55        58
         2        21        48        49        64
         2        20        21        48        64
         2        20        21        55        64
         2        21        49        63        64
         2        21        56        63        64
         2        21        55        56        64
         2        22        49        50        63
         2        21        22        49        63
         2        21        22        56        63
         2        22        50        62        63
         2        22        57        62        63
         2        22        56        57        63
         2        23        50        51        62
         2        22        23        50        62
         2        22        23        57        62
         2        23        51        61        62
         2        23        57        61        62
         2        23        57        57        62
         2        24        51        52        61
         2        23        24        51        61
         2        23        24        57        61
         2        24        52        60        61
         2        24        56        60        61
         2        24        56        57        61
         2        25        52        53        60
         2        24        25        52        60
         2        24        25        56        60
         2        25        53        59        60
         2        25        55        59        60
         2        25        55        56        60
         2        19        47        53        59
         2        19        25        53        59
         2        19        25        55        59
         2        19        47        58        59
         2        19        54        58        59
         2        19        54        55        59
