       N       E                     dE             d eps       ncg     rms          rms(c)
DAV:   1     0.439771147949E+03    0.43977E+03   -0.23033E+04 19896   0.921E+02
DAV:   2    -0.656246604628E+02   -0.50540E+03   -0.49185E+03 23808   0.439E+02
DAV:   3    -0.964306728204E+02   -0.30806E+02   -0.30263E+02 31120   0.101E+02
DAV:   4    -0.977004786928E+02   -0.12698E+01   -0.12582E+01 30600   0.186E+01
DAV:   5    -0.977541046931E+02   -0.53626E-01   -0.53471E-01 34320   0.369E+00    0.561E+01
DAV:   6    -0.912139461361E+02    0.65402E+01   -0.20329E+01 28584   0.264E+01    0.219E+01
DAV:   7    -0.908280543183E+02    0.38589E+00   -0.58843E+00 29736   0.140E+01    0.899E+00
DAV:   8    -0.904716797639E+02    0.35637E+00   -0.29929E+00 29336   0.107E+01    0.529E+00
DAV:   9    -0.904513813683E+02    0.20298E-01   -0.62801E-01 28400   0.440E+00    0.191E+00
DAV:  10    -0.904385574650E+02    0.12824E-01   -0.21530E-01 33904   0.329E+00    0.115E+00
DAV:  11    -0.904351582224E+02    0.33992E-02   -0.30804E-02 27168   0.125E+00    0.349E-01
DAV:  12    -0.904354735922E+02   -0.31537E-03   -0.49360E-03 27944   0.439E-01    0.166E-01
DAV:  13    -0.904354446509E+02    0.28941E-04   -0.40760E-04 19792   0.180E-01
   1 F= -.90435445E+02 E0= -.90435302E+02  d E =-.904354E+02
       N       E                     dE             d eps       ncg     rms          rms(c)
DAV:   1    -0.904353619148E+02    0.11168E-03   -0.43464E-02 24008   0.165E+00    0.190E-01
DAV:   2    -0.904359259634E+02   -0.56405E-03   -0.73548E-03 21216   0.475E-01    0.702E-02
DAV:   3    -0.904359239762E+02    0.19871E-05   -0.23574E-04 19256   0.101E-01
   2 F= -.90435924E+02 E0= -.90435797E+02  d E =-.479325E-03
       N       E                     dE             d eps       ncg     rms          rms(c)
DAV:   1    -0.904357991173E+02    0.12685E-03   -0.18172E-02 24112   0.107E+00    0.117E-01
DAV:   2    -0.904360076477E+02   -0.20853E-03   -0.30111E-03 21208   0.305E-01    0.560E-02
DAV:   3    -0.904359981161E+02    0.95316E-05   -0.10221E-04 16960   0.782E-02
   3 F= -.90435998E+02 E0= -.90435880E+02  d E =-.553465E-03
