   15   15   60    1
  0.9915942E+01  0.3732956E-09  0.5207389E-09  0.7930486E-09  0.5000000E-15
  1.000000000000000E-004
  CAR 
 unknown system                          
     43    221     32
 
  0.3742002E-15  0.3742002E-15  0.3742002E-15  0.2272727E-02
    1      -33.793708   1.000000
    2      -33.350856   1.000000
    3      -29.135465   1.000000
    4      -29.053456   1.000000
    5      -29.039607   1.000000
    6      -15.948735   1.000000
    7      -15.882653   1.000000
    8      -15.747052   1.000000
    9      -15.465800   1.000000
   10      -15.417402   1.000000
   11      -15.142178   1.000000
   12       -7.565412   1.000000
   13       -5.817105   1.000000
   14       -5.385766   1.000000
   15       -2.934338   1.000000
   16       -2.589593   1.000000
   17       -2.187862   1.000000
   18       -1.686043   1.000000
   19       -1.078943   1.000000
   20       -0.374123   1.000000
   21        0.169957   1.000000
   22        2.731033   0.000000
   23        3.100661   0.000000
   24        3.929389   0.000000
   25        4.390086   0.000000
   26        4.919434   0.000000
   27        5.345529   0.000000
   28        5.651273   0.000000
   29        6.244322   0.000000
   30        6.364993   0.000000
   31        6.663124   0.000000
   32        6.824255   0.000000
 
  0.9090909E-01  0.3775099E-15  0.3747003E-15  0.4545455E-02
    1      -33.791245   1.000000
    2      -33.348540   1.000000
    3      -29.143019   1.000000
    4      -29.052541   1.000000
    5      -29.039196   1.000000
    6      -15.938734   1.000000
    7      -15.877816   1.000000
    8      -15.787420   1.000000
    9      -15.462571   1.000000
   10      -15.413437   1.000000
   11      -15.180049   1.000000
   12       -7.507111   1.000000
   13       -5.798812   1.000000
   14       -5.321222   1.000000
   15       -2.897735   1.000000
   16       -2.545563   1.000000
   17       -2.146982   1.000000
   18       -1.693434   1.000000
   19       -1.123964   1.000000
   20       -0.483341   1.000000
   21        0.167808   1.000000
   22        2.563893   0.000000
   23        3.252417   0.000000
   24        3.836674   0.000000
   25        4.400535   0.000000
   26        4.795458   0.000000
   27        5.156087   0.000000
   28        5.619180   0.000000
   29        6.131095   0.000000
   30        6.326165   0.000000
   31        6.680507   0.000000
   32        6.954331   0.000000
 
  0.1818182E+00  0.3838423E-15  0.3816392E-15  0.4545455E-02
    1      -33.784629   1.000000
    2      -33.342322   1.000000
    3      -29.163451   1.000000
    4      -29.050257   1.000000
    5      -29.038049   1.000000
    6      -15.914116   1.000000
    7      -15.899191   1.000000
    8      -15.857033   1.000000
    9      -15.454836   1.000000
   10      -15.402256   1.000000
   11      -15.279712   1.000000
   12       -7.358657   1.000000
   13       -5.749950   1.000000
   14       -5.143644   1.000000
   15       -2.806623   1.000000
   16       -2.453023   1.000000
   17       -2.038071   1.000000
   18       -1.723830   1.000000
   19       -1.236436   1.000000
   20       -0.707981   1.000000
   21        0.125510   1.000000
   22        2.184182   0.000000
   23        3.430830   0.000000
   24        3.677725   0.000000
   25        4.272937   0.000000
   26        4.890086   0.000000
   27        5.018706   0.000000
   28        5.496296   0.000000
   29        5.891182   0.000000
   30        6.327551   0.000000
   31        6.553478   0.000000
   32        7.022425   0.000000
 
  0.2727273E+00  0.3815019E-15  0.3747003E-15  0.4545455E-02
    1      -33.775939   1.000000
    2      -33.334157   1.000000
    3      -29.189981   1.000000
    4      -29.047245   1.000000
    5      -29.036431   1.000000
    6      -16.035133   1.000000
    7      -15.877516   1.000000
    8      -15.839223   1.000000
    9      -15.446882   1.000000
   10      -15.406888   1.000000
   11      -15.383632   1.000000
   12       -7.181753   1.000000
   13       -5.673556   1.000000
   14       -4.873765   1.000000
   15       -2.697324   1.000000
   16       -2.391563   1.000000
   17       -1.951193   1.000000
   18       -1.783566   1.000000
   19       -1.330440   1.000000
   20       -0.863404   1.000000
   21        0.023108   1.000000
   22        1.733391   0.567789
   23        3.173381   0.000000
   24        3.792273   0.000000
   25        4.311721   0.000000
   26        4.918472   0.000000
   27        5.146226   0.000000
   28        5.534834   0.000000
   29        5.698405   0.000000
   30        6.315092   0.000000
   31        6.404746   0.000000
   32        7.048523   0.000000
 
  0.3636364E+00  0.3652847E-15  0.3469447E-15  0.4545455E-02
    1      -33.767933   1.000000
    2      -33.326634   1.000000
    3      -29.214189   1.000000
    4      -29.044544   1.000000
    5      -29.034930   1.000000
    6      -16.155755   1.000000
    7      -15.849655   1.000000
    8      -15.817387   1.000000
    9      -15.518352   1.000000
   10      -15.437187   1.000000
   11      -15.369348   1.000000
   12       -7.037044   1.000000
   13       -5.597458   1.000000
   14       -4.553092   1.000000
   15       -2.611704   1.000000
   16       -2.457415   1.000000
   17       -2.016412   1.000000
   18       -1.798404   1.000000
   19       -1.373125   1.000000
   20       -0.815249   1.000000
   21       -0.104588   1.000000
   22        1.329207   1.000000
   23        3.137807   0.000000
   24        3.711140   0.000000
   25        4.312101   0.000000
   26        4.981237   0.000000
   27        5.165121   0.000000
   28        5.451527   0.000000
   29        5.846000   0.000000
   30        6.236568   0.000000
   31        6.519200   0.000000
   32        6.886514   0.000000
 
  0.4545455E+00  0.3698569E-15  0.3469447E-15  0.4545455E-02
    1      -33.763161   1.000000
    2      -33.322150   1.000000
    3      -29.228625   1.000000
    4      -29.042984   1.000000
    5      -29.034007   1.000000
    6      -16.225931   1.000000
    7      -15.835722   1.000000
    8      -15.802815   1.000000
    9      -15.580978   1.000000
   10      -15.433469   1.000000
   11      -15.359609   1.000000
   12       -6.961923   1.000000
   13       -5.550355   1.000000
   14       -4.296581   1.000000
   15       -2.624999   1.000000
   16       -2.561366   1.000000
   17       -2.046739   1.000000
   18       -1.824127   1.000000
   19       -1.390148   1.000000
   20       -0.695363   1.000000
   21       -0.193874   1.000000
   22        1.079058   1.000000
   23        3.258611   0.000000
   24        3.801385   0.000000
   25        4.069356   0.000000
   26        5.035445   0.000000
   27        5.140697   0.000000
   28        5.294413   0.000000
   29        5.860023   0.000000
   30        6.114594   0.000000
   31        6.489541   0.000000
   32        6.904964   0.000000
 
  0.3739955E-15  0.1250000E+00  0.3736161E-15  0.4545455E-02
    1      -33.793685   1.000000
    2      -33.350827   1.000000
    3      -29.135418   1.000000
    4      -29.053527   1.000000
    5      -29.039758   1.000000
    6      -15.947322   1.000000
    7      -15.886236   1.000000
    8      -15.746949   1.000000
    9      -15.467239   1.000000
   10      -15.419702   1.000000
   11      -15.142063   1.000000
   12       -7.508948   1.000000
   13       -5.853476   1.000000
   14       -5.327491   1.000000
   15       -3.015241   1.000000
   16       -2.544248   1.000000
   17       -2.324208   1.000000
   18       -1.593109   1.000000
   19       -1.164645   1.000000
   20       -0.329961   1.000000
   21        0.147872   1.000000
   22        2.717651   0.000000
   23        3.170451   0.000000
   24        3.766676   0.000000
   25        4.490389   0.000000
   26        4.952469   0.000000
   27        5.265578   0.000000
   28        5.565524   0.000000
   29        6.189937   0.000000
   30        6.556174   0.000000
   31        6.741398   0.000000
   32        6.944397   0.000000
 
  0.9090909E-01  0.1250000E+00  0.3712308E-15  0.4545455E-02
    1      -33.791218   1.000000
    2      -33.348511   1.000000
    3      -29.143003   1.000000
    4      -29.052630   1.000000
    5      -29.039306   1.000000
    6      -15.937409   1.000000
    7      -15.881374   1.000000
    8      -15.787124   1.000000
    9      -15.464003   1.000000
   10      -15.415638   1.000000
   11      -15.179973   1.000000
   12       -7.455597   1.000000
   13       -5.824944   1.000000
   14       -5.279544   1.000000
   15       -2.963203   1.000000
   16       -2.499267   1.000000
   17       -2.265038   1.000000
   18       -1.626356   1.000000
   19       -1.221769   1.000000
   20       -0.412673   1.000000
   21        0.141821   1.000000
   22        2.551230   0.000000
   23        3.309469   0.000000
   24        3.705793   0.000000
   25        4.446950   0.000000
   26        4.832842   0.000000
   27        5.206657   0.000000
   28        5.565658   0.000000
   29        6.051717   0.000000
   30        6.422494   0.000000
   31        6.826982   0.000000
   32        6.998068   0.000000
 
  0.1818182E+00  0.1250000E+00  0.3747003E-15  0.4545455E-02
    1      -33.784594   1.000000
    2      -33.342284   1.000000
    3      -29.163385   1.000000
    4      -29.050353   1.000000
    5      -29.038062   1.000000
    6      -15.913063   1.000000
    7      -15.899346   1.000000
    8      -15.859197   1.000000
    9      -15.455751   1.000000
   10      -15.404426   1.000000
   11      -15.279474   1.000000
   12       -7.318568   1.000000
   13       -5.768217   1.000000
   14       -5.098581   1.000000
   15       -2.847031   1.000000
   16       -2.453865   1.000000
   17       -2.094321   1.000000
   18       -1.674881   1.000000
   19       -1.338597   1.000000
   20       -0.615130   1.000000
   21        0.063184   1.000000
   22        2.164417   0.000000
   23        3.455546   0.000000
   24        3.708777   0.000000
   25        4.252040   0.000000
   26        4.790897   0.000000
   27        5.197708   0.000000
   28        5.561410   0.000000
   29        5.868611   0.000000
   30        6.339712   0.000000
   31        6.622783   0.000000
   32        6.994446   0.000000
 
  0.2727273E+00  0.1250000E+00  0.3469447E-15  0.4545455E-02
    1      -33.775902   1.000000
    2      -33.334115   1.000000
    3      -29.190045   1.000000
    4      -29.047465   1.000000
    5      -29.036465   1.000000
    6      -16.034409   1.000000
    7      -15.876830   1.000000
    8      -15.841722   1.000000
    9      -15.447431   1.000000
   10      -15.406083   1.000000
   11      -15.386601   1.000000
   12       -7.157297   1.000000
   13       -5.698329   1.000000
   14       -4.808958   1.000000
   15       -2.713203   1.000000
   16       -2.449784   1.000000
   17       -1.956985   1.000000
   18       -1.721996   1.000000
   19       -1.434040   1.000000
   20       -0.774966   1.000000
   21       -0.084537   1.000000
   22        1.715530   0.745523
   23        3.218103   0.000000
   24        3.849112   0.000000
   25        4.371701   0.000000
   26        4.798565   0.000000
   27        5.300040   0.000000
   28        5.592337   0.000000
   29        5.713136   0.000000
   30        6.283047   0.000000
   31        6.420658   0.000000
   32        7.027627   0.000000
 
  0.3636364E+00  0.1250000E+00  0.4024558E-15  0.4545455E-02
    1      -33.767882   1.000000
    2      -33.326576   1.000000
    3      -29.214261   1.000000
    4      -29.044714   1.000000
    5      -29.034891   1.000000
    6      -16.154635   1.000000
    7      -15.849604   1.000000
    8      -15.818955   1.000000
    9      -15.517801   1.000000
   10      -15.437282   1.000000
   11      -15.371767   1.000000
   12       -7.024903   1.000000
   13       -5.624601   1.000000
   14       -4.466379   1.000000
   15       -2.644618   1.000000
   16       -2.480620   1.000000
   17       -2.029420   1.000000
   18       -1.746945   1.000000
   19       -1.407524   1.000000
   20       -0.767513   1.000000
   21       -0.248733   1.000000
   22        1.326357   1.000000
   23        3.199059   0.000000
   24        3.784047   0.000000
   25        4.360891   0.000000
   26        5.021939   0.000000
   27        5.169594   0.000000
   28        5.441505   0.000000
   29        5.878473   0.000000
   30        6.262657   0.000000
   31        6.395815   0.000000
   32        6.935166   0.000000
 
  0.4545455E+00  0.1250000E+00  0.3747003E-15  0.4545455E-02
    1      -33.763108   1.000000
    2      -33.322086   1.000000
    3      -29.228715   1.000000
    4      -29.043139   1.000000
    5      -29.034029   1.000000
    6      -16.224699   1.000000
    7      -15.836224   1.000000
    8      -15.803922   1.000000
    9      -15.580404   1.000000
   10      -15.433485   1.000000
   11      -15.361842   1.000000
   12       -6.957621   1.000000
   13       -5.573381   1.000000
   14       -4.208735   1.000000
   15       -2.719597   1.000000
   16       -2.469362   1.000000
   17       -2.099439   1.000000
   18       -1.801536   1.000000
   19       -1.366718   1.000000
   20       -0.710921   1.000000
   21       -0.325520   1.000000
   22        1.099766   1.000000
   23        3.367710   0.000000
   24        3.806729   0.000000
   25        4.122528   0.000000
   26        4.979901   0.000000
   27        5.146103   0.000000
   28        5.357386   0.000000
   29        5.896314   0.000000
   30        6.119668   0.000000
   31        6.468953   0.000000
   32        6.837263   0.000000
 
 -0.4545455E+00  0.1250000E+00  0.3885781E-15  0.4545455E-02
    1      -33.763100   1.000000
    2      -33.322078   1.000000
    3      -29.228581   1.000000
    4      -29.043120   1.000000
    5      -29.033918   1.000000
    6      -16.224559   1.000000
    7      -15.836263   1.000000
    8      -15.804028   1.000000
    9      -15.579966   1.000000
   10      -15.433409   1.000000
   11      -15.361585   1.000000
   12       -6.954097   1.000000
   13       -5.562840   1.000000
   14       -4.224777   1.000000
   15       -2.688268   1.000000
   16       -2.479483   1.000000
   17       -2.101777   1.000000
   18       -1.824085   1.000000
   19       -1.362664   1.000000
   20       -0.757206   1.000000
   21       -0.266470   1.000000
   22        1.113292   1.000000
   23        3.373250   0.000000
   24        3.830666   0.000000
   25        4.018517   0.000000
   26        4.964664   0.000000
   27        5.134112   0.000000
   28        5.456959   0.000000
   29        5.878440   0.000000
   30        6.193499   0.000000
   31        6.557022   0.000000
   32        6.810484   0.000000
 
 -0.3636364E+00  0.1250000E+00  0.3608225E-15  0.4545455E-02
    1      -33.767879   1.000000
    2      -33.326569   1.000000
    3      -29.214236   1.000000
    4      -29.044766   1.000000
    5      -29.034924   1.000000
    6      -16.154783   1.000000
    7      -15.850134   1.000000
    8      -15.819199   1.000000
    9      -15.517434   1.000000
   10      -15.437298   1.000000
   11      -15.371423   1.000000
   12       -7.022913   1.000000
   13       -5.605928   1.000000
   14       -4.489502   1.000000
   15       -2.638273   1.000000
   16       -2.461811   1.000000
   17       -2.023935   1.000000
   18       -1.840139   1.000000
   19       -1.370033   1.000000
   20       -0.845242   1.000000
   21       -0.157151   1.000000
   22        1.356764   0.999997
   23        3.240317   0.000000
   24        3.727986   0.000000
   25        4.191905   0.000000
   26        4.997747   0.000000
   27        5.197302   0.000000
   28        5.690531   0.000000
   29        5.849368   0.000000
   30        6.356951   0.000000
   31        6.591131   0.000000
   32        6.840967   0.000000
 
 -0.2727273E+00  0.1250000E+00  0.3608225E-15  0.4545455E-02
    1      -33.775893   1.000000
    2      -33.334098   1.000000
    3      -29.189989   1.000000
    4      -29.047387   1.000000
    5      -29.036395   1.000000
    6      -16.034404   1.000000
    7      -15.877119   1.000000
    8      -15.841756   1.000000
    9      -15.446641   1.000000
   10      -15.407568   1.000000
   11      -15.384818   1.000000
   12       -7.151882   1.000000
   13       -5.686969   1.000000
   14       -4.804450   1.000000
   15       -2.752219   1.000000
   16       -2.421205   1.000000
   17       -2.010492   1.000000
   18       -1.752856   1.000000
   19       -1.340622   1.000000
   20       -0.862133   1.000000
   21       -0.031120   1.000000
   22        1.744343   0.452222
   23        3.275587   0.000000
   24        3.808466   0.000000
   25        4.215707   0.000000
   26        4.967985   0.000000
   27        5.120595   0.000000
   28        5.528122   0.000000
   29        5.954123   0.000000
   30        6.412547   0.000000
   31        6.601783   0.000000
   32        6.869059   0.000000
 
 -0.1818182E+00  0.1250000E+00  0.3608225E-15  0.4545455E-02
    1      -33.784595   1.000000
    2      -33.342277   1.000000
    3      -29.163471   1.000000
    4      -29.050417   1.000000
    5      -29.038141   1.000000
    6      -15.913418   1.000000
    7      -15.898694   1.000000
    8      -15.860220   1.000000
    9      -15.455301   1.000000
   10      -15.405100   1.000000
   11      -15.279116   1.000000
   12       -7.315361   1.000000
   13       -5.779939   1.000000
   14       -5.068604   1.000000
   15       -2.889894   1.000000
   16       -2.453655   1.000000
   17       -2.174730   1.000000
   18       -1.601339   1.000000
   19       -1.274355   1.000000
   20       -0.707157   1.000000
   21        0.067682   1.000000
   22        2.180167   0.000000
   23        3.501645   0.000000
   24        3.730510   0.000000
   25        4.340769   0.000000
   26        4.637601   0.000000
   27        5.025371   0.000000
   28        5.488703   0.000000
   29        6.182901   0.000000
   30        6.518427   0.000000
   31        6.573507   0.000000
   32        6.994548   0.000000
 
 -0.9090909E-01  0.1250000E+00  0.3712308E-15  0.4545455E-02
    1      -33.791215   1.000000
    2      -33.348503   1.000000
    3      -29.143045   1.000000
    4      -29.052664   1.000000
    5      -29.039280   1.000000
    6      -15.937349   1.000000
    7      -15.881197   1.000000
    8      -15.787493   1.000000
    9      -15.463558   1.000000
   10      -15.415964   1.000000
   11      -15.179881   1.000000
   12       -7.451299   1.000000
   13       -5.840807   1.000000
   14       -5.248964   1.000000
   15       -2.986697   1.000000
   16       -2.518255   1.000000
   17       -2.292461   1.000000
   18       -1.571743   1.000000
   19       -1.190593   1.000000
   20       -0.460220   1.000000
   21        0.123169   1.000000
   22        2.552227   0.000000
   23        3.317088   0.000000
   24        3.856552   0.000000
   25        4.312323   0.000000
   26        4.820822   0.000000
   27        5.114283   0.000000
   28        5.504481   0.000000
   29        6.293493   0.000000
   30        6.496689   0.000000
   31        6.725717   0.000000
   32        7.007232   0.000000
 
  0.3724777E-15  0.2500000E+00  0.3733992E-15  0.4545455E-02
    1      -33.793629   1.000000
    2      -33.350759   1.000000
    3      -29.135419   1.000000
    4      -29.053897   1.000000
    5      -29.039992   1.000000
    6      -15.943813   1.000000
    7      -15.895158   1.000000
    8      -15.746909   1.000000
    9      -15.471422   1.000000
   10      -15.424570   1.000000
   11      -15.142006   1.000000
   12       -7.358368   1.000000
   13       -5.945647   1.000000
   14       -5.180915   1.000000
   15       -3.244760   1.000000
   16       -2.589375   1.000000
   17       -2.380318   1.000000
   18       -1.478357   1.000000
   19       -1.336450   1.000000
   20       -0.252208   1.000000
   21        0.095926   1.000000
   22        2.678445   0.000000
   23        3.272469   0.000000
   24        3.547793   0.000000
   25        4.685550   0.000000
   26        4.899228   0.000000
   27        5.220636   0.000000
   28        5.541813   0.000000
   29        6.151759   0.000000
   30        6.787890   0.000000
   31        6.887879   0.000000
   32        7.018261   0.000000
 
  0.9090909E-01  0.2500000E+00  0.3781697E-15  0.4545455E-02
    1      -33.791154   1.000000
    2      -33.348437   1.000000
    3      -29.143039   1.000000
    4      -29.053025   1.000000
    5      -29.039477   1.000000
    6      -15.934200   1.000000
    7      -15.889883   1.000000
    8      -15.786815   1.000000
    9      -15.467770   1.000000
   10      -15.420417   1.000000
   11      -15.179736   1.000000
   12       -7.318687   1.000000
   13       -5.911838   1.000000
   14       -5.126924   1.000000
   15       -3.192896   1.000000
   16       -2.505351   1.000000
   17       -2.349831   1.000000
   18       -1.514525   1.000000
   19       -1.386151   1.000000
   20       -0.324799   1.000000
   21        0.062689   1.000000
   22        2.517177   0.000000
   23        3.378592   0.000000
   24        3.591876   0.000000
   25        4.543228   0.000000
   26        4.836353   0.000000
   27        5.349435   0.000000
   28        5.410430   0.000000
   29        6.097701   0.000000
   30        6.587966   0.000000
   31        6.855047   0.000000
   32        7.143241   0.000000
 
  0.1818182E+00  0.2500000E+00  0.3608225E-15  0.4545455E-02
    1      -33.784518   1.000000
    2      -33.342193   1.000000
    3      -29.163403   1.000000
    4      -29.050746   1.000000
    5      -29.038225   1.000000
    6      -15.911026   1.000000
    7      -15.899521   1.000000
    8      -15.865101   1.000000
    9      -15.458274   1.000000
   10      -15.409621   1.000000
   11      -15.278649   1.000000
   12       -7.211717   1.000000
   13       -5.840809   1.000000
   14       -4.927920   1.000000
   15       -3.066368   1.000000
   16       -2.481928   1.000000
   17       -2.141532   1.000000
   18       -1.571642   1.000000
   19       -1.487789   1.000000
   20       -0.517966   1.000000
   21       -0.075488   1.000000
   22        2.140247   0.000001
   23        3.484641   0.000000
   24        3.784982   0.000000
   25        4.309016   0.000000
   26        4.756555   0.000000
   27        5.326385   0.000000
   28        5.552796   0.000000
   29        6.095864   0.000000
   30        6.376063   0.000000
   31        6.719502   0.000000
   32        6.961172   0.000000
 
  0.2727273E+00  0.2500000E+00  0.3747003E-15  0.4545455E-02
    1      -33.775805   1.000000
    2      -33.333997   1.000000
    3      -29.190136   1.000000
    4      -29.047918   1.000000
    5      -29.036489   1.000000
    6      -16.032594   1.000000
    7      -15.875670   1.000000
    8      -15.847633   1.000000
    9      -15.448413   1.000000
   10      -15.405590   1.000000
   11      -15.391501   1.000000
   12       -7.092100   1.000000
   13       -5.755121   1.000000
   14       -4.609484   1.000000
   15       -2.902998   1.000000
   16       -2.497540   1.000000
   17       -1.949937   1.000000
   18       -1.646807   1.000000
   19       -1.565288   1.000000
   20       -0.683832   1.000000
   21       -0.285564   1.000000
   22        1.714623   0.753820
   23        3.349265   0.000000
   24        3.903990   0.000000
   25        4.404289   0.000000
   26        4.832416   0.000000
   27        5.390164   0.000000
   28        5.735555   0.000000
   29        5.983152   0.000000
   30        6.274451   0.000000
   31        6.521011   0.000000
   32        6.795717   0.000000
 
  0.3636364E+00  0.2500000E+00  0.3747003E-15  0.4545455E-02
    1      -33.767772   1.000000
    2      -33.326439   1.000000
    3      -29.214404   1.000000
    4      -29.045282   1.000000
    5      -29.035018   1.000000
    6      -16.152078   1.000000
    7      -15.850503   1.000000
    8      -15.822977   1.000000
    9      -15.516119   1.000000
   10      -15.437992   1.000000
   11      -15.377267   1.000000
   12       -6.996960   1.000000
   13       -5.673223   1.000000
   14       -4.244528   1.000000
   15       -2.792643   1.000000
   16       -2.499758   1.000000
   17       -2.055854   1.000000
   18       -1.711280   1.000000
   19       -1.426006   1.000000
   20       -0.744698   1.000000
   21       -0.503613   1.000000
   22        1.362652   0.999996
   23        3.358866   0.000000
   24        3.881445   0.000000
   25        4.370819   0.000000
   26        4.973715   0.000000
   27        5.339091   0.000000
   28        5.745475   0.000000
   29        6.012593   0.000000
   30        6.136189   0.000000
   31        6.427375   0.000000
   32        6.887299   0.000000
 
  0.4545455E+00  0.2500000E+00  0.3885781E-15  0.4545455E-02
    1      -33.762978   1.000000
    2      -33.321928   1.000000
    3      -29.228784   1.000000
    4      -29.043677   1.000000
    5      -29.033974   1.000000
    6      -16.221610   1.000000
    7      -15.837823   1.000000
    8      -15.806617   1.000000
    9      -15.578447   1.000000
   10      -15.433831   1.000000
   11      -15.366851   1.000000
   12       -6.944626   1.000000
   13       -5.615461   1.000000
   14       -3.981093   1.000000
   15       -2.815435   1.000000
   16       -2.400361   1.000000
   17       -2.218928   1.000000
   18       -1.753510   1.000000
   19       -1.316479   1.000000
   20       -0.815815   1.000000
   21       -0.566179   1.000000
   22        1.171048   1.000000
   23        3.602641   0.000000
   24        3.832714   0.000000
   25        4.174977   0.000000
   26        4.893513   0.000000
   27        5.255272   0.000000
   28        5.556068   0.000000
   29        5.958306   0.000000
   30        6.124658   0.000000
   31        6.580403   0.000000
   32        6.783467   0.000000
 
 -0.4545455E+00  0.2500000E+00  0.3885781E-15  0.4545455E-02
    1      -33.762974   1.000000
    2      -33.321923   1.000000
    3      -29.228775   1.000000
    4      -29.043621   1.000000
    5      -29.033974   1.000000
    6      -16.221597   1.000000
    7      -15.837958   1.000000
    8      -15.806892   1.000000
    9      -15.578130   1.000000
   10      -15.433732   1.000000
   11      -15.366644   1.000000
   12       -6.943130   1.000000
   13       -5.603125   1.000000
   14       -4.012240   1.000000
   15       -2.774342   1.000000
   16       -2.385008   1.000000
   17       -2.233263   1.000000
   18       -1.796009   1.000000
   19       -1.324249   1.000000
   20       -0.879229   1.000000
   21       -0.480138   1.000000
   22        1.187724   1.000000
   23        3.617348   0.000000
   24        3.911515   0.000000
   25        3.985517   0.000000
   26        4.954801   0.000000
   27        5.169314   0.000000
   28        5.656497   0.000000
   29        5.919369   0.000000
   30        6.224932   0.000000
   31        6.653557   0.000000
   32        6.745109   0.000000
 
 -0.3636364E+00  0.2500000E+00  0.3608225E-15  0.4545455E-02
    1      -33.767762   1.000000
    2      -33.326425   1.000000
    3      -29.214442   1.000000
    4      -29.045229   1.000000
    5      -29.034924   1.000000
    6      -16.152333   1.000000
    7      -15.850977   1.000000
    8      -15.823162   1.000000
    9      -15.515672   1.000000
   10      -15.437773   1.000000
   11      -15.376657   1.000000
   12       -6.991448   1.000000
   13       -5.648380   1.000000
   14       -4.284054   1.000000
   15       -2.753632   1.000000
   16       -2.492693   1.000000
   17       -2.025905   1.000000
   18       -1.850922   1.000000
   19       -1.384945   1.000000
   20       -0.887170   1.000000
   21       -0.342774   1.000000
   22        1.400001   0.999962
   23        3.438017   0.000000
   24        3.847553   0.000000
   25        4.106995   0.000000
   26        4.993884   0.000000
   27        5.396234   0.000000
   28        5.783462   0.000000
   29        6.013852   0.000000
   30        6.298355   0.000000
   31        6.621368   0.000000
   32        6.894640   0.000000
 
 -0.2727273E+00  0.2500000E+00  0.3885781E-15  0.4545455E-02
    1      -33.775791   1.000000
    2      -33.333976   1.000000
    3      -29.190015   1.000000
    4      -29.047763   1.000000
    5      -29.036405   1.000000
    6      -16.032550   1.000000
    7      -15.876030   1.000000
    8      -15.847698   1.000000
    9      -15.447265   1.000000
   10      -15.408258   1.000000
   11      -15.388428   1.000000
   12       -7.082560   1.000000
   13       -5.736006   1.000000
   14       -4.610958   1.000000
   15       -2.915522   1.000000
   16       -2.517029   1.000000
   17       -2.020521   1.000000
   18       -1.680129   1.000000
   19       -1.419619   1.000000
   20       -0.847964   1.000000
   21       -0.181151   1.000000
   22        1.749949   0.393699
   23        3.465329   0.000000
   24        3.879145   0.000000
   25        4.171508   0.000000
   26        4.826297   0.000000
   27        5.299582   0.000000
   28        5.759062   0.000000
   29        6.233024   0.000000
   30        6.408368   0.000000
   31        6.533556   0.000000
   32        6.924750   0.000000
 
 -0.1818182E+00  0.2500000E+00  0.3608225E-15  0.4545455E-02
    1      -33.784515   1.000000
    2      -33.342180   1.000000
    3      -29.163495   1.000000
    4      -29.050743   1.000000
    5      -29.038226   1.000000
    6      -15.911579   1.000000
    7      -15.898040   1.000000
    8      -15.866736   1.000000
    9      -15.457377   1.000000
   10      -15.410520   1.000000
   11      -15.278155   1.000000
   12       -7.204663   1.000000
   13       -5.844121   1.000000
   14       -4.898176   1.000000
   15       -3.095546   1.000000
   16       -2.556529   1.000000
   17       -2.184663   1.000000
   18       -1.472772   1.000000
   19       -1.411468   1.000000