unknown system                          
           1
     2.854774   -0.074020   -0.077303
     0.181595    5.916464   -0.263021
     0.320147    0.352969    6.553040
   H 
  19
Direct configuration=     1
   0.09949400  0.16857600  0.64518300
   0.58681500  0.82491000  0.73534600
   0.59759800  0.94379400  0.69980500
   0.09360600  0.22569200  0.54350900
   0.59672600  0.45130700  0.49955500
   0.59899800  0.57355900  0.47451700
   0.71231000  0.54562300  0.13921300
   0.08590000  0.54449900  0.83503900
   0.37913100  0.54078800  0.14147400
   0.59748900  0.21299900  0.24471500
   0.60282300  0.09895600  0.29257200
   0.04484300  0.53010400  0.14589500
   0.07918000  0.78525800  0.37532900
   0.11460700  0.89405800  0.42884800
   0.09199100  0.58271600  0.72669400
   0.54640900  0.19773800  0.93610400
   0.60339000  0.30082000  0.87542600
   0.15613200  0.89654700  0.06910200
   0.01875000  0.93403000  0.97928200
unknown system                          
           1
     2.885590   -0.074948   -0.078648
     0.183530    5.991347   -0.269191
     0.322510    0.354053    6.629924
   H 
  19
Direct configuration=     2
   0.09948286  0.16893334  0.64493651
   0.58661991  0.82397752  0.73551702
   0.59780266  0.94472958  0.69923083
   0.09351428  0.22533416  0.54353374
   0.59673663  0.45030844  0.49971029
   0.59889896  0.57450038  0.47436035
   0.71226832  0.54548940  0.13923912
   0.08595877  0.54480880  0.83514238
   0.37907762  0.54081070  0.14147596
   0.59738577  0.21387825  0.24449312
   0.60306713  0.09835005  0.29287173
   0.04494411  0.53040172  0.14580282
   0.07934991  0.78541282  0.37518222
   0.11459761  0.89373324  0.42881614
   0.09181219  0.58254322  0.72711687
   0.54587903  0.19712882  0.93656821
   0.60389997  0.30119686  0.87497255
   0.15579982  0.89689937  0.06894498
   0.01909644  0.93353734  0.97969316
unknown system                          
           1
     2.924880   -0.076131   -0.080364
     0.185998    6.086825   -0.277057
     0.325522    0.355436    6.727952
   H 
  19
Direct configuration=     3
   0.09946871  0.16938308  0.64462606
   0.58637383  0.82280359  0.73573204
   0.59806059  0.94590715  0.69850775
   0.09339857  0.22488363  0.54356472
   0.59675001  0.44905130  0.49990545
   0.59877403  0.57568553  0.47416344
   0.71221575  0.54532121  0.13927195
   0.08603299  0.54519892  0.83527283
   0.37901029  0.54083927  0.14147845
   0.59725552  0.21498513  0.24421396
   0.60337518  0.09758733  0.29324917
   0.04507163  0.53077651  0.14568683
   0.07956417  0.78560766  0.37499733
   0.11458571  0.89332434  0.42877582
   0.09158686  0.58232595  0.72764968
   0.54521073  0.19636211  0.93715285
   0.60454303  0.30167105  0.87440134
   0.15538076  0.89734291  0.06874725
   0.01953362  0.93291732  0.98021110
unknown system                          
           1
     2.933208   -0.076475   -0.080726
     0.186305    6.104788   -0.277421
     0.326178    0.357011    6.748441
   H 
  19
Direct configuration=     4
   0.09945815  0.16955085  0.64442929
   0.58637749  0.82314969  0.73559716
   0.59806035  0.94556280  0.69853506
   0.09338140  0.22471526  0.54370143
   0.59676239  0.44938409  0.49982503
   0.59873733  0.57533876  0.47424537
   0.71220674  0.54527032  0.13928570
   0.08605738  0.54533397  0.83514904
   0.37900156  0.54084144  0.14148025
   0.59725322  0.21471545  0.24436607
   0.60341511  0.09792985  0.29311898
   0.04509036  0.53087641  0.14565330
   0.07966583  0.78581956  0.37504203
   0.11452774  0.89306670  0.42868163
   0.09153028  0.58222561  0.72791569
   0.54531204  0.19663200  0.93701903
   0.60443666  0.30133850  0.87453703
   0.15519377  0.89746368  0.06864305
   0.01972421  0.93275904  0.98038288
unknown system                          
           1
     2.958191   -0.077505   -0.081812
     0.187225    6.158678   -0.278514
     0.328146    0.361737    6.809906
   H 
  19
Direct configuration=     5
   0.09942652  0.17005273  0.64384074
   0.58638847  0.82418499  0.73519368
   0.59805956  0.94453281  0.69861681
   0.09333004  0.22421158  0.54411036
   0.59679945  0.45037955  0.49958442
   0.59862745  0.57430148  0.47449048
   0.71217978  0.54511809  0.13932682
   0.08613034  0.54573796  0.83477879
   0.37897544  0.54084795  0.14148566
   0.59724632  0.21390877  0.24482108
   0.60353461  0.09895441  0.29272952
   0.04514640  0.53117524  0.14555299
   0.07997000  0.78645340  0.37517567
   0.11435423  0.89229608  0.42839997
   0.09136109  0.58192538  0.72871129
   0.54561513  0.19743933  0.93661875
   0.60411839  0.30034375  0.87494295
   0.15463439  0.89782496  0.06833134
   0.02029438  0.93228554  0.98089669
unknown system                          
           1
     3.008158   -0.079565   -0.083985
     0.189067    6.266459   -0.280699
     0.332083    0.371189    6.932838
   H 
  19
Direct configuration=     6
   0.09936365  0.17104799  0.64267406
   0.58641052  0.82623769  0.73439361
   0.59805750  0.94249077  0.69877924
   0.09322820  0.22321283  0.54492102
   0.59687331  0.45235318  0.49910716
   0.59840918  0.57224493  0.47497666
   0.71212626  0.54481627  0.13940839
   0.08627497  0.54653907  0.83404483
   0.37892365  0.54086083  0.14149636
   0.59723253  0.21230929  0.24572318
   0.60377186  0.10098582  0.29195726
   0.04525761  0.53176773  0.14535408
   0.08057364  0.78770998  0.37544034
   0.11400953  0.89076842  0.42784201
   0.09102597  0.58132979  0.73028823
   0.54621634  0.19904010  0.93582515
   0.60348702  0.29837139  0.87574779
   0.15352505  0.89854128  0.06771334
   0.02142520  0.93134664  0.98191528
unknown system                          
           1
     3.108093   -0.083686   -0.088331
     0.192749    6.482020   -0.285070
     0.339955    0.390092    7.178700
   H 
  19
Direct configuration=     7
   0.09923944  0.17300537  0.64038135
   0.58645488  0.83027332  0.73282032
   0.59805160  0.93847669  0.69909986
   0.09302799  0.22124889  0.54651429
   0.59701994  0.45623311  0.49816813
   0.59797848  0.56820196  0.47593327
   0.71202081  0.54422291  0.13956883
   0.08655925  0.54811447  0.83260239
   0.37882183  0.54088614  0.14151736
   0.59720501  0.20916444  0.24749657
   0.60423948  0.10497963  0.29043869
   0.04547668  0.53293257  0.14496289
   0.08176247  0.79017987  0.37595949
   0.11332929  0.88776597  0.42674696
   0.09036842  0.58015756  0.73338651
   0.54739932  0.20218752  0.93426505
   0.60224435  0.29449355  0.87733024
   0.15134316  0.89994963  0.06649849
   0.02364964  0.92950042  0.98391730
unknown system                          
           1
     3.105909   -0.083583   -0.088215
     0.193057    6.493064   -0.287054
     0.340292    0.389067    7.190084
   H 
  19
Direct configuration=     8
   0.09926809  0.17285220  0.64074106
   0.58639306  0.82987489  0.73293997
   0.59811761  0.93888833  0.69894297
   0.09298825  0.22139221  0.54612579
   0.59701841  0.45587643  0.49824701
   0.59796346  0.56856152  0.47587505
   0.71202373  0.54403833  0.13965886
   0.08655731  0.54802777  0.83300954
   0.37888939  0.54083413  0.14153272
   0.59715596  0.20967865  0.24730786
   0.60430194  0.10449690  0.29064462
   0.04540806  0.53318884  0.14485040
   0.08167116  0.78985453  0.37575218
   0.11344068  0.88807011  0.42692811
   0.09035696  0.58024775  0.73303558
   0.54711809  0.20173945  0.93454169
   0.60252699  0.29489758  0.87704137
   0.15171238  0.89991338  0.06674682
   0.02328047  0.92954102  0.98368639
unknown system                          
           1
     3.105056   -0.083543   -0.088170
     0.193178    6.497375   -0.287828
     0.340424    0.388667    7.194527
   H 
  19
Direct configuration=     9
   0.09927929  0.17279255  0.64088125
   0.58636892  0.82971963  0.73298657
   0.59814339  0.93904873  0.69888186
   0.09297272  0.22144802  0.54597439
   0.59701781  0.45573744  0.49827772
   0.59795760  0.56870164  0.47585239
   0.71202487  0.54396641  0.13969393
   0.08655656  0.54799402  0.83316822
   0.37891578  0.54081386  0.14153870
   0.59713679  0.20987900  0.24723435
   0.60432635  0.10430880  0.29072484
   0.04538125  0.53328870  0.14480658
   0.08163550  0.78972773  0.37567136
   0.11348419  0.88818865  0.42699874
   0.09035248  0.58028286  0.73289881
   0.54700824  0.20156487  0.93464948
   0.60263739  0.29505499  0.87692882
   0.15185661  0.89989928  0.06684360
   0.02313625  0.92955681  0.98359641
