   18   18   60    1
  0.8525750E+01  0.4626648E-09  0.5109368E-09  0.7097096E-09  0.5000000E-15
  1.000000000000000E-004
  CAR 
 unknown system                          
     67    218     44
 
  0.3742002E-15  0.3742002E-15  0.3742002E-15  0.2314815E-02
    1      -31.160803   1.000000
    2      -28.306560   1.000000
    3      -28.222787   1.000000
    4      -28.156131   1.000000
    5      -28.021740   1.000000
    6      -27.957201   1.000000
    7      -27.919200   1.000000
    8      -27.866150   1.000000
    9      -27.839191   1.000000
   10      -27.810977   1.000000
   11      -27.729863   1.000000
   12      -27.560624   1.000000
   13      -27.483107   1.000000
   14      -13.382528   1.000000
   15      -13.366441   1.000000
   16      -13.292368   1.000000
   17       -6.086836   1.000000
   18       -3.160523   1.000000
   19       -2.914818   1.000000
   20       -2.660723   1.000000
   21       -2.407228   1.000000
   22       -2.126252   1.000000
   23       -1.828722   1.000000
   24       -1.357668   1.000000
   25       -1.037400   1.000000
   26       -0.758384   1.000000
   27       -0.420169   1.000000
   28       -0.136916   1.000000
   29        0.948665   1.000000
   30        1.542749   1.000000
   31        2.009020   1.000000
   32        2.719491   1.000000
   33        3.155648   0.999996
   34        3.508023   0.738139
   35        3.798051   0.001195
   36        4.252545   0.000000
   37        4.521324   0.000000
   38        4.565200   0.000000
   39        5.364803   0.000000
   40        5.636744   0.000000
   41        5.908565   0.000000
   42        6.451434   0.000000
   43        6.798555   0.000000
   44        7.581541   0.000000
 
  0.1111111E+00  0.3749171E-15  0.3747003E-15  0.4629630E-02
    1      -31.160645   1.000000
    2      -28.302451   1.000000
    3      -28.234742   1.000000
    4      -28.168047   1.000000
    5      -28.009514   1.000000
    6      -27.947222   1.000000
    7      -27.920415   1.000000
    8      -27.873741   1.000000
    9      -27.833525   1.000000
   10      -27.809443   1.000000
   11      -27.723947   1.000000
   12      -27.560328   1.000000
   13      -27.491257   1.000000
   14      -13.383318   1.000000
   15      -13.366007   1.000000
   16      -13.304418   1.000000
   17       -5.961764   1.000000
   18       -3.206655   1.000000
   19       -2.934071   1.000000
   20       -2.589636   1.000000
   21       -2.364025   1.000000
   22       -2.185878   1.000000
   23       -1.761412   1.000000
   24       -1.355027   1.000000
   25       -1.049381   1.000000
   26       -0.894820   1.000000
   27       -0.439717   1.000000
   28       -0.179129   1.000000
   29        0.963690   1.000000
   30        1.480281   1.000000
   31        2.060032   1.000000
   32        2.646568   1.000000
   33        3.128929   0.999999
   34        3.593855   0.003504
   35        3.865143   0.000054
   36        4.186414   0.000000
   37        4.454675   0.000000
   38        4.799257   0.000000
   39        5.321752   0.000000
   40        5.659848   0.000000
   41        5.900085   0.000000
   42        6.443679   0.000000
   43        6.879522   0.000000
   44        7.436211   0.000000
 
  0.2222222E+00  0.3781697E-15  0.3885781E-15  0.4629630E-02
    1      -31.160256   1.000000
    2      -28.291963   1.000000
    3      -28.249739   1.000000
    4      -28.192163   1.000000
    5      -27.992412   1.000000
    6      -27.935625   1.000000
    7      -27.928487   1.000000
    8      -27.884361   1.000000
    9      -27.829084   1.000000
   10      -27.814955   1.000000
   11      -27.694148   1.000000
   12      -27.559811   1.000000
   13      -27.507765   1.000000
   14      -13.387532   1.000000
   15      -13.366131   1.000000
   16      -13.332039   1.000000
   17       -5.601475   1.000000
   18       -3.298714   1.000000
   19       -2.946664   1.000000
   20       -2.513225   1.000000
   21       -2.397484   1.000000
   22       -2.174185   1.000000
   23       -1.767805   1.000000
   24       -1.404743   1.000000
   25       -1.288161   1.000000
   26       -0.804273   1.000000
   27       -0.498301   1.000000
   28       -0.230484   1.000000
   29        0.892099   1.000000
   30        1.413636   1.000000
   31        2.143030   1.000000
   32        2.583756   1.000000
   33        3.106413   1.000000
   34        3.652455  -0.036896
   35        3.929098   0.000001
   36        4.199701   0.000000
   37        4.576407   0.000000
   38        4.962958   0.000000
   39        5.088396   0.000000
   40        5.636050   0.000000
   41        6.083784   0.000000
   42        6.467256   0.000000
   43        7.036530   0.000000
   44        7.207804   0.000000
 
  0.3333333E+00  0.3790371E-15  0.3330669E-15  0.4629630E-02
    1      -31.159808   1.000000
    2      -28.277662   1.000000
    3      -28.253483   1.000000
    4      -28.206074   1.000000
    5      -27.989117   1.000000
    6      -27.950992   1.000000
    7      -27.936112   1.000000
    8      -27.892307   1.000000
    9      -27.832585   1.000000
   10      -27.823266   1.000000
   11      -27.646485   1.000000
   12      -27.556740   1.000000
   13      -27.520878   1.000000
   14      -13.401107   1.000000
   15      -13.369013   1.000000
   16      -13.350410   1.000000
   17       -5.047670   1.000000
   18       -3.379271   1.000000
   19       -2.940813   1.000000
   20       -2.777925   1.000000
   21       -2.453475   1.000000
   22       -2.227614   1.000000
   23       -1.882204   1.000000
   24       -1.472453   1.000000
   25       -1.190955   1.000000
   26       -0.684618   1.000000
   27       -0.552976   1.000000
   28       -0.186272   1.000000
   29        0.697347   1.000000
   30        1.551714   1.000000
   31        2.175611   1.000000
   32        2.590929   1.000000
   33        3.005355   1.000000
   34        3.589287   0.022164
   35        4.062653   0.000000
   36        4.264186   0.000000
   37        4.479082   0.000000
   38        4.875359   0.000000
   39        5.273246   0.000000
   40        5.693533   0.000000
   41        6.037966   0.000000
   42        6.572279   0.000000
   43        6.855063   0.000000
   44        7.058198   0.000000
 
  0.4444444E+00  0.3833739E-15  0.3608225E-15  0.4629630E-02
    1      -31.159511   1.000000
    2      -28.266913   1.000000
    3      -28.256045   1.000000
    4      -28.196660   1.000000
    5      -28.014891   1.000000
    6      -27.960174   1.000000
    7      -27.940708   1.000000
    8      -27.897819   1.000000
    9      -27.840537   1.000000
   10      -27.821307   1.000000
   11      -27.615175   1.000000
   12      -27.547156   1.000000
   13      -27.531049   1.000000
   14      -13.417571   1.000000
   15      -13.371591   1.000000
   16      -13.353479   1.000000
   17       -4.384124   1.000000
   18       -3.612080   1.000000
   19       -3.256100   1.000000
   20       -2.767098   1.000000
   21       -2.596237   1.000000
   22       -2.411654   1.000000
   23       -1.778586   1.000000
   24       -1.417847   1.000000
   25       -1.073859   1.000000
   26       -0.750691   1.000000
   27       -0.511257   1.000000
   28       -0.106042   1.000000
   29        0.568555   1.000000
   30        1.838114   1.000000
   31        2.178343   1.000000
   32        2.460896   1.000000
   33        2.866503   1.000000
   34        3.590427   0.017212
   35        4.024393   0.000000
   36        4.274521   0.000000
   37        4.457330   0.000000
   38        5.062810   0.000000
   39        5.334764   0.000000
   40        5.633675   0.000000
   41        5.959500   0.000000
   42        6.368277   0.000000
   43        6.867803   0.000000
   44        6.949228   0.000000
 
  0.3747003E-15  0.1250000E+00  0.3781697E-15  0.4629630E-02
    1      -31.160902   1.000000
    2      -28.299022   1.000000
    3      -28.220099   1.000000
    4      -28.151356   1.000000
    5      -28.023078   1.000000
    6      -27.957831   1.000000
    7      -27.930208   1.000000
    8      -27.870864   1.000000
    9      -27.833347   1.000000
   10      -27.815325   1.000000
   11      -27.726152   1.000000
   12      -27.563804   1.000000
   13      -27.483196   1.000000
   14      -13.390018   1.000000
   15      -13.367906   1.000000
   16      -13.292997   1.000000
   17       -5.975196   1.000000
   18       -3.166379   1.000000
   19       -2.910264   1.000000
   20       -2.624076   1.000000
   21       -2.409643   1.000000
   22       -2.141045   1.000000
   23       -1.875396   1.000000
   24       -1.416276   1.000000
   25       -1.096623   1.000000
   26       -0.825956   1.000000
   27       -0.385789   1.000000
   28       -0.142585   1.000000
   29        0.939828   1.000000
   30        1.547261   1.000000
   31        2.060711   1.000000
   32        2.660305   1.000000
   33        3.210540   0.999894
   34        3.554883   0.262982
   35        3.778350   0.002280
   36        4.142834   0.000000
   37        4.571889   0.000000
   38        4.769751   0.000000
   39        5.300074   0.000000
   40        5.671750   0.000000
   41        5.939164   0.000000
   42        6.160430   0.000000
   43        6.976910   0.000000
   44        7.319532   0.000000
 
  0.1111111E+00  0.1250000E+00  0.3885781E-15  0.4629630E-02
    1      -31.160842   1.000000
    2      -28.285316   1.000000
    3      -28.240897   1.000000
    4      -28.162764   1.000000
    5      -28.007706   1.000000
    6      -27.946439   1.000000
    7      -27.936141   1.000000
    8      -27.870400   1.000000
    9      -27.839031   1.000000
   10      -27.811978   1.000000
   11      -27.720345   1.000000
   12      -27.563193   1.000000
   13      -27.491659   1.000000
   14      -13.392842   1.000000
   15      -13.367426   1.000000
   16      -13.304347   1.000000
   17       -5.836049   1.000000
   18       -3.224761   1.000000
   19       -2.952614   1.000000
   20       -2.576938   1.000000
   21       -2.356423   1.000000
   22       -2.124272   1.000000
   23       -1.696521   1.000000
   24       -1.446722   1.000000
   25       -1.222404   1.000000
   26       -0.988073   1.000000
   27       -0.457740   1.000000
   28       -0.168049   1.000000
   29        0.970677   1.000000
   30        1.516972   1.000000
   31        2.146176   1.000000
   32        2.689022   1.000000
   33        3.113133   1.000000
   34        3.503973   0.774838
   35        3.796416   0.001268
   36        4.259507   0.000000
   37        4.527260   0.000000
   38        4.963546   0.000000
   39        5.311216   0.000000
   40        5.599530   0.000000
   41        5.935158   0.000000
   42        6.206886   0.000000
   43        7.037768   0.000000
   44        7.308296   0.000000
 
  0.2222222E+00  0.1250000E+00  0.3885781E-15  0.4629630E-02
    1      -31.160418   1.000000
    2      -28.288153   1.000000
    3      -28.240704   1.000000
    4      -28.188139   1.000000
    5      -27.987892   1.000000
    6      -27.951760   1.000000
    7      -27.929101   1.000000
    8      -27.885430   1.000000
    9      -27.840345   1.000000
   10      -27.805037   1.000000
   11      -27.693105   1.000000
   12      -27.562722   1.000000
   13      -27.508418   1.000000
   14      -13.396341   1.000000
   15      -13.367814   1.000000
   16      -13.330496   1.000000
   17       -5.471023   1.000000
   18       -3.335849   1.000000
   19       -2.969181   1.000000
   20       -2.560698   1.000000
   21       -2.336506   1.000000
   22       -2.094709   1.000000
   23       -1.752560   1.000000
   24       -1.536329   1.000000
   25       -1.271100   1.000000
   26       -0.955416   1.000000
   27       -0.531155   1.000000
   28       -0.191475   1.000000
   29        0.828897   1.000000
   30        1.580855   1.000000
   31        2.198082   1.000000
   32        2.706863   1.000000
   33        3.044651   1.000000
   34        3.472313   0.984006
   35        3.889682   0.000013
   36        4.391585   0.000000
   37        4.524000   0.000000
   38        4.951492   0.000000
   39        5.124590   0.000000
   40        5.614432   0.000000
   41        6.079591   0.000000
   42        6.438187   0.000000
   43        7.058490   0.000000
   44        7.212323   0.000000
 
  0.3333333E+00  0.1250000E+00  0.3608225E-15  0.4629630E-02
    1      -31.159830   1.000000
    2      -28.296136   1.000000
    3      -28.229671   1.000000
    4      -28.196101   1.000000
    5      -27.991963   1.000000
    6      -27.962805   1.000000
    7      -27.932032   1.000000
    8      -27.900858   1.000000
    9      -27.834781   1.000000
   10      -27.813959   1.000000
   11      -27.645732   1.000000
   12      -27.560065   1.000000
   13      -27.522046   1.000000
   14      -13.405086   1.000000
   15      -13.372258   1.000000
   16      -13.348928   1.000000
   17       -4.926158   1.000000
   18       -3.437966   1.000000
   19       -2.986686   1.000000
   20       -2.798998   1.000000
   21       -2.440351   1.000000
   22       -2.192927   1.000000
   23       -1.865792   1.000000
   24       -1.547366   1.000000
   25       -1.095587   1.000000
   26       -0.823099   1.000000
   27       -0.550491   1.000000
   28       -0.132360   1.000000
   29        0.630753   1.000000
   30        1.736477   1.000000
   31        2.230065   1.000000
   32        2.699836   1.000000
   33        2.885773   1.000000
   34        3.497638   0.828270
   35        4.016243   0.000000
   36        4.236605   0.000000
   37        4.524261   0.000000
   38        4.944586   0.000000
   39        5.163114   0.000000
   40        5.664124   0.000000
   41        6.029433   0.000000
   42        6.596923   0.000000
   43        6.846678   0.000000
   44        7.161283   0.000000
 
  0.4444444E+00  0.1250000E+00  0.3608225E-15  0.4629630E-02
    1      -31.159350   1.000000
    2      -28.302459   1.000000
    3      -28.227433   1.000000
    4      -28.178730   1.000000
    5      -28.019337   1.000000
    6      -27.974810   1.000000
    7      -27.929749   1.000000
    8      -27.910667   1.000000
    9      -27.831374   1.000000
   10      -27.816986   1.000000
   11      -27.614060   1.000000
   12      -27.551254   1.000000
   13      -27.532570   1.000000
   14      -13.416473   1.000000
   15      -13.376131   1.000000
   16      -13.352422   1.000000
   17       -4.295847   1.000000
   18       -3.650597   1.000000
   19       -3.316562   1.000000
   20       -2.806421   1.000000
   21       -2.607171   1.000000
   22       -2.360181   1.000000
   23       -1.787244   1.000000
   24       -1.431585   1.000000
   25       -0.993520   1.000000
   26       -0.803064   1.000000
   27       -0.496696   1.000000
   28       -0.060738   1.000000
   29        0.577233   1.000000
   30        1.940595   1.000000
   31        2.246127   1.000000
   32        2.414988   1.000000
   33        2.847298   1.000000
   34        3.524318   0.575818
   35        3.909891   0.000004
   36        4.345881   0.000000
   37        4.457638   0.000000
   38        5.023794   0.000000
   39        5.236437   0.000000
   40        5.650197   0.000000
   41        5.929380   0.000000
   42        6.389387   0.000000
   43        6.840695   0.000000
   44        7.051815   0.000000
 
 -0.4444444E+00  0.1250000E+00  0.3608225E-15  0.4629630E-02
    1      -31.159203   1.000000
    2      -28.310529   1.000000
    3      -28.225144   1.000000
    4      -28.176725   1.000000
    5      -28.015511   1.000000
    6      -27.981858   1.000000
    7      -27.930271   1.000000
    8      -27.907766   1.000000
    9      -27.828286   1.000000
   10      -27.814422   1.000000
   11      -27.613923   1.000000
   12      -27.552120   1.000000
   13      -27.532266   1.000000
   14      -13.413844   1.000000
   15      -13.376420   1.000000
   16      -13.352272   1.000000
   17       -4.376603   1.000000
   18       -3.599811   1.000000
   19       -3.317908   1.000000
   20       -2.761823   1.000000
   21       -2.643967   1.000000
   22       -2.377079   1.000000
   23       -1.770449   1.000000
   24       -1.396507   1.000000
   25       -1.077349   1.000000
   26       -0.737162   1.000000
   27       -0.459151   1.000000
   28       -0.057753   1.000000
   29        0.676409   1.000000
   30        1.799441   1.000000
   31        2.149337   1.000000
   32        2.495026   1.000000
   33        2.862107   1.000000
   34        3.505059   0.765181
   35        4.005521   0.000000
   36        4.245756   0.000000
   37        4.446425   0.000000
   38        4.982662   0.000000
   39        5.321886   0.000000
   40        5.708492   0.000000
   41        5.941203   0.000000
   42        6.397112   0.000000
   43        6.741519   0.000000
   44        6.853180   0.000000
 
 -0.3333333E+00  0.1250000E+00  0.3330669E-15  0.4629630E-02
    1      -31.159463   1.000000
    2      -28.319444   1.000000
    3      -28.219392   1.000000
    4      -28.191093   1.000000
    5      -27.994980   1.000000
    6      -27.966283   1.000000
    7      -27.937357   1.000000
    8      -27.894520   1.000000
    9      -27.820899   1.000000
   10      -27.812972   1.000000
   11      -27.646114   1.000000
   12      -27.560766   1.000000
   13      -27.522347   1.000000
   14      -13.396762   1.000000
   15      -13.374807   1.000000
   16      -13.349064   1.000000
   17       -5.011933   1.000000
   18       -3.405568   1.000000
   19       -3.003944   1.000000
   20       -2.824798   1.000000
   21       -2.383221   1.000000
   22       -2.310526   1.000000
   23       -1.873351   1.000000
   24       -1.387750   1.000000
   25       -1.202303   1.000000
   26       -0.761266   1.000000
   27       -0.452693   1.000000
   28       -0.059083   1.000000
   29        0.832347   1.000000
   30        1.478288   1.000000
   31        2.110641   1.000000
   32        2.561343   1.000000
   33        3.008135   1.000000
   34        3.566643   0.161783
   35        4.003523   0.000000
   36        4.158679   0.000000
   37        4.596191   0.000000
   38        4.812061   0.000000
   39        5.305432   0.000000
   40        5.796191   0.000000
   41        5.982653   0.000000
   42        6.502726   0.000000
   43        6.757154   0.000000
   44        6.835170   0.000000
 
 -0.2222222E+00  0.1250000E+00  0.3469447E-15  0.4629630E-02
    1      -31.160003   1.000000
    2      -28.322192   1.000000
    3      -28.210422   1.000000
    4      -28.191554   1.000000
    5      -27.998756   1.000000
    6      -27.952462   1.000000
    7      -27.927283   1.000000
    8      -27.888635   1.000000
    9      -27.820173   1.000000
   10      -27.803310   1.000000
   11      -27.694429   1.000000
   12      -27.563741   1.000000
   13      -27.508293   1.000000
   14      -13.386673   1.000000
   15      -13.370208   1.000000
   16      -13.331470   1.000000
   17       -5.536697   1.000000
   18       -3.315233   1.000000
   19       -2.884169   1.000000
   20       -2.691475   1.000000
   21       -2.319822   1.000000
   22       -2.263520   1.000000
   23       -1.894716   1.000000
   24       -1.326390   1.000000
   25       -1.200026   1.000000
   26       -0.844516   1.000000
   27       -0.425828   1.000000
   28       -0.119175   1.000000
   29        0.938909   1.000000
   30        1.401032   1.000000
   31        2.080347   1.000000
   32        2.558072   1.000000
   33        3.012727   1.000000
   34        3.739583   0.004835
   35        3.961233   0.000000
   36        4.113337   0.000000
   37        4.593514   0.000000
   38        4.868544   0.000000
   39        5.156055   0.000000
   40        5.745447   0.000000
   41        6.029861   0.000000
   42        6.413757   0.000000
   43        6.813971   0.000000
   44        7.107323   0.000000
 
 -0.1111111E+00  0.1250000E+00  0.3816392E-15  0.4629630E-02
    1      -31.160570   1.000000
    2      -28.313731   1.000000
    3      -28.210558   1.000000
    4      -28.168575   1.000000
    5      -28.011996   1.000000
    6      -27.960461   1.000000
    7      -27.916605   1.000000
    8      -27.886746   1.000000
    9      -27.826593   1.000000
   10      -27.802440   1.000000
   11      -27.723038   1.000000
   12      -27.564229   1.000000
   13      -27.491153   1.000000
   14      -13.387152   1.000000
   15      -13.368494   1.000000
   16      -13.304738   1.000000
   17       -5.871725   1.000000
   18       -3.215814   1.000000
   19       -2.874964   1.000000
   20       -2.618525   1.000000
   21       -2.373227   1.000000
   22       -2.252037   1.000000
   23       -1.909364   1.000000
   24       -1.378069   1.000000
   25       -0.999899   1.000000
   26       -0.866201   1.000000
   27       -0.380851   1.000000
   28       -0.162136   1.000000
   29        0.925081   1.000000
   30        1.513220   1.000000
   31        2.035929   1.000000
   32        2.610956   1.000000
   33        3.106864   1.000000
   34        3.653706  -0.035724
   35        3.893557   0.000010
   36        4.160867   0.000000
   37        4.494408   0.000000
   38        4.813158   0.000000
   39        5.188432   0.000000
   40        5.831479   0.000000
   41        5.880299   0.000000
   42        6.288809   0.000000
   43        6.876919   0.000000
   44        7.254859   0.000000
 
  0.3764350E-15  0.2500000E+00  0.3677614E-15  0.4629630E-02
    1      -31.161138   1.000000
    2      -28.281107   1.000000
    3      -28.211787   1.000000
    4      -28.138218   1.000000
    5      -28.029448   1.000000
    6      -27.969497   1.000000
    7      -27.934977   1.000000
    8      -27.877838   1.000000
    9      -27.844640   1.000000
   10      -27.818213   1.000000
   11      -27.715874   1.000000
   12      -27.571112   1.000000
   13      -27.483075   1.000000
   14      -13.411962   1.000000
   15      -13.367578   1.000000
   16      -13.294184   1.000000
   17       -5.658254   1.000000
   18       -3.280061   1.000000
   19       -2.877713   1.000000
   20       -2.540693   1.000000
   21       -2.452783   1.000000
   22       -2.227122   1.000000
   23       -1.875583   1.000000
   24       -1.477289   1.000000
   25       -1.249316   1.000000
   26       -1.030123   1.000000
   27       -0.293642   1.000000
   28       -0.163916   1.000000
   29        0.916128   1.000000
   30        1.600225   1.000000
   31        2.180750   1.000000
   32        2.581330   1.000000
   33        3.238224   0.999595
   34        3.484127   0.923510
   35        3.831525   0.000298
   36        4.281768   0.000000
   37        4.652697   0.000000
   38        4.839544   0.000000
   39        5.088975   0.000000
   40        5.764100   0.000000
   41        6.005318   0.000000
   42        6.048058   0.000000
   43        6.771453   0.000000
   44        7.201496   0.000000
 
  0.1111111E+00  0.2500000E+00  0.3747003E-15  0.4629630E-02
    1      -31.161032   1.000000
    2      -28.282751   1.000000
    3      -28.214484   1.000000
    4      -28.153207   1.000000
    5      -28.011162   1.000000
    6      -27.969662   1.000000
    7      -27.933205   1.000000
    8      -27.879960   1.000000
    9      -27.849605   1.000000
   10      -27.808852   1.000000
   11      -27.712112   1.000000
   12      -27.570585   1.000000
   13      -27.491831   1.000000
   14      -13.413484   1.000000
   15      -13.367479   1.000000
   16      -13.304662   1.000000
   17       -5.515298   1.000000
   18       -3.312554   1.000000
   19       -2.994910   1.000000
   20       -2.530329   1.000000
   21       -2.386061   1.000000
   22       -2.165996   1.000000
   23       -1.721185   1.000000
   24       -1.541715   1.000000
   25       -1.323712   1.000000
   26       -1.089106   1.000000
   27       -0.395883   1.000000
   28       -0.206976   1.000000
   29        0.937167   1.000000
   30        1.680362   1.000000
   31        2.211781   1.000000
   32        2.728354   1.000000
   33        2.970981   1.000000
   34        3.410845   1.037148
   35        3.891055   0.000012
   36        4.405798   0.000000
   37        4.660972   0.000000
   38        4.826182   0.000000
   39        5.171392   0.000000
   40        5.659452   0.000000
   41        5.977108   0.000000
   42        6.225931   0.000000
   43        6.823592   0.000000
   44        7.208973   0.000000
 
  0.2222222E+00  0.2500000E+00  0.3330669E-15  0.4629630E-02
    1      -31.160394   1.000000
    2      -28.309990   1.000000
    3      -28.200340   1.000000
    4      -28.170446   1.000000
    5      -27.988337   1.000000
    6      -27.981954   1.000000
    7      -27.933786   1.000000
    8      -27.893302   1.000000
    9      -27.840914   1.000000
   10      -27.792457   1.000000
   11      -27.690248   1.000000
   12      -27.570857   1.000000
   13      -27.509405   1.000000
   14      -13.411931   1.000000
   15      -13.369324   1.000000
   16      -13.328534   1.000000
   17       -5.170479   1.000000
   18       -3.412003   1.000000
   19       -3.072430   1.000000
   20       -2.641245   1.000000
   21       -2.333179   1.000000
   22       -2.125400   1.000000
   23       -1.825681   1.000000
   24       -1.552500   1.000000
   25       -1.224070   1.000000
   26       -1.029971   1.000000
   27       -0.486518   1.000000
   28       -0.154035   1.000000
   29        0.835019   1.000000
   30        1.818738   1.000000
   31        2.200781   1.000000
   32        2.740836   1.000000
   33        2.937626   1.000000
   34        3.369443   1.003485
   35        3.929994   0.000001
   36        4.433428   0.000000
   37        4.601232   0.000000
   38        4.700241   0.000000
   39        5.153318   0.000000
   40        5.643965   0.000000
   41        6.079722   0.000000
   42        6.390263   0.000000
   43        6.853888   0.000000
   44        7.130170   0.000000
 
  0.3333333E+00  0.2500000E+00  0.3608225E-15  0.4629630E-02
    1      -31.159516   1.000000
    2      -28.327122   1.000000
    3      -28.213432   1.000000
    4      -28.151006   1.000000
    5      -28.003519   1.000000
    6      -27.987985   1.000000
    7      -27.937290   1.000000
    8      -27.901146   1.000000
    9      -27.827923   1.000000
   10      -27.800333   1.000000
   11      -27.643718   1.000000
   12      -27.569911   1.000000
   13      -27.524315   1.000000
   14      -13.410468   1.000000
   15      -13.378214   1.000000
   16      -13.345885   1.000000
   17       -4.676145   1.000000
   18       -3.538557   1.000000
   19       -3.170401   1.000000
   20       -2.818459   1.000000
   21       -2.475147   1.000000
   22       -2.182561   1.000000
   23       -1.906553   1.000000
   24       -1.467602   1.000000
   25       -1.043277   1.000000
   26       -0.915192   1.000000
   27       -0.443475   1.000000
   28       -0.062343   1.000000
   29        0.696327   1.000000
   30        1.947995   1.000000
   31        2.238287   1.000000
   32        2.672627   1.000000
   33        2.940325   1.000000
   34        3.270264   0.998559
   35        3.936151   0.000001
   36        4.176480   0.000000
   37        4.599546   0.000000
   38        4.816657   0.000000
   39        5.111773   0.000000
   40        5.720269   0.000000
   41        6.010392   0.000000
   42        6.397969   0.000000
   43        6.826125   0.000000
   44        6.964649   0.000000
 
  0.4444444E+00  0.2500000E+00  0.4163336E-15  0.4629630E-02
    1      -31.158809   1.000000
    2      -28.336568   1.000000
    3      -28.217127   1.000000
    4      -28.132178   1.000000
    5      -28.029833   1.000000
    6      -28.000410   1.000000
    7      -27.928747   1.000000
    8      -27.911413   1.000000
    9      -27.815363   1.000000
   10      -27.809347   1.000000
   11      -27.611166   1.000000
   12      -27.563956   1.000000
   13      -27.534559   1.000000
   14      -13.412435   1.000000
   15      -13.386138   1.000000
   16      -13.349520   1.000000
   17       -4.144405   1.000000
   18       -3.700463   1.000000
   19       -3.435579   1.000000
   20       -2.873236   1.000000
   21       -2.663125   1.000000
   22       -2.269539   1.000000
   23       -1.816134   1.000000
   24       -1.407559   1.000000
   25       -0.998183   1.000000
   26       -0.748468   1.000000
   27       -0.358359   1.000000
   28       -0.007175   1.000000
   29        0.696338   1.000000
   30        2.067449   1.000000
   31        2.293575   1.000000
   32        2.403094   1.000000
   33        2.807033   1.000000
   34        3.335618   0.995191
   35        3.762542   0.003422
   36        4.334240   0.000000
   37        4.491855   0.000000
   38        4.892569   0.000000
   39        5.144758   0.000000
   40        5.707942   0.000000
   41        5.849069   0.000000
   42        6.380552   0.000000
   43        6.705119   0.000000
   44        6.944816   0.000000
 
 -0.4444444E+00  0.2500000E+00  0.3885781E-15  0.4629630E-02
    1      -31.158603   1.000000
    2      -28.343212   1.000000
    3      -28.218254   1.000000
    4      -28.130525   1.000000
    5      -28.025189   1.000000
    6      -28.006620   1.000000
    7      -27.927625   1.000000
    8      -27.912126   1.000000
    9      -27.811577   1.000000
   10      -27.804421   1.000000
   11      -27.611503   1.000000
   12      -27.564770   1.000000
   13      -27.534549   1.000000
   14      -13.407935   1.000000
   15      -13.387451   1.000000
   16      -13.349479   1.000000
   17       -4.273908   1.000000
   18       -3.638793   1.000000
   19       -3.437008   1.000000
   20       -2.875289   1.000000
   21       -2.611658   1.000000
   22       -2.291157   1.000000
   23       -1.740802   1.000000
   24       -1.469864   1.000000
   25       -1.049773   1.000000
   26       -0.705565   1.000000
   27       -0.314276   1.000000
   28        0.069058   1.000000
   29        0.803653   1.000000