Automatically generated mesh
     184
Reciprocal lattice
    0.00000000000000    0.00000000000000    0.00000000000000             1
    0.10000000000000    0.00000000000000    0.00000000000000             2
    0.20000000000000    0.00000000000000    0.00000000000000             2
    0.30000000000000    0.00000000000000    0.00000000000000             2
    0.40000000000000    0.00000000000000    0.00000000000000             2
    0.50000000000000    0.00000000000000    0.00000000000000             1
    0.00000000000000    0.16666666666667    0.00000000000000             2
    0.10000000000000    0.16666666666667    0.00000000000000             2
    0.20000000000000    0.16666666666667    0.00000000000000             2
    0.30000000000000    0.16666666666667    0.00000000000000             2
    0.40000000000000    0.16666666666667    0.00000000000000             2
    0.50000000000000    0.16666666666667    0.00000000000000             2
   -0.40000000000000    0.16666666666667    0.00000000000000             2
   -0.30000000000000    0.16666666666667    0.00000000000000             2
   -0.20000000000000    0.16666666666667    0.00000000000000             2
   -0.10000000000000    0.16666666666667    0.00000000000000             2
    0.00000000000000    0.33333333333333    0.00000000000000             2
    0.10000000000000    0.33333333333333    0.00000000000000             2
    0.20000000000000    0.33333333333333    0.00000000000000             2
    0.30000000000000    0.33333333333333    0.00000000000000             2
    0.40000000000000    0.33333333333333    0.00000000000000             2
    0.50000000000000    0.33333333333333    0.00000000000000             2
   -0.40000000000000    0.33333333333333    0.00000000000000             2
   -0.30000000000000    0.33333333333333    0.00000000000000             2
   -0.20000000000000    0.33333333333333    0.00000000000000             2
   -0.10000000000000    0.33333333333333    0.00000000000000             2
    0.00000000000000    0.50000000000000    0.00000000000000             1
    0.10000000000000    0.50000000000000    0.00000000000000             2
    0.20000000000000    0.50000000000000    0.00000000000000             2
    0.30000000000000    0.50000000000000    0.00000000000000             2
    0.40000000000000    0.50000000000000    0.00000000000000             2
    0.50000000000000    0.50000000000000    0.00000000000000             1
    0.00000000000000    0.00000000000000    0.16666666666667             2
    0.10000000000000    0.00000000000000    0.16666666666667             2
    0.20000000000000    0.00000000000000    0.16666666666667             2
    0.30000000000000    0.00000000000000    0.16666666666667             2
    0.40000000000000    0.00000000000000    0.16666666666667             2
    0.50000000000000    0.00000000000000    0.16666666666667             2
   -0.40000000000000    0.00000000000000    0.16666666666667             2
   -0.30000000000000    0.00000000000000    0.16666666666667             2
   -0.20000000000000    0.00000000000000    0.16666666666667             2
   -0.10000000000000    0.00000000000000    0.16666666666667             2
    0.00000000000000    0.16666666666667    0.16666666666667             2
    0.10000000000000    0.16666666666667    0.16666666666667             2
    0.20000000000000    0.16666666666667    0.16666666666667             2
    0.30000000000000    0.16666666666667    0.16666666666667             2
    0.40000000000000    0.16666666666667    0.16666666666667             2
    0.50000000000000    0.16666666666667    0.16666666666667             2
   -0.40000000000000    0.16666666666667    0.16666666666667             2
   -0.30000000000000    0.16666666666667    0.16666666666667             2
   -0.20000000000000    0.16666666666667    0.16666666666667             2
   -0.10000000000000    0.16666666666667    0.16666666666667             2
    0.00000000000000    0.33333333333333    0.16666666666667             2
    0.10000000000000    0.33333333333333    0.16666666666667             2
    0.20000000000000    0.33333333333333    0.16666666666667             2
    0.30000000000000    0.33333333333333    0.16666666666667             2
    0.40000000000000    0.33333333333333    0.16666666666667             2
    0.50000000000000    0.33333333333333    0.16666666666667             2
   -0.40000000000000    0.33333333333333    0.16666666666667             2
   -0.30000000000000    0.33333333333333    0.16666666666667             2
   -0.20000000000000    0.33333333333333    0.16666666666667             2
   -0.10000000000000    0.33333333333333    0.16666666666667             2
    0.00000000000000    0.50000000000000    0.16666666666667             2
    0.10000000000000    0.50000000000000    0.16666666666667             2
    0.20000000000000    0.50000000000000    0.16666666666667             2
    0.30000000000000    0.50000000000000    0.16666666666667             2
    0.40000000000000    0.50000000000000    0.16666666666667             2
    0.50000000000000    0.50000000000000    0.16666666666667             2
   -0.40000000000000    0.50000000000000    0.16666666666667             2
   -0.30000000000000    0.50000000000000    0.16666666666667             2
   -0.20000000000000    0.50000000000000    0.16666666666667             2
   -0.10000000000000    0.50000000000000    0.16666666666667             2
    0.00000000000000   -0.33333333333333    0.16666666666667             2
    0.10000000000000   -0.33333333333333    0.16666666666667             2
    0.20000000000000   -0.33333333333333    0.16666666666667             2
    0.30000000000000   -0.33333333333333    0.16666666666667             2
    0.40000000000000   -0.33333333333333    0.16666666666667             2
    0.50000000000000   -0.33333333333333    0.16666666666667             2
   -0.40000000000000   -0.33333333333333    0.16666666666667             2
   -0.30000000000000   -0.33333333333333    0.16666666666667             2
   -0.20000000000000   -0.33333333333333    0.16666666666667             2
   -0.10000000000000   -0.33333333333333    0.16666666666667             2
    0.00000000000000   -0.16666666666667    0.16666666666667             2
    0.10000000000000   -0.16666666666667    0.16666666666667             2
    0.20000000000000   -0.16666666666667    0.16666666666667             2
    0.30000000000000   -0.16666666666667    0.16666666666667             2
    0.40000000000000   -0.16666666666667    0.16666666666667             2
    0.50000000000000   -0.16666666666667    0.16666666666667             2
   -0.40000000000000   -0.16666666666667    0.16666666666667             2
   -0.30000000000000   -0.16666666666667    0.16666666666667             2
   -0.20000000000000   -0.16666666666667    0.16666666666667             2
   -0.10000000000000   -0.16666666666667    0.16666666666667             2
    0.00000000000000    0.00000000000000    0.33333333333333             2
    0.10000000000000    0.00000000000000    0.33333333333333             2
    0.20000000000000    0.00000000000000    0.33333333333333             2
    0.30000000000000    0.00000000000000    0.33333333333333             2
    0.40000000000000    0.00000000000000    0.33333333333333             2
    0.50000000000000    0.00000000000000    0.33333333333333             2
   -0.40000000000000    0.00000000000000    0.33333333333333             2
   -0.30000000000000    0.00000000000000    0.33333333333333             2
   -0.20000000000000    0.00000000000000    0.33333333333333             2
   -0.10000000000000    0.00000000000000    0.33333333333333             2
    0.00000000000000    0.16666666666667    0.33333333333333             2
    0.10000000000000    0.16666666666667    0.33333333333333             2
    0.20000000000000    0.16666666666667    0.33333333333333             2
    0.30000000000000    0.16666666666667    0.33333333333333             2
    0.40000000000000    0.16666666666667    0.33333333333333             2
    0.50000000000000    0.16666666666667    0.33333333333333             2
   -0.40000000000000    0.16666666666667    0.33333333333333             2
   -0.30000000000000    0.16666666666667    0.33333333333333             2
   -0.20000000000000    0.16666666666667    0.33333333333333             2
   -0.10000000000000    0.16666666666667    0.33333333333333             2
    0.00000000000000    0.33333333333333    0.33333333333333             2
    0.10000000000000    0.33333333333333    0.33333333333333             2
    0.20000000000000    0.33333333333333    0.33333333333333             2
    0.30000000000000    0.33333333333333    0.33333333333333             2
    0.40000000000000    0.33333333333333    0.33333333333333             2
    0.50000000000000    0.33333333333333    0.33333333333333             2
   -0.40000000000000    0.33333333333333    0.33333333333333             2
   -0.30000000000000    0.33333333333333    0.33333333333333             2
   -0.20000000000000    0.33333333333333    0.33333333333333             2
   -0.10000000000000    0.33333333333333    0.33333333333333             2
    0.00000000000000    0.50000000000000    0.33333333333333             2
    0.10000000000000    0.50000000000000    0.33333333333333             2
    0.20000000000000    0.50000000000000    0.33333333333333             2
    0.30000000000000    0.50000000000000    0.33333333333333             2
    0.40000000000000    0.50000000000000    0.33333333333333             2
    0.50000000000000    0.50000000000000    0.33333333333333             2
   -0.40000000000000    0.50000000000000    0.33333333333333             2
   -0.30000000000000    0.50000000000000    0.33333333333333             2
   -0.20000000000000    0.50000000000000    0.33333333333333             2
   -0.10000000000000    0.50000000000000    0.33333333333333             2
    0.00000000000000   -0.33333333333333    0.33333333333333             2
    0.10000000000000   -0.33333333333333    0.33333333333333             2
    0.20000000000000   -0.33333333333333    0.33333333333333             2
    0.30000000000000   -0.33333333333333    0.33333333333333             2
    0.40000000000000   -0.33333333333333    0.33333333333333             2
    0.50000000000000   -0.33333333333333    0.33333333333333             2
   -0.40000000000000   -0.33333333333333    0.33333333333333             2
   -0.30000000000000   -0.33333333333333    0.33333333333333             2
   -0.20000000000000   -0.33333333333333    0.33333333333333             2
   -0.10000000000000   -0.33333333333333    0.33333333333333             2
    0.00000000000000   -0.16666666666667    0.33333333333333             2
    0.10000000000000   -0.16666666666667    0.33333333333333             2
    0.20000000000000   -0.16666666666667    0.33333333333333             2
    0.30000000000000   -0.16666666666667    0.33333333333333             2
    0.40000000000000   -0.16666666666667    0.33333333333333             2
    0.50000000000000   -0.16666666666667    0.33333333333333             2
   -0.40000000000000   -0.16666666666667    0.33333333333333             2
   -0.30000000000000   -0.16666666666667    0.33333333333333             2
   -0.20000000000000   -0.16666666666667    0.33333333333333             2
   -0.10000000000000   -0.16666666666667    0.33333333333333             2
    0.00000000000000    0.00000000000000    0.50000000000000             1
    0.10000000000000    0.00000000000000    0.50000000000000             2
    0.20000000000000    0.00000000000000    0.50000000000000             2
    0.30000000000000    0.00000000000000    0.50000000000000             2
    0.40000000000000    0.00000000000000    0.50000000000000             2
    0.50000000000000    0.00000000000000    0.50000000000000             1
    0.00000000000000    0.16666666666667    0.50000000000000             2
    0.10000000000000    0.16666666666667    0.50000000000000             2
    0.20000000000000    0.16666666666667    0.50000000000000             2
    0.30000000000000    0.16666666666667    0.50000000000000             2
    0.40000000000000    0.16666666666667    0.50000000000000             2
    0.50000000000000    0.16666666666667    0.50000000000000             2
   -0.40000000000000    0.16666666666667    0.50000000000000             2
   -0.30000000000000    0.16666666666667    0.50000000000000             2
   -0.20000000000000    0.16666666666667    0.50000000000000             2
   -0.10000000000000    0.16666666666667    0.50000000000000             2
    0.00000000000000    0.33333333333333    0.50000000000000             2
    0.10000000000000    0.33333333333333    0.50000000000000             2
    0.20000000000000    0.33333333333333    0.50000000000000             2
    0.30000000000000    0.33333333333333    0.50000000000000             2
    0.40000000000000    0.33333333333333    0.50000000000000             2
    0.50000000000000    0.33333333333333    0.50000000000000             2
   -0.40000000000000    0.33333333333333    0.50000000000000             2
   -0.30000000000000    0.33333333333333    0.50000000000000             2
   -0.20000000000000    0.33333333333333    0.50000000000000             2
   -0.10000000000000    0.33333333333333    0.50000000000000             2
    0.00000000000000    0.50000000000000    0.50000000000000             1
    0.10000000000000    0.50000000000000    0.50000000000000             2
    0.20000000000000    0.50000000000000    0.50000000000000             2
    0.30000000000000    0.50000000000000    0.50000000000000             2
    0.40000000000000    0.50000000000000    0.50000000000000             2
    0.50000000000000    0.50000000000000    0.50000000000000             1
