       N       E                     dE             d eps       ncg     rms          rms(c)
DAV:   1    -0.213282752016E+02   -0.21328E+02   -0.59330E+03 11712   0.429E+02
DAV:   2    -0.748778206012E+02   -0.53550E+02   -0.52384E+02 14584   0.107E+02
DAV:   3    -0.770335683134E+02   -0.21557E+01   -0.21458E+01 14912   0.216E+01
DAV:   4    -0.770396351220E+02   -0.60668E-02   -0.60664E-02 13392   0.136E+00
DAV:   5    -0.770396682418E+02   -0.33120E-04   -0.33120E-04 15296   0.864E-02    0.137E+01
DAV:   6    -0.745487901661E+02    0.24909E+01   -0.76154E-01 13472   0.389E+00    0.784E+00
DAV:   7    -0.733325118105E+02    0.12163E+01   -0.19551E+00 14752   0.651E+00    0.731E-01
DAV:   8    -0.733622010616E+02   -0.29689E-01   -0.89511E-02 13192   0.151E+00    0.423E-01
DAV:   9    -0.733587955992E+02    0.34055E-02   -0.71761E-03 15336   0.447E-01    0.657E-02
DAV:  10    -0.733588725845E+02   -0.76985E-04   -0.35663E-04 13656   0.101E-01
   1 F= -.73358873E+02 E0= -.73358532E+02  d E =-.733589E+02
       N       E                     dE             d eps       ncg     rms          rms(c)
DAV:   1    -0.733596737682E+02   -0.87817E-03   -0.28641E-02 14160   0.944E-01    0.696E-02
DAV:   2    -0.733597576708E+02   -0.83903E-04   -0.13326E-03 14096   0.197E-01    0.564E-02
DAV:   3    -0.733597150050E+02    0.42666E-04   -0.60461E-05 12336   0.786E-02
   2 F= -.73359715E+02 E0= -.73359377E+02  d E =-.842421E-03
       N       E                     dE             d eps       ncg     rms          rms(c)
DAV:   1    -0.733597953199E+02   -0.37649E-04   -0.13974E-03 13256   0.198E-01    0.176E-02
DAV:   2    -0.733597947598E+02    0.56005E-06   -0.50397E-05  5992   0.405E-02
   3 F= -.73359795E+02 E0= -.73359456E+02  d E =-.922175E-03
