       N       E                     dE             d eps       ncg     rms          rms(c)
DAV:   1     0.208901329512E+03    0.20890E+03   -0.18041E+04  5504   0.107E+03
DAV:   2    -0.238587890644E+02   -0.23276E+03   -0.22656E+03  6544   0.295E+02
DAV:   3    -0.385158533995E+02   -0.14657E+02   -0.14585E+02 10928   0.600E+01
DAV:   4    -0.387661262814E+02   -0.25027E+00   -0.25020E+00  5728   0.706E+00
DAV:   5    -0.387774564026E+02   -0.11330E-01   -0.11322E-01  9584   0.118E+00    0.338E+01
RMM:   6    -0.390417883403E+02   -0.26433E+00   -0.55835E+00  6070   0.901E+00    0.175E+01
RMM:   7    -0.383235331886E+02    0.71826E+00   -0.20595E+00  6574   0.683E+00    0.833E+00
RMM:   8    -0.383564312176E+02   -0.32898E-01   -0.44912E-01  6327   0.387E+00    0.353E+00
RMM:   9    -0.383712723934E+02   -0.14841E-01   -0.66854E-02  6573   0.167E+00    0.174E+00
RMM:  10    -0.383721025844E+02   -0.83019E-03   -0.18893E-02  6199   0.769E-01    0.601E-01
RMM:  11    -0.383733864583E+02   -0.12839E-02   -0.64535E-03  5523   0.534E-01    0.162E-01
RMM:  12    -0.383738795490E+02   -0.49309E-03   -0.13946E-03  4743   0.235E-01
   1 F= -.38373880E+02 E0= -.38373880E+02  d E =-.383739E+02  mag=     1.0617
       N       E                     dE             d eps       ncg     rms          rms(c)
DAV:   1    -0.386310383544E+02   -0.25765E+00   -0.47228E+00  8256   0.127E+01    0.420E+00
RMM:   2    -0.384666573868E+02    0.16438E+00   -0.61930E-01  6317   0.444E+00    0.138E+00
RMM:   3    -0.384261713384E+02    0.40486E-01   -0.66253E-02  6250   0.216E+00    0.109E+00
RMM:   4    -0.384175743520E+02    0.85970E-02   -0.30225E-02  6190   0.103E+00    0.112E+00
RMM:   5    -0.384178663353E+02   -0.29198E-03   -0.89969E-03  6073   0.931E-01    0.743E-01
RMM:   6    -0.384182839604E+02   -0.41763E-03   -0.88345E-03  6424   0.375E-01    0.122E-01
RMM:   7    -0.384184340594E+02   -0.15010E-03   -0.31302E-03  5199   0.307E-01
   2 F= -.38418434E+02 E0= -.38418434E+02  d E =-.445545E-01  mag=     1.1330
       N       E                     dE             d eps       ncg     rms          rms(c)
DAV:   1    -0.387177977205E+02   -0.29951E+00   -0.66087E+00  5872   0.151E+01    0.481E+00
RMM:   2    -0.384894876781E+02    0.22831E+00   -0.84957E-01  6328   0.517E+00    0.157E+00
RMM:   3    -0.384349826230E+02    0.54505E-01   -0.90622E-02  6203   0.251E+00    0.126E+00
RMM:   4    -0.384235430543E+02    0.11440E-01   -0.37765E-02  6230   0.117E+00    0.138E+00
RMM:   5    -0.384238245241E+02   -0.28147E-03   -0.97057E-03  6343   0.102E+00    0.951E-01
RMM:   6    -0.384240197802E+02   -0.19526E-03   -0.12769E-02  6742   0.448E-01    0.207E-01
RMM:   7    -0.384241431205E+02   -0.12334E-03   -0.44987E-03  6209   0.382E-01
   3 F= -.38424143E+02 E0= -.38424143E+02  d E =-.502636E-01  mag=     1.2315
       N       E                     dE             d eps       ncg     rms          rms(c)
DAV:   1    -0.384622309584E+02   -0.38211E-01   -0.13469E+00  6576   0.721E+00    0.129E+00
RMM:   2    -0.384390477012E+02    0.23183E-01   -0.10106E-01  5954   0.174E+00    0.599E-01
RMM:   3    -0.384342099222E+02    0.48378E-02   -0.11305E-02  6062   0.892E-01    0.400E-01
RMM:   4    -0.384332632374E+02    0.94668E-03   -0.70741E-03  5952   0.438E-01    0.352E-01
RMM:   5    -0.384333807222E+02   -0.11748E-03   -0.17370E-03  4885   0.439E-01
   4 F= -.38433381E+02 E0= -.38433381E+02  d E =-.923760E-02  mag=     1.3142
       N       E                     dE             d eps       ncg     rms          rms(c)
DAV:   1    -0.384437579630E+02   -0.10495E-01   -0.44916E-01  8784   0.416E+00    0.762E-01
RMM:   2    -0.384350814642E+02    0.86765E-02   -0.33833E-02  5985   0.956E-01    0.359E-01
RMM:   3    -0.384329706104E+02    0.21109E-02   -0.35107E-03  5401   0.500E-01    0.239E-01
RMM:   4    -0.384324334571E+02    0.53715E-03   -0.35912E-03  5542   0.312E-01    0.227E-01
RMM:   5    -0.384325536031E+02   -0.12015E-03   -0.74555E-04  3970   0.305E-01
   5 F= -.38432554E+02 E0= -.38432554E+02  d E =-.841048E-02  mag=     1.4273
       N       E                     dE             d eps       ncg     rms          rms(c)
DAV:   1    -0.384439910878E+02   -0.11558E-01   -0.44874E-01  6080   0.369E+00    0.547E-01
RMM:   2    -0.384410674411E+02    0.29236E-02   -0.14386E-02  5894   0.661E-01    0.279E-01
RMM:   3    -0.384401732487E+02    0.89419E-03   -0.21448E-03  4814   0.595E-01    0.209E-01
RMM:   4    -0.384400773607E+02    0.95888E-04   -0.15085E-03  4478   0.240E-01
   6 F= -.38440077E+02 E0= -.38440077E+02  d E =-.752376E-02  mag=     1.5411
       N       E                     dE             d eps       ncg     rms          rms(c)
DAV:   1    -0.384406016695E+02   -0.42842E-03   -0.31281E-02  8256   0.102E+00    0.185E-01
RMM:   2    -0.384403114936E+02    0.29018E-03   -0.10607E-03  3694   0.184E-01
   7 F= -.38440311E+02 E0= -.38440311E+02  d E =-.775789E-02  mag=     1.5799
       N       E                     dE             d eps       ncg     rms          rms(c)
DAV:   1    -0.384443722590E+02   -0.37706E-02   -0.16478E-01  6960   0.286E+00    0.386E-01
RMM:   2    -0.384433513571E+02    0.10209E-02   -0.93871E-03  5953   0.521E-01    0.199E-01
RMM:   3    -0.384427107851E+02    0.64057E-03   -0.78794E-04  3806   0.313E-01    0.110E-01
RMM:   4    -0.384426121733E+02    0.98612E-04   -0.52484E-04  3635   0.183E-01
   8 F= -.38442612E+02 E0= -.38442612E+02  d E =-.230068E-02  mag=     1.6267
       N       E                     dE             d eps       ncg     rms          rms(c)
DAV:   1    -0.384477735168E+02   -0.50627E-02   -0.61729E-01  6880   0.556E+00    0.658E-01
RMM:   2    -0.384450943369E+02    0.26792E-02   -0.36128E-02  6273   0.101E+00    0.286E-01
RMM:   3    -0.384436372970E+02    0.14570E-02   -0.28445E-03  5270   0.491E-01    0.179E-01
RMM:   4    -0.384433698137E+02    0.26748E-03   -0.19908E-03  4899   0.286E-01
   9 F= -.38443370E+02 E0= -.38443370E+02  d E =-.305832E-02  mag=     1.6559
