    9    9   99    2
  0.8082160E+01  0.3619854E-09  0.5402587E-09  0.5134525E-09  0.5000000E-15
  1.000000000000000E-004
  CAR 
 unknown system                          
     28     88     32
 
  0.3742002E-15  0.3742002E-15  0.1262379E-14  0.5714286E-02
    1      -32.839864    -32.839863   1.000000   1.000000
    2      -28.349917    -28.349917   1.000000   1.000000
    3      -28.347004    -28.347004   1.000000   1.000000
    4      -28.272634    -28.272634   1.000000   1.000000
    5      -14.868268    -14.868268   1.000000   1.000000
    6      -14.757084    -14.757084   1.000000   1.000000
    7      -14.730136    -14.730136   1.000000   1.000000
    8       -6.233748     -6.233748   1.000000   1.000000
    9       -2.656363     -2.656363   1.000000   1.000000
   10       -2.063508     -2.063508   1.000000   1.000000
   11       -1.433232     -1.433232   1.000000   1.000000
   12        0.278162      0.278162   1.000000   1.000000
   13        1.188853      1.188853   1.000000   1.000000
   14        2.006518      2.006518   1.000000   1.000000
   15        4.020936      4.020936   0.000000   0.000000
   16        4.848836      4.848836   0.000000   0.000000
   17        5.467580      5.467580   0.000000   0.000000
   18        5.904515      5.904515   0.000000   0.000000
   19        6.601013      6.601013   0.000000   0.000000
   20        7.576758      7.576759   0.000000   0.000000
   21        8.069802      8.069802   0.000000   0.000000
   22        8.303007      8.303007   0.000000   0.000000
   23        8.770861      8.770861   0.000000   0.000000
   24        8.974551      8.974551   0.000000   0.000000
   25        9.447908      9.447909   0.000000   0.000000
   26       11.451486     11.451486   0.000000   0.000000
   27       11.847574     11.847574   0.000000   0.000000
   28       13.734654     13.734654   0.000000   0.000000
   29       14.109391     14.109391   0.000000   0.000000
   30       15.742413     15.742413   0.000000   0.000000
   31       17.505281     17.505281   0.000000   0.000000
   32       18.166773     18.166763   0.000000   0.000000
 
  0.1428571E+00  0.3746204E-15  0.1266187E-14  0.1142857E-01
    1      -32.830617    -32.830617   1.000000   1.000000
    2      -28.363397    -28.363397   1.000000   1.000000
    3      -28.360067    -28.360067   1.000000   1.000000
    4      -28.269429    -28.269429   1.000000   1.000000
    5      -14.849527    -14.849527   1.000000   1.000000
    6      -14.825329    -14.825329   1.000000   1.000000
    7      -14.802019    -14.802019   1.000000   1.000000
    8       -5.749671     -5.749671   1.000000   1.000000
    9       -2.500299     -2.500299   1.000000   1.000000
   10       -1.987821     -1.987821   1.000000   1.000000
   11       -1.572519     -1.572519   1.000000   1.000000
   12       -0.030310     -0.030310   1.000000   1.000000
   13        1.051850      1.051850   1.000000   1.000000
   14        1.309549      1.309549   1.000000   1.000000
   15        4.120612      4.120612   0.000000   0.000000
   16        5.135035      5.135035   0.000000   0.000000
   17        5.409861      5.409861   0.000000   0.000000
   18        5.856538      5.856538   0.000000   0.000000
   19        6.613350      6.613350   0.000000   0.000000
   20        7.352874      7.352874   0.000000   0.000000
   21        7.973864      7.973864   0.000000   0.000000
   22        8.317382      8.317382   0.000000   0.000000
   23        8.701653      8.701653   0.000000   0.000000
   24        9.288980      9.288980   0.000000   0.000000
   25       10.174348     10.174348   0.000000   0.000000
   26       12.181922     12.181922   0.000000   0.000000
   27       12.665931     12.665932   0.000000   0.000000
   28       13.670332     13.670332   0.000000   0.000000
   29       14.639741     14.639741   0.000000   0.000000
   30       15.106255     15.106255   0.000000   0.000000
   31       16.248385     16.248385   0.000000   0.000000
   32       16.949046     16.949046   0.000000   0.000000
 
  0.2857143E+00  0.3788307E-15  0.3902317E-15  0.1142857E-01
    1      -32.809864    -32.809864   1.000000   1.000000
    2      -28.395392    -28.395392   1.000000   1.000000
    3      -28.387226    -28.387226   1.000000   1.000000
    4      -28.262044    -28.262044   1.000000   1.000000
    5      -14.976127    -14.976127   1.000000   1.000000
    6      -14.942856    -14.942856   1.000000   1.000000
    7      -14.794096    -14.794096   1.000000   1.000000
    8       -4.512324     -4.512324   1.000000   1.000000
    9       -2.367738     -2.367738   1.000000   1.000000
   10       -1.871799     -1.871799   1.000000   1.000000
   11       -1.823543     -1.823543   1.000000   1.000000
   12       -0.799838     -0.799838   1.000000   1.000000
   13       -0.009998     -0.009998   1.000000   1.000000
   14        1.121206      1.121206   1.000000   1.000000
   15        4.353307      4.353307   0.000000   0.000000
   16        4.545992      4.545992   0.000000   0.000000
   17        5.895133      5.895133   0.000000   0.000000
   18        6.347770      6.347770   0.000000   0.000000
   19        6.892251      6.892251   0.000000   0.000000
   20        7.267187      7.267187   0.000000   0.000000
   21        7.870078      7.870078   0.000000   0.000000
   22        8.811179      8.811179   0.000000   0.000000
   23        9.689363      9.689363   0.000000   0.000000
   24        9.934312      9.934312   0.000000   0.000000
   25       10.228054     10.228054   0.000000   0.000000
   26       12.133076     12.133076   0.000000   0.000000
   27       12.468210     12.468210   0.000000   0.000000
   28       12.996156     12.996156   0.000000   0.000000
   29       13.751181     13.751181   0.000000   0.000000
   30       15.629924     15.629924   0.000000   0.000000
   31       16.170336     16.170336   0.000000   0.000000
   32       16.967517     16.967518   0.000000   0.000000
 
  0.4285714E+00  0.3883711E-15  0.1295964E-14  0.1142857E-01
    1      -32.793251    -32.793251   1.000000   1.000000
    2      -28.421003    -28.421003   1.000000   1.000000
    3      -28.408412    -28.408412   1.000000   1.000000
    4      -28.256122    -28.256122   1.000000   1.000000
    5      -15.075414    -15.075414   1.000000   1.000000
    6      -15.042824    -15.042824   1.000000   1.000000
    7      -14.751911    -14.751911   1.000000   1.000000
    8       -3.278604     -3.278604   1.000000   1.000000
    9       -2.343488     -2.343488   1.000000   1.000000
   10       -2.002074     -2.002074   1.000000   1.000000
   11       -1.705167     -1.705167   1.000000   1.000000
   12       -1.429574     -1.429574   1.000000   1.000000
   13       -1.132124     -1.132124   1.000000   1.000000
   14        1.261679      1.261679   1.000000   1.000000
   15        4.437507      4.437507   0.000000   0.000000
   16        4.600923      4.600923   0.000000   0.000000
   17        6.138879      6.138879   0.000000   0.000000
   18        6.808152      6.808152   0.000000   0.000000
   19        7.045252      7.045252   0.000000   0.000000
   20        7.670538      7.670538   0.000000   0.000000
   21        8.111664      8.111664   0.000000   0.000000
   22        8.506972      8.506972   0.000000   0.000000
   23        9.669867      9.669867   0.000000   0.000000
   24       10.140442     10.140442   0.000000   0.000000
   25       10.728814     10.728814   0.000000   0.000000
   26       11.723286     11.723287   0.000000   0.000000
   27       11.968495     11.968495   0.000000   0.000000
   28       12.311957     12.311957   0.000000   0.000000
   29       12.958980     12.958980   0.000000   0.000000
   30       16.214907     16.214907   0.000000   0.000000
   31       17.077803     17.077803   0.000000   0.000000
   32       17.755390     17.755390   0.000000   0.000000
 
  0.1262102E-14  0.2000000E+00  0.3747002E-15  0.1142857E-01
    1      -32.840000    -32.839999   1.000000   1.000000
    2      -28.349913    -28.349913   1.000000   1.000000
    3      -28.347018    -28.347018   1.000000   1.000000
    4      -28.272339    -28.272339   1.000000   1.000000
    5      -14.882864    -14.882864   1.000000   1.000000
    6      -14.757135    -14.757135   1.000000   1.000000
    7      -14.730466    -14.730466   1.000000   1.000000
    8       -5.998476     -5.998476   1.000000   1.000000
    9       -2.967037     -2.967037   1.000000   1.000000
   10       -2.007004     -2.007004   1.000000   1.000000
   11       -1.365093     -1.365093   1.000000   1.000000
   12        0.124722      0.124722   1.000000   1.000000
   13        1.077120      1.077120   1.000000   1.000000
   14        1.994722      1.994722   1.000000   1.000000
   15        3.971900      3.971900   0.000000   0.000000
   16        4.514837      4.514837   0.000000   0.000000
   17        5.568135      5.568135   0.000000   0.000000
   18        5.971250      5.971250   0.000000   0.000000
   19        6.671073      6.671073   0.000000   0.000000
   20        7.237151      7.237151   0.000000   0.000000
   21        8.404830      8.404830   0.000000   0.000000
   22        8.714184      8.714184   0.000000   0.000000
   23        9.001315      9.001315   0.000000   0.000000
   24        9.156057      9.156057   0.000000   0.000000
   25       10.134628     10.134628   0.000000   0.000000
   26       11.365529     11.365529   0.000000   0.000000
   27       11.703881     11.703881   0.000000   0.000000
   28       13.607594     13.607594   0.000000   0.000000
   29       14.119325     14.119325   0.000000   0.000000
   30       15.911472     15.911472   0.000000   0.000000
   31       16.719409     16.719409   0.000000   0.000000
   32       17.091444     17.091444   0.000000   0.000000
 
  0.1428571E+00  0.2000000E+00  0.3765420E-15  0.1142857E-01
    1      -32.830610    -32.830609   1.000000   1.000000
    2      -28.363434    -28.363434   1.000000   1.000000
    3      -28.360116    -28.360116   1.000000   1.000000
    4      -28.269534    -28.269534   1.000000   1.000000
    5      -14.859951    -14.859951   1.000000   1.000000
    6      -14.821850    -14.821850   1.000000   1.000000
    7      -14.802556    -14.802556   1.000000   1.000000
    8       -5.581022     -5.581022   1.000000   1.000000
    9       -2.709518     -2.709518   1.000000   1.000000
   10       -1.974083     -1.974083   1.000000   1.000000
   11       -1.479783     -1.479783   1.000000   1.000000
   12       -0.113724     -0.113725   1.000000   1.000000
   13        0.753593      0.753593   1.000000   1.000000
   14        1.376159      1.376159   1.000000   1.000000
   15        4.240259      4.240259   0.000000   0.000000
   16        5.096697      5.096697   0.000000   0.000000
   17        5.520417      5.520417   0.000000   0.000000
   18        5.789894      5.789894   0.000000   0.000000
   19        6.531170      6.531170   0.000000   0.000000
   20        7.320620      7.320620   0.000000   0.000000
   21        8.285469      8.285470   0.000000   0.000000
   22        8.498558      8.498558   0.000000   0.000000
   23        8.850320      8.850320   0.000000   0.000000
   24        9.348506      9.348506   0.000000   0.000000
   25       10.222539     10.222539   0.000000   0.000000
   26       12.060967     12.060967   0.000000   0.000000
   27       12.817207     12.817207   0.000000   0.000000
   28       13.317165     13.317165   0.000000   0.000000
   29       13.827874     13.827874   0.000000   0.000000
   30       15.481465     15.481465   0.000000   0.000000
   31       16.341558     16.341558   0.000000   0.000000
   32       17.141345     17.141345   0.000000   0.000000
 
  0.2857143E+00  0.2000000E+00  0.4345348E-15  0.1142857E-01
    1      -32.809764    -32.809763   1.000000   1.000000
    2      -28.395406    -28.395406   1.000000   1.000000
    3      -28.387270    -28.387270   1.000000   1.000000
    4      -28.262429    -28.262429   1.000000   1.000000
    5      -14.974993    -14.974993   1.000000   1.000000
    6      -14.943054    -14.943054   1.000000   1.000000
    7      -14.799124    -14.799124   1.000000   1.000000
    8       -4.407423     -4.407422   1.000000   1.000000
    9       -2.382712     -2.382712   1.000000   1.000000
   10       -1.888346     -1.888346   1.000000   1.000000
   11       -1.757125     -1.757125   1.000000   1.000000
   12       -0.745769     -0.745769   1.000000   1.000000
   13       -0.078442     -0.078442   1.000000   1.000000
   14        0.764655      0.764655   1.000000   1.000000
   15        4.379095      4.379095   0.000000   0.000000
   16        4.962219      4.962219   0.000000   0.000000
   17        6.002191      6.002191   0.000000   0.000000
   18        6.072641      6.072641   0.000000   0.000000
   19        6.646953      6.646953   0.000000   0.000000
   20        7.445663      7.445663   0.000000   0.000000
   21        8.059556      8.059556   0.000000   0.000000
   22        8.664627      8.664627   0.000000   0.000000
   23        9.186578      9.186578   0.000000   0.000000
   24        9.905032      9.905032   0.000000   0.000000
   25       10.360153     10.360154   0.000000   0.000000
   26       12.142500     12.142500   0.000000   0.000000
   27       12.613971     12.613971   0.000000   0.000000
   28       13.072815     13.072815   0.000000   0.000000
   29       14.020789     14.020789   0.000000   0.000000
   30       15.377332     15.377332   0.000000   0.000000
   31       16.802490     16.802490   0.000000   0.000000
   32       17.318738     17.318738   0.000000   0.000000
 
  0.4285714E+00  0.2000000E+00  0.1402027E-14  0.1142857E-01
    1      -32.793164    -32.793164   1.000000   1.000000
    2      -28.420977    -28.420977   1.000000   1.000000
    3      -28.408384    -28.408385   1.000000   1.000000
    4      -28.256517    -28.256516   1.000000   1.000000
    5      -15.076089    -15.076089   1.000000   1.000000
    6      -15.043346    -15.043346   1.000000   1.000000
    7      -14.757277    -14.757277   1.000000   1.000000
    8       -3.104780     -3.104780   1.000000   1.000000
    9       -2.272475     -2.272475   1.000000   1.000000
   10       -1.957456     -1.957456   1.000000   1.000000
   11       -1.801293     -1.801293   1.000000   1.000000
   12       -1.297837     -1.297837   1.000000   1.000000
   13       -1.108036     -1.108036   1.000000   1.000000
   14        0.642662      0.642662   1.000000   1.000000
   15        4.422511      4.422511   0.000000   0.000000
   16        4.888597      4.888597   0.000000   0.000000
   17        5.791012      5.791012   0.000000   0.000000
   18        6.594892      6.594892   0.000000   0.000000
   19        7.015765      7.015765   0.000000   0.000000
   20        7.784630      7.784630   0.000000   0.000000
   21        8.300569      8.300569   0.000000   0.000000
   22        8.823864      8.823864   0.000000   0.000000
   23        9.386965      9.386965   0.000000   0.000000
   24       10.035807     10.035807   0.000000   0.000000
   25       10.916781     10.916781   0.000000   0.000000
   26       11.691692     11.691693   0.000000   0.000000
   27       12.129642     12.129642   0.000000   0.000000
   28       12.535946     12.535946   0.000000   0.000000
   29       13.606407     13.606407   0.000000   0.000000
   30       16.034580     16.034581   0.000000   0.000000
   31       16.856407     16.856407   0.000000   0.000000
   32       17.241922     17.241922   0.000000   0.000000
 
 -0.4285714E+00  0.2000000E+00  0.1286410E-14  0.1142857E-01
    1      -32.793156    -32.793155   1.000000   1.000000
    2      -28.421050    -28.421050   1.000000   1.000000
    3      -28.408414    -28.408414   1.000000   1.000000
    4      -28.256496    -28.256496   1.000000   1.000000
    5      -15.074955    -15.074955   1.000000   1.000000
    6      -15.043176    -15.043176   1.000000   1.000000
    7      -14.757162    -14.757162   1.000000   1.000000
    8       -3.074447     -3.074447   1.000000   1.000000
    9       -2.313788     -2.313788   1.000000   1.000000
   10       -1.911129     -1.911129   1.000000   1.000000
   11       -1.849847     -1.849847   1.000000   1.000000
   12       -1.296182     -1.296182   1.000000   1.000000
   13       -1.157907     -1.157907   1.000000   1.000000
   14        0.696126      0.696126   1.000000   1.000000
   15        4.408879      4.408878   0.000000   0.000000
   16        4.763635      4.763635   0.000000   0.000000
   17        5.787021      5.787021   0.000000   0.000000
   18        6.943037      6.943037   0.000000   0.000000
   19        7.084587      7.084587   0.000000   0.000000
   20        7.928722      7.928722   0.000000   0.000000
   21        8.001178      8.001178   0.000000   0.000000
   22        8.716789      8.716789   0.000000   0.000000
   23        9.395207      9.395207   0.000000   0.000000
   24       10.179941     10.179940   0.000000   0.000000
   25       11.094416     11.094417   0.000000   0.000000
   26       11.764059     11.764059   0.000000   0.000000
   27       12.109378     12.109378   0.000000   0.000000
   28       12.518991     12.518991   0.000000   0.000000
   29       13.029917     13.029918   0.000000   0.000000
   30       15.686691     15.686691   0.000000   0.000000
   31       16.493121     16.493121   0.000000   0.000000
   32       17.710544     17.710544   0.000000   0.000000
 
 -0.2857143E+00  0.2000000E+00  0.3786560E-15  0.1142857E-01
    1      -32.809819    -32.809819   1.000000   1.000000
    2      -28.395521    -28.395521   1.000000   1.000000
    3      -28.387275    -28.387275   1.000000   1.000000
    4      -28.262212    -28.262212   1.000000   1.000000
    5      -14.973267    -14.973267   1.000000   1.000000
    6      -14.943109    -14.943109   1.000000   1.000000
    7      -14.801375    -14.801375   1.000000   1.000000
    8       -4.315763     -4.315763   1.000000   1.000000
    9       -2.493602     -2.493602   1.000000   1.000000
   10       -1.889784     -1.889784   1.000000   1.000000
   11       -1.802523     -1.802523   1.000000   1.000000
   12       -0.763379     -0.763379   1.000000   1.000000
   13       -0.079758     -0.079758   1.000000   1.000000
   14        0.833673      0.833673   1.000000   1.000000
   15        4.375690      4.375690   0.000000   0.000000
   16        4.695398      4.695398   0.000000   0.000000
   17        5.907053      5.907053   0.000000   0.000000
   18        6.196933      6.196933   0.000000   0.000000
   19        7.150173      7.150173   0.000000   0.000000
   20        7.312920      7.312920   0.000000   0.000000
   21        8.151624      8.151624   0.000000   0.000000
   22        8.482083      8.482084   0.000000   0.000000
   23        9.276683      9.276683   0.000000   0.000000
   24        9.973422      9.973422   0.000000   0.000000
   25       10.651135     10.651135   0.000000   0.000000
   26       12.036817     12.036818   0.000000   0.000000
   27       12.487898     12.487898   0.000000   0.000000
   28       13.035776     13.035775   0.000000   0.000000
   29       13.873639     13.873639   0.000000   0.000000
   30       15.098550     15.098550   0.000000   0.000000
   31       16.570191     16.570191   0.000000   0.000000
   32       17.239336     17.239336   0.000000   0.000000
 
 -0.1428571E+00  0.2000000E+00  0.3339900E-15  0.1142857E-01
    1      -32.830723    -32.830722   1.000000   1.000000
    2      -28.363434    -28.363434   1.000000   1.000000
    3      -28.360119    -28.360119   1.000000   1.000000
    4      -28.269182    -28.269182   1.000000   1.000000
    5      -14.860364    -14.860363   1.000000   1.000000
    6      -14.826565    -14.826565   1.000000   1.000000
    7      -14.801920    -14.801920   1.000000   1.000000
    8       -5.506302     -5.506302   1.000000   1.000000
    9       -2.810999     -2.810999   1.000000   1.000000
   10       -1.961140     -1.961140   1.000000   1.000000
   11       -1.493853     -1.493853   1.000000   1.000000
   12       -0.120486     -0.120486   1.000000   1.000000
   13        0.825617      0.825617   1.000000   1.000000
   14        1.364426      1.364426   1.000000   1.000000
   15        4.108019      4.108019   0.000000   0.000000
   16        4.938876      4.938876   0.000000   0.000000
   17        5.377317      5.377317   0.000000   0.000000
   18        5.937294      5.937294   0.000000   0.000000
   19        6.761713      6.761714   0.000000   0.000000
   20        7.479426      7.479426   0.000000   0.000000
   21        8.054157      8.054157   0.000000   0.000000
   22        8.418257      8.418257   0.000000   0.000000
   23        8.923698      8.923698   0.000000   0.000000
   24        9.263558      9.263558   0.000000   0.000000
   25       10.396564     10.396564   0.000000   0.000000
   26       12.073320     12.073320   0.000000   0.000000
   27       12.951967     12.951967   0.000000   0.000000
   28       13.506695     13.506695   0.000000   0.000000
   29       14.002495     14.002496   0.000000   0.000000
   30       15.524377     15.524377   0.000000   0.000000
   31       16.580436     16.580436   0.000000   0.000000
   32       17.156853     17.156854   0.000000   0.000000
 
  0.3788953E-15  0.4000000E+00  0.1258110E-14  0.1142857E-01
    1      -32.840219    -32.840219   1.000000   1.000000
    2      -28.349905    -28.349905   1.000000   1.000000
    3      -28.347034    -28.347034   1.000000   1.000000
    4      -28.271859    -28.271859   1.000000   1.000000
    5      -14.906216    -14.906216   1.000000   1.000000
    6      -14.757166    -14.757166   1.000000   1.000000
    7      -14.730999    -14.730999   1.000000   1.000000
    8       -5.455592     -5.455592   1.000000   1.000000
    9       -3.686036     -3.686036   1.000000   1.000000
   10       -1.888142     -1.888142   1.000000   1.000000
   11       -1.118239     -1.118239   1.000000   1.000000
   12       -0.138421     -0.138421   1.000000   1.000000
   13        0.809803      0.809803   1.000000   1.000000
   14        1.975219      1.975219   1.000000   1.000000
   15        4.057093      4.057093   0.000000   0.000000
   16        4.260392      4.260391   0.000000   0.000000
   17        5.122526      5.122526   0.000000   0.000000
   18        5.501730      5.501730   0.000000   0.000000
   19        7.446503      7.446503   0.000000   0.000000
   20        7.914462      7.914462   0.000000   0.000000
   21        8.373055      8.373055   0.000000   0.000000
   22        8.875780      8.875780   0.000000   0.000000
   23        9.223175      9.223175   0.000000   0.000000
   24        9.589838      9.589838   0.000000   0.000000
   25       11.027008     11.027009   0.000000   0.000000
   26       11.856490     11.856490   0.000000   0.000000
   27       12.153853     12.153853   0.000000   0.000000
   28       12.941196     12.941196   0.000000   0.000000
   29       13.740235     13.740235   0.000000   0.000000
   30       14.392400     14.392400   0.000000   0.000000
   31       15.893069     15.893069   0.000000   0.000000
   32       17.322623     17.322623   0.000000   0.000000
 
  0.1428571E+00  0.4000000E+00  0.3518232E-15  0.1142857E-01
    1      -32.830711    -32.830710   1.000000   1.000000
    2      -28.363500    -28.363500   1.000000   1.000000
    3      -28.360191    -28.360191   1.000000   1.000000
    4      -28.269357    -28.269357   1.000000   1.000000
    5      -14.876395    -14.876395   1.000000   1.000000
    6      -14.821845    -14.821845   1.000000   1.000000
    7      -14.802603    -14.802603   1.000000   1.000000
    8       -5.117955     -5.117955   1.000000   1.000000
    9       -3.331044     -3.331044   1.000000   1.000000
   10       -1.921450     -1.921450   1.000000   1.000000
   11       -1.165185     -1.165185   1.000000   1.000000
   12       -0.283792     -0.283792   1.000000   1.000000
   13        0.335042      0.335042   1.000000   1.000000
   14        1.394775      1.394775   1.000000   1.000000
   15        4.383599      4.383599   0.000000   0.000000
   16        4.776858      4.776858   0.000000   0.000000
   17        5.284794      5.284794   0.000000   0.000000
   18        5.933686      5.933686   0.000000   0.000000
   19        6.847430      6.847430   0.000000   0.000000
   20        7.675007      7.675007   0.000000   0.000000
   21        8.086915      8.086915   0.000000   0.000000
   22        8.939408      8.939408   0.000000   0.000000
   23        9.112814      9.112814   0.000000   0.000000
   24        9.797955      9.797955   0.000000   0.000000
   25       10.189966     10.189967   0.000000   0.000000
   26       11.772437     11.772437   0.000000   0.000000
   27       12.364315     12.364315   0.000000   0.000000
   28       13.299736     13.299736   0.000000   0.000000
   29       13.831426     13.831426   0.000000   0.000000
   30       15.603758     15.603758   0.000000   0.000000
   31       16.107691     16.107691   0.000000   0.000000
   32       17.365850     17.365850   0.000000   0.000000
 
  0.2857143E+00  0.4000000E+00  0.4225909E-15  0.1142857E-01
    1      -32.809659    -32.809658   1.000000   1.000000
    2      -28.395549    -28.395549   1.000000   1.000000
    3      -28.387341    -28.387342   1.000000   1.000000
    4      -28.262836    -28.262836   1.000000   1.000000
    5      -14.971620    -14.971620   1.000000   1.000000
    6      -14.943252    -14.943252   1.000000   1.000000
    7      -14.809461    -14.809461   1.000000   1.000000
    8       -4.090245     -4.090245   1.000000   1.000000
    9       -2.664867     -2.664867   1.000000   1.000000
   10       -1.955681     -1.955681   1.000000   1.000000
   11       -1.390694     -1.390694   1.000000   1.000000
   12       -0.707648     -0.707648   1.000000   1.000000
   13       -0.418462     -0.418462   1.000000   1.000000
   14        0.398512      0.398512   1.000000   1.000000
   15        4.369360      4.369360   0.000000   0.000000
   16        5.463257      5.463257   0.000000   0.000000
   17        5.826042      5.826043   0.000000   0.000000
   18        6.277420      6.277420   0.000000   0.000000
   19        6.632911      6.632911   0.000000   0.000000
   20        7.277478      7.277478   0.000000   0.000000
   21        8.060510      8.060510   0.000000   0.000000
   22        8.428192      8.428192   0.000000   0.000000
   23        9.362454      9.362454   0.000000   0.000000
   24        9.531998      9.531998   0.000000   0.000000
   25       10.648728     10.648728   0.000000   0.000000
   26       12.095799     12.095799   0.000000   0.000000
   27       12.805052     12.805052   0.000000   0.000000
   28       12.983705     12.983705   0.000000   0.000000
   29       14.418334     14.418334   0.000000   0.000000
   30       14.817420     14.817420   0.000000   0.000000
   31       17.348765     17.348764   0.000000   0.000000
   32       17.924149     17.924149   0.000000   0.000000
 
  0.4285714E+00  0.4000000E+00  0.1272812E-14  0.1142857E-01
    1      -32.793028    -32.793027   1.000000   1.000000
    2      -28.421009    -28.421010   1.000000   1.000000
    3      -28.408372    -28.408372   1.000000   1.000000
    4      -28.257136    -28.257136   1.000000   1.000000
    5      -15.076092    -15.076092   1.000000   1.000000
    6      -15.043981    -15.043981   1.000000   1.000000
    7      -14.765817    -14.765817   1.000000   1.000000
    8       -2.705332     -2.705332   1.000000   1.000000
    9       -2.207282     -2.207282   1.000000   1.000000
   10       -1.987676     -1.987676   1.000000   1.000000
   11       -1.698255     -1.698256   1.000000   1.000000
   12       -1.302922     -1.302922   1.000000   1.000000
   13       -0.927753     -0.927753   1.000000   1.000000
   14       -0.364695     -0.364695   1.000000   1.000000
   15        4.368142      4.368142   0.000000   0.000000
   16        5.023555      5.023555   0.000000   0.000000
   17        5.338842      5.338842   0.000000   0.000000
   18        6.707245      6.707245   0.000000   0.000000
   19        7.144233      7.144233   0.000000   0.000000
   20        7.741838      7.741838   0.000000   0.000000
   21        8.100109      8.100109   0.000000   0.000000
   22        9.250597      9.250597   0.000000   0.000000
   23        9.560805      9.560805   0.000000   0.000000
   24       10.255207     10.255208   0.000000   0.000000
   25       10.642243     10.642243   0.000000   0.000000
   26       12.060205     12.060205   0.000000   0.000000
   27       12.366284     12.366284   0.000000   0.000000
   28       12.879043     12.879043   0.000000   0.000000
   29       14.018625     14.018625   0.000000   0.000000
   30       15.025938     15.025938   0.000000   0.000000
   31       16.379305     16.379305   0.000000   0.000000
   32       17.634632     17.634632   0.000000   0.000000
 
 -0.4285714E+00  0.4000000E+00  0.3094552E-15  0.1142857E-01
    1      -32.793009    -32.793008   1.000000   1.000000
    2      -28.421054    -28.421054   1.000000   1.000000
    3      -28.408389    -28.408389   1.000000   1.000000
    4      -28.257123    -28.257123   1.000000   1.000000
    5      -15.075413    -15.075413   1.000000   1.000000
    6      -15.043854    -15.043854   1.000000   1.000000
    7      -14.765741    -14.765741   1.000000   1.000000
    8       -2.646157     -2.646157   1.000000   1.000000
    9       -2.282912     -2.282912   1.000000   1.000000
   10       -1.996776     -1.996776   1.000000   1.000000
   11       -1.638194     -1.638194   1.000000   1.000000
   12       -1.397941     -1.397941   1.000000   1.000000
   13       -0.933247     -0.933247   1.000000   1.000000
   14       -0.307746     -0.307746   1.000000   1.000000
   15        4.356173      4.356173   0.000000   0.000000
   16        4.954340      4.954340   0.000000   0.000000