Automatically generated mesh
      88
Reciprocal lattice
    0.00000000000000    0.00000000000000    0.00000000000000             1
    0.14285714285714    0.00000000000000    0.00000000000000             2
    0.28571428571429    0.00000000000000    0.00000000000000             2
    0.42857142857143    0.00000000000000    0.00000000000000             2
    0.00000000000000    0.20000000000000    0.00000000000000             2
    0.14285714285714    0.20000000000000    0.00000000000000             2
    0.28571428571429    0.20000000000000    0.00000000000000             2
    0.42857142857143    0.20000000000000    0.00000000000000             2
   -0.42857142857143    0.20000000000000    0.00000000000000             2
   -0.28571428571429    0.20000000000000    0.00000000000000             2
   -0.14285714285714    0.20000000000000    0.00000000000000             2
    0.00000000000000    0.40000000000000    0.00000000000000             2
    0.14285714285714    0.40000000000000    0.00000000000000             2
    0.28571428571429    0.40000000000000    0.00000000000000             2
    0.42857142857143    0.40000000000000    0.00000000000000             2
   -0.42857142857143    0.40000000000000    0.00000000000000             2
   -0.28571428571429    0.40000000000000    0.00000000000000             2
   -0.14285714285714    0.40000000000000    0.00000000000000             2
   -0.00000000000000    0.00000000000000    0.20000000000000             2
    0.14285714285714    0.00000000000000    0.20000000000000             2
    0.28571428571429    0.00000000000000    0.20000000000000             2
    0.42857142857143    0.00000000000000    0.20000000000000             2
   -0.42857142857143    0.00000000000000    0.20000000000000             2
   -0.28571428571429    0.00000000000000    0.20000000000000             2
   -0.14285714285714    0.00000000000000    0.20000000000000             2
    0.00000000000000    0.20000000000000    0.20000000000000             2
    0.14285714285714    0.20000000000000    0.20000000000000             2
    0.28571428571429    0.20000000000000    0.20000000000000             2
    0.42857142857143    0.20000000000000    0.20000000000000             2
   -0.42857142857143    0.20000000000000    0.20000000000000             2
   -0.28571428571429    0.20000000000000    0.20000000000000             2
   -0.14285714285714    0.20000000000000    0.20000000000000             2
    0.00000000000000    0.40000000000000    0.20000000000000             2
    0.14285714285714    0.40000000000000    0.20000000000000             2
    0.28571428571429    0.40000000000000    0.20000000000000             2
    0.42857142857143    0.40000000000000    0.20000000000000             2
   -0.42857142857143    0.40000000000000    0.20000000000000             2
   -0.28571428571429    0.40000000000000    0.20000000000000             2
   -0.14285714285714    0.40000000000000    0.20000000000000             2
    0.00000000000000   -0.40000000000000    0.20000000000000             2
    0.14285714285714   -0.40000000000000    0.20000000000000             2
    0.28571428571429   -0.40000000000000    0.20000000000000             2
    0.42857142857143   -0.40000000000000    0.20000000000000             2
   -0.42857142857143   -0.40000000000000    0.20000000000000             2
   -0.28571428571429   -0.40000000000000    0.20000000000000             2
   -0.14285714285714   -0.40000000000000    0.20000000000000             2
    0.00000000000000   -0.20000000000000    0.20000000000000             2
    0.14285714285714   -0.20000000000000    0.20000000000000             2
    0.28571428571429   -0.20000000000000    0.20000000000000             2
    0.42857142857143   -0.20000000000000    0.20000000000000             2
   -0.42857142857143   -0.20000000000000    0.20000000000000             2
   -0.28571428571429   -0.20000000000000    0.20000000000000             2
   -0.14285714285714   -0.20000000000000    0.20000000000000             2
    0.00000000000000    0.00000000000000    0.40000000000000             2
    0.14285714285714    0.00000000000000    0.40000000000000             2
    0.28571428571429    0.00000000000000    0.40000000000000             2
    0.42857142857143    0.00000000000000    0.40000000000000             2
   -0.42857142857143    0.00000000000000    0.40000000000000             2
   -0.28571428571429    0.00000000000000    0.40000000000000             2
   -0.14285714285714    0.00000000000000    0.40000000000000             2
    0.00000000000000    0.20000000000000    0.40000000000000             2
    0.14285714285714    0.20000000000000    0.40000000000000             2
    0.28571428571429    0.20000000000000    0.40000000000000             2
    0.42857142857143    0.20000000000000    0.40000000000000             2
   -0.42857142857143    0.20000000000000    0.40000000000000             2
   -0.28571428571429    0.20000000000000    0.40000000000000             2
   -0.14285714285714    0.20000000000000    0.40000000000000             2
    0.00000000000000    0.40000000000000    0.40000000000000             2
    0.14285714285714    0.40000000000000    0.40000000000000             2
    0.28571428571429    0.40000000000000    0.40000000000000             2
    0.42857142857143    0.40000000000000    0.40000000000000             2
   -0.42857142857143    0.40000000000000    0.40000000000000             2
   -0.28571428571429    0.40000000000000    0.40000000000000             2
   -0.14285714285714    0.40000000000000    0.40000000000000             2
   -0.00000000000000   -0.40000000000000    0.40000000000000             2
    0.14285714285714   -0.40000000000000    0.40000000000000             2
    0.28571428571429   -0.40000000000000    0.40000000000000             2
    0.42857142857143   -0.40000000000000    0.40000000000000             2
   -0.42857142857143   -0.40000000000000    0.40000000000000             2
   -0.28571428571429   -0.40000000000000    0.40000000000000             2
   -0.14285714285714   -0.40000000000000    0.40000000000000             2
    0.00000000000000   -0.20000000000000    0.40000000000000             2
    0.14285714285714   -0.20000000000000    0.40000000000000             2
    0.28571428571429   -0.20000000000000    0.40000000000000             2
    0.42857142857143   -0.20000000000000    0.40000000000000             2
   -0.42857142857143   -0.20000000000000    0.40000000000000             2
   -0.28571428571429   -0.20000000000000    0.40000000000000             2
   -0.14285714285714   -0.20000000000000    0.40000000000000             2
Tetrahedra
       522    0.00095238095238
         2         1         2         6        19
         2         1         5         6        19
         2         5         6        19        26
         2         2         6        19        20
         2         6        19        20        27
         2         6        19        26        27
         2         2         3         7        20
         2         2         6         7        20
         2         6         7        20        27
         2         3         7        20        21
         2         7        20        21        28
         2         7        20        27        28
         2         3         4         8        21
         2         3         7         8        21
         2         7         8        21        28
         2         4         8        21        22
         2         8        21        22        29
         2         8        21        28        29
         2         4         4         9        22
         2         4         8         9        22
         2         8         9        22        29
         2         4         9        22        23
         2         9        22        23        30
         2         9        22        29        30
         2         3         4        10        23
         2         4         9        10        23
         2         9        10        23        30
         2         3        10        23        24
         2        10        23        24        31
         2        10        23        30        31
         2         2         3        11        24
         2         3        10        11        24
         2        10        11        24        31
         2         2        11        24        25
         2        11        24        25        32
         2        11        24        31        32
         2         1         2         5        25
         2         2         5        11        25
         2         5        11        25        32
         2         1         5        19        25
         2         5        19        25        26
         2         5        25        26        32
         2         5         6        13        26
         2         5        12        13        26
         2        12        13        26        33
         2         6        13        26        27
         2        13        26        27        34
         2        13        26        33        34
         2         6         7        14        27
         2         6        13        14        27
         2        13        14        27        34
         2         7        14        27        28
         2        14        27        28        35
         2        14        27        34        35
         2         7         8        15        28
         2         7        14        15        28
         2        14        15        28        35
         2         8        15        28        29
         2        15        28        29        36
         2        15        28        35        36
         2         8         9        16        29
         2         8        15        16        29
         2        15        16        29        36
         2         9        16        29        30
         2        16        29        30        37
         2        16        29        36        37
         2         9        10        17        30
         2         9        16        17        30
         2        16        17        30        37
         2        10        17        30        31
         2        17        30        31        38
         2        17        30        37        38
         2        10        11        18        31
         2        10        17        18        31
         2        17        18        31        38
         2        11        18        31        32
         2        18        31        32        39
         2        18        31        38        39
         2         5        11        12        32
         2        11        12        18        32
         2        12        18        32        39
         2         5        12        26        32
         2        12        26        32        33
         2        12        32        33        39
         2        12        13        18        33
         2        12        12        18        33
         2        12        18        33        40
         2        13        18        33        34
         2        18        33        34        41
         2        18        33        40        41
         2        13        14        17        34
         2        13        17        18        34
         2        17        18        34        41
         2        14        17        34        35
         2        17        34        35        42
         2        17        34        41        42
         2        14        15        16        35
         2        14        16        17        35
         2        16        17        35        42
         2        15        16        35        36
         2        16        35        36        43
         2        16        35        42        43
         4        15        15        16        36
         2        15        16        36        43
         2        15        16        36        37
         2        15        36        37        44
         2        15        36        43        44
         2        14        16        17        37
         2        14        15        16        37
         2        14        15        37        44
         2        14        17        37        38
         2        14        37        38        45
         2        14        37        44        45
         2        13        17        18        38
         2        13        14        17        38
         2        13        14        38        45
         2        13        18        38        39
         2        13        38        39        46
         2        13        38        45        46
         2        12        12        18        39
         2        12        13        18        39
         2        12        13        39        46
         2        12        12        33        39
         2        12        33        39        40
         2        12        39        40        46
         2        11        12        18        40
         2         5        11        12        40
         2         5        11        40        47
         2        11        18        40        41
         2        11        40        41        48
         2        11        40        47        48
         2        10        17        18        41
         2        10        11        18        41
         2        10        11        41        48
         2        10        17        41        42
         2        10        41        42        49
         2        10        41        48        49
         2         9        16        17        42
         2         9        10        17        42
         2         9        10        42        49
         2         9        16        42        43
         2         9        42        43        50
         2         9        42        49        50
         2         8        15        16        43
         2         8         9        16        43
         2         8         9        43        50
         2         8        15        43        44
         2         8        43        44        51
         2         8        43        50        51
         2         7        14        15        44
         2         7         8        15        44
         2         7         8        44        51
         2         7        14        44        45
         2         7        44        45        52
         2         7        44        51        52
         2         6        13        14        45
         2         6         7        14        45
         2         6         7        45        52
         2         6        13        45        46
         2         6        45        46        53
         2         6        45        52        53
         2         5        12        13        46
         2         5         6        13        46
         2         5         6        46        53
         2         5        12        40        46
         2         5        40        46        47
         2         5        46        47        53
         2         2         5        11        47
         2         1         2         5        47
         2         1         2        19        47
         2         2        11        47        48
         2         2        20        47        48
         2         2        19        20        47
         2         3        10        11        48
         2         2         3        11        48
         2         2         3        20        48
         2         3        10        48        49
         2         3        21        48        49
         2         3        20        21        48
         2         4         9        10        49
         2         3         4        10        49
         2         3         4        21        49
         2         4         9        49        50
         2         4        22        49        50
         2         4        21        22        49
         2         4         8         9        50
         2         4         4         9        50
         2         4         4        22        50
         2         4         8        50        51
         2         4        23        50        51
         2         4        22        23        50
         2         3         7         8        51
         2         3         4         8        51
         2         3         4        23        51
         2         3         7        51        52
         2         3        24        51        52
         2         3        23        24        51
         2         2         6         7        52
         2         2         3         7        52
         2         2         3        24        52
         2         2         6        52        53
         2         2        25        52        53
         2         2        24        25        52
         2         1         5         6        53
         2         1         2         6        53
         2         1         2        25        53
         2         1         5        47        53
         2         1        19        47        53
         2         1        19        25        53
         2        19        20        27        54
         2        19        26        27        54
         2        26        27        54        61
         2        20        27        54        55
         2        27        54        55        62
         2        27        54        61        62
         2        20        21        28        55
         2        20        27        28        55
         2        27        28        55        62
         2        21        28        55        56
         2        28        55        56        63
         2        28        55        62        63
         2        21        22        29        56
         2        21        28        29        56
         2        28        29        56        63
         2        22        29        56        57
         2        29        56        57        64
         2        29        56        63        64
         2        22        23        30        57
         2        22        29        30        57
         2        29        30        57        64
         2        23        30        57        58
         2        30        57        58        65
         2        30        57        64        65
         2        23        24        31        58
         2        23        30        31        58
         2        30        31        58        65
         2        24        31        58        59
         2        31        58        59        66
         2        31        58        65        66
         2        24        25        32        59
         2        24        31        32        59
         2        31        32        59        66
         2        25        32        59        60
         2        32        59        60        67
         2        32        59        66        67
         2        19        25        26        60
         2        25        26        32        60
         2        26        32        60        67
         2        19        26        54        60
         2        26        54        60        61
         2        26        60        61        67
         2        26        27        34        61
         2        26        33        34        61
         2        33        34        61        68
         2        27        34        61        62
         2        34        61        62        69
         2        34        61        68        69
         2        27        28        35        62
         2        27        34        35        62
         2        34        35        62        69
         2        28        35        62        63
         2        35        62        63        70
         2        35        62        69        70
         2        28        29        36        63
         2        28        35        36        63
         2        35        36        63        70
         2        29        36        63        64
         2        36        63        64        71
         2        36        63        70        71
         2        29        30        37        64
         2        29        36        37        64
         2        36        37        64        71
         2        30        37        64        65
         2        37        64        65        72
         2        37        64        71        72
         2        30        31        38        65
         2        30        37        38        65
         2        37        38        65        72
         2        31        38        65        66
         2        38        65        66        73
         2        38        65        72        73
         2        31        32        39        66
         2        31        38        39        66
         2        38        39        66        73
         2        32        39        66        67
         2        39        66        67        74
         2        39        66        73        74
         2        26        32        33        67
         2        32        33        39        67
         2        33        39        67        74
         2        26        33        61        67
         2        33        61        67        68
         2        33        67        68        74
         2        33        34        41        68
         2        33        40        41        68
         2        40        41        68        75
         2        34        41        68        69
         2        41        68        69        76
         2        41        68        75        76
         2        34        35        42        69
         2        34        41        42        69
         2        41        42        69        76
         2        35        42        69        70
         2        42        69        70        77
         2        42        69        76        77
         2        35        36        43        70
         2        35        42        43        70
         2        42        43        70        77
         2        36        43        70        71
         2        43        70        71        78
         2        43        70        77        78
         2        36        37        44        71
         2        36        43        44        71
         2        43        44        71        78
         2        37        44        71        72
         2        44        71        72        79
         2        44        71        78        79
         2        37        38        45        72
         2        37        44        45        72
         2        44        45        72        79
         2        38        45        72        73
         2        45        72        73        80
         2        45        72        79        80
         2        38        39        46        73
         2        38        45        46        73
         2        45        46        73        80
         2        39        46        73        74
         2        46        73        74        81
         2        46        73        80        81
         2        33        39        40        74
         2        39        40        46        74
         2        40        46        74        81
         2        33        40        68        74
         2        40        68        74        75
         2        40        74        75        81
         2        40        41        48        75
         2        40        47        48        75
         2        47        48        75        82
         2        41        48        75        76
         2        48        75        76        83
         2        48        75        82        83
         2        41        42        49        76
         2        41        48        49        76
         2        48        49        76        83
         2        42        49        76        77
         2        49        76        77        84
         2        49        76        83        84
         2        42        43        50        77
         2        42        49        50        77
         2        49        50        77        84
         2        43        50        77        78
         2        50        77        78        85
         2        50        77        84        85
         2        43        44        51        78
         2        43        50        51        78
         2        50        51        78        85
         2        44        51        78        79
         2        51        78        79        86
         2        51        78        85        86
         2        44        45        52        79
         2        44        51        52        79
         2        51        52        79        86
         2        45        52        79        80
         2        52        79        80        87
         2        52        79        86        87
         2        45        46        53        80
         2        45        52        53        80
         2        52        53        80        87
         2        46        53        80        81
         2        53        80        81        88
         2        53        80        87        88
         2        40        46        47        81
         2        46        47        53        81
         2        47        53        81        88
         2        40        47        75        81
         2        47        75        81        82
         2        47        81        82        88
         2        20        47        48        82
         2        19        20        47        82
         2        19        20        54        82
         2        20        48        82        83
         2        20        55        82        83
         2        20        54        55        82
         2        21        48        49        83
         2        20        21        48        83
         2        20        21        55        83
         2        21        49        83        84
         2        21        56        83        84
         2        21        55        56        83
         2        22        49        50        84
         2        21        22        49        84
         2        21        22        56        84
         2        22        50        84        85
         2        22        57        84        85
         2        22        56        57        84
         2        23        50        51        85
         2        22        23        50        85
         2        22        23        57        85
         2        23        51        85        86
         2        23        58        85        86
         2        23        57        58        85
         2        24        51        52        86
         2        23        24        51        86
         2        23        24        58        86
         2        24        52        86        87
         2        24        59        86        87
         2        24        58        59        86
         2        25        52        53        87
         2        24        25        52        87
         2        24        25        59        87
         2        25        53        87        88
         2        25        60        87        88
         2        25        59        60        87
         2        19        47        53        88
         2        19        25        53        88
         2        19        25        60        88
         2        19        47        82        88
         2        19        54        82        88
         2        19        54        60        88
         2        54        54        55        62
         2        54        54        61        62
         2        54        61        62        82
         2        54        55        60        62
         2        54        60        62        88
         2        54        62        82        88
         2        55        56        60        63
         2        55        60        62        63
         2        60        62        63        88
         2        56        59        60        63
         2        59        60        63        87
         2        60        63        87        88
         2        56        57        59        64
         2        56        59        63        64
         2        59        63        64        87
         2        57        58        59        64
         2        58        59        64        86
         2        59        64        86        87
         4        57        58        58        65
         2        57        58        64        65
         2        58        64        65        86
         2        57        58        65        85
         2        58        65        85        86
         2        57        58        59        66
         2        57        58        65        66
         2        57        65        66        85
         2        56        57        59        66
         2        56        57        66        84
         2        57        66        84        85
         2        56        59        60        67
         2        56        59        66        67
         2        56        66        67        84
         2        55        56        60        67
         2        55        56        67        83
         2        56        67        83        84
         2        54        55        60        61
         2        55        60        61        67