unknown system                          
           1
     3.554349    0.131582   -0.672781
     0.010625    5.395078    0.284543
    -2.775661   -0.122365    4.317879
   Sr   Nb   H 
   1   1   7
Direct configuration=     1
   0.42624800  0.09977200  0.66578700
   0.48530500  0.61279800  0.26059900
   0.38902800  0.59739000  0.55987200
   0.91412400  0.77068100  0.12212100
   0.99526000  0.75288800  0.71167800
   0.52101100  0.30782000  0.13614000
   0.02688700  0.40258400  0.14929700
   0.87909600  0.38245700  0.62662200
   0.46834400  0.95864500  0.19785000
unknown system                          
           1
     3.589333    0.131722   -0.680341
     0.007510    5.441257    0.278637
    -2.805258   -0.128342    4.353220
   Sr   Nb   H 
   1   1   7
Direct configuration=     2
   0.42663601  0.10000725  0.66610465
   0.48524859  0.61254098  0.26211096
   0.38876477  0.59743344  0.55912157
   0.91415650  0.77024829  0.12184178
   0.99494887  0.75282254  0.71126613
   0.52092952  0.30805911  0.13602242
   0.02777760  0.40261855  0.14966970
   0.87886587  0.38269569  0.62610182
   0.46797525  0.95860916  0.19772697
unknown system                          
           1
     3.642877    0.131937   -0.691911
     0.002741    5.511936    0.269597
    -2.850558   -0.137491    4.407311
   Sr   Nb   H 
   1   1   7
Direct configuration=     3
   0.42722620  0.10036480  0.66658798
   0.48516692  0.61215293  0.26440600
   0.38836349  0.59749828  0.55798208
   0.91420308  0.76959128  0.12141624
   0.99447563  0.75272255  0.71064036
   0.52080662  0.30842177  0.13584470
   0.02912901  0.40267176  0.15023608
   0.87851633  0.38305715  0.62531267
   0.46741572  0.95855448  0.19753989
unknown system                          
           1
     3.620759    0.131848   -0.687132
     0.004711    5.482740    0.273331
    -2.831845   -0.133712    4.384967
   Sr   Nb   H 
   1   1   7
Direct configuration=     4
   0.42698470  0.10021866  0.66639010
   0.48519782  0.61230996  0.26346976
   0.38852824  0.59747250  0.55844717
   0.91418577  0.76985942  0.12159088
   0.99466928  0.75276372  0.71089600
   0.52085629  0.30827399  0.13591674
   0.02857800  0.40264959  0.15000462
   0.87865907  0.38291022  0.62563432
   0.46764385  0.95857695  0.19761641
unknown system                          
           1
     3.614371    0.132507   -0.687750
     0.006732    5.439170    0.270650
    -2.828654   -0.135551    4.379178
   Sr   Nb   H 
   1   1   7
Direct configuration=     5
   0.42695621  0.10060419  0.66637376
   0.48162145  0.61176874  0.26397821
   0.38881921  0.59755889  0.55689135
   0.91703586  0.76849458  0.12229073
   0.99370242  0.75216127  0.71030715
   0.52073405  0.31078577  0.13674788
   0.03205852  0.40342003  0.15134303
   0.87645538  0.38391951  0.62353333
   0.46791990  0.95632202  0.19850056
unknown system                          
           1
     3.616337    0.132304   -0.687560
     0.006110    5.452580    0.271475
    -2.829636   -0.134985    4.380960
   Sr   Nb   H 
   1   1   7
Direct configuration=     6
   0.42696507  0.10048458  0.66637879
   0.48272444  0.61193642  0.26382206
   0.38872955  0.59753228  0.55737079
   0.91615651  0.76891808  0.12207463
   0.99400056  0.75234820  0.71048878
   0.52077214  0.31000639  0.13649173
   0.03098505  0.40318102  0.15093002
   0.87713536  0.38360651  0.62418115
   0.46783433  0.95702153  0.19822805
unknown system                          
           1
     3.631838    0.134650   -0.693214
     0.008879    5.440966    0.267295
    -2.845794   -0.140187    4.395257
   Sr   Nb   H 
   1   1   7
Direct configuration=     7
   0.42704813  0.10095048  0.66667350
   0.48221383  0.61307232  0.26331969
   0.38877095  0.59750168  0.55668243
   0.91763495  0.76772187  0.12244947
   0.99298338  0.75172042  0.71003794
   0.52044278  0.31207212  0.13694547
   0.03287318  0.40291440  0.15201397
   0.87539389  0.38400054  0.62272131
   0.46794192  0.95508117  0.19912223
unknown system                          
           1
     3.644872    0.136623   -0.697968
     0.011208    5.431201    0.263781
    -2.859379   -0.144560    4.407277
   Sr   Nb   H 
   1   1   7
Direct configuration=     8
   0.42711818  0.10134322  0.66692092
   0.48178507  0.61402921  0.26289902
   0.38880440  0.59747541  0.55610539
   0.91887420  0.76671382  0.12276378
   0.99213060  0.75119142  0.70965897
   0.52016745  0.31381308  0.13732702
   0.03445676  0.40269000  0.15292360
   0.87393247  0.38433201  0.62149676
   0.46803387  0.95344683  0.19987056
unknown system                          
           1
     3.662152    0.136856   -0.702930
     0.010788    5.431285    0.261391
    -2.875981   -0.146976    4.422286
   Sr   Nb   H 
   1   1   7
Direct configuration=     9
   0.42727678  0.10191430  0.66734018
   0.48200428  0.61343660  0.26404611
   0.38903178  0.59763536  0.55530707
   0.91905528  0.76609833  0.12260003
   0.99144617  0.75089624  0.70937515
   0.51988625  0.31509027  0.13712663
   0.03628336  0.40233171  0.15369550
   0.87222594  0.38460078  0.61994542
   0.46809316  0.95303141  0.20052990
unknown system                          
           1
     3.684035    0.137151   -0.709213
     0.010256    5.431392    0.258365
    -2.897003   -0.150034    4.441292
   Sr   Nb   H 
   1   1   7
Direct configuration=    10
   0.42747830  0.10263763  0.66787001
   0.48228326  0.61268666  0.26549383
   0.38931644  0.59783762  0.55429952
   0.91928265  0.76531891  0.12239292
   0.99058230  0.75052228  0.70901627
   0.51953219  0.31670743  0.13687454
   0.03858801  0.40187850  0.15467063
   0.87007050  0.38494034  0.61798632
   0.46816936  0.95250564  0.20136195
