  16  16   1   0
  0.7890516E+01  0.4287790E-09  0.5394604E-09  0.5908036E-09  0.5000000E-15
  1.000000000000000E-004
  CAR 
 unknown system                          
     10.55580110    -37.21320059  301      0.41071197      1.00000000
    -37.213  0.0000E+00  0.0000E+00  0.0000E+00  0.0000E+00
    -37.054  0.0000E+00  0.0000E+00  0.0000E+00  0.0000E+00
    -36.895  0.0000E+00  0.0000E+00  0.0000E+00  0.0000E+00
    -36.736  0.0000E+00  0.0000E+00  0.0000E+00  0.0000E+00
    -36.576  0.0000E+00  0.0000E+00  0.0000E+00  0.0000E+00
    -36.417  0.0000E+00  0.0000E+00  0.0000E+00  0.0000E+00
    -36.258  0.0000E+00  0.0000E+00  0.0000E+00  0.0000E+00
    -36.099  0.0000E+00  0.0000E+00  0.0000E+00  0.0000E+00
    -35.939  0.0000E+00  0.0000E+00  0.0000E+00  0.0000E+00
    -35.780  0.0000E+00  0.0000E+00  0.0000E+00  0.0000E+00
    -35.621  0.0000E+00  0.0000E+00  0.0000E+00  0.0000E+00
    -35.462  0.0000E+00  0.0000E+00  0.0000E+00  0.0000E+00
    -35.302  0.0000E+00  0.0000E+00  0.0000E+00  0.0000E+00
    -35.143  0.0000E+00  0.0000E+00  0.0000E+00  0.0000E+00
    -34.984  0.0000E+00  0.0000E+00  0.1010E-01  0.1010E-01
    -34.825  0.0000E+00  0.0000E+00  0.1010E-01  0.1010E-01
    -34.666  0.0000E+00  0.0000E+00  0.1010E-01  0.1010E-01
    -34.506  0.0000E+00  0.0000E+00  0.1010E-01  0.1010E-01
    -34.347  0.0000E+00  0.0000E+00  0.1010E-01  0.1010E-01
    -34.188  0.0000E+00  0.0000E+00  0.1010E-01  0.1010E-01
    -34.029  0.0000E+00  0.0000E+00  0.1010E-01  0.1010E-01
    -33.869  0.0000E+00  0.0000E+00  0.1010E-01  0.1010E-01
    -33.710  0.0000E+00  0.0000E+00  0.1010E-01  0.1010E-01
    -33.551  0.0000E+00  0.0000E+00  0.1010E-01  0.1010E-01
    -33.392  0.0000E+00  0.0000E+00  0.1010E-01  0.1010E-01
    -33.232  0.0000E+00  0.0000E+00  0.1010E-01  0.1010E-01
    -33.073  0.0000E+00  0.0000E+00  0.1010E-01  0.1010E-01
    -32.914  0.0000E+00  0.0000E+00  0.1010E-01  0.1010E-01
    -32.755  0.0000E+00  0.0000E+00  0.1010E-01  0.1010E-01
    -32.596  0.0000E+00  0.0000E+00  0.1010E-01  0.1010E-01
    -32.436  0.0000E+00  0.0000E+00  0.1010E-01  0.1010E-01
    -32.277  0.0000E+00  0.0000E+00  0.1010E-01  0.1010E-01
    -32.118  0.0000E+00  0.0000E+00  0.1010E-01  0.1010E-01
    -31.959  0.0000E+00  0.0000E+00  0.1010E-01  0.1010E-01
    -31.799  0.0000E+00  0.0000E+00  0.1010E-01  0.1010E-01
    -31.640  0.0000E+00  0.0000E+00  0.1010E-01  0.1010E-01
    -31.481  0.0000E+00  0.0000E+00  0.1010E-01  0.1010E-01
    -31.322  0.0000E+00  0.0000E+00  0.1010E-01  0.1010E-01
    -31.162  0.0000E+00  0.0000E+00  0.1010E-01  0.1010E-01
    -31.003  0.0000E+00  0.0000E+00  0.1010E-01  0.1010E-01
    -30.844  0.0000E+00  0.0000E+00  0.1010E-01  0.1010E-01
    -30.685  0.0000E+00  0.0000E+00  0.1010E-01  0.1010E-01
    -30.526  0.0000E+00  0.0000E+00  0.2020E-01  0.2020E-01
    -30.366  0.0000E+00  0.0000E+00  0.4040E-01  0.4040E-01
    -30.207  0.0000E+00  0.0000E+00  0.4040E-01  0.4040E-01
    -30.048  0.0000E+00  0.0000E+00  0.4040E-01  0.4040E-01
    -29.889  0.0000E+00  0.0000E+00  0.4040E-01  0.4040E-01
    -29.729  0.0000E+00  0.0000E+00  0.4040E-01  0.4040E-01
    -29.570  0.0000E+00  0.0000E+00  0.4040E-01  0.4040E-01
    -29.411  0.0000E+00  0.0000E+00  0.4040E-01  0.4040E-01
    -29.252  0.0000E+00  0.0000E+00  0.4040E-01  0.4040E-01
    -29.092  0.0000E+00  0.0000E+00  0.4040E-01  0.4040E-01
    -28.933  0.0000E+00  0.0000E+00  0.4040E-01  0.4040E-01
    -28.774  0.0000E+00  0.0000E+00  0.4040E-01  0.4040E-01
    -28.615  0.0000E+00  0.0000E+00  0.4040E-01  0.4040E-01
    -28.456  0.0000E+00  0.0000E+00  0.4040E-01  0.4040E-01
    -28.296  0.0000E+00  0.0000E+00  0.4040E-01  0.4040E-01
    -28.137  0.0000E+00  0.0000E+00  0.4040E-01  0.4040E-01
    -27.978  0.0000E+00  0.0000E+00  0.4040E-01  0.4040E-01
    -27.819  0.0000E+00  0.0000E+00  0.4040E-01  0.4040E-01
    -27.659  0.0000E+00  0.0000E+00  0.4040E-01  0.4040E-01
    -27.500  0.0000E+00  0.0000E+00  0.4040E-01  0.4040E-01
    -27.341  0.0000E+00  0.0000E+00  0.4040E-01  0.4040E-01
    -27.182  0.0000E+00  0.0000E+00  0.4040E-01  0.4040E-01
    -27.022  0.0000E+00  0.0000E+00  0.4040E-01  0.4040E-01
    -26.863  0.0000E+00  0.0000E+00  0.4040E-01  0.4040E-01
    -26.704  0.0000E+00  0.0000E+00  0.4040E-01  0.4040E-01
    -26.545  0.0000E+00  0.0000E+00  0.4040E-01  0.4040E-01
    -26.386  0.0000E+00  0.0000E+00  0.4040E-01  0.4040E-01
    -26.226  0.0000E+00  0.0000E+00  0.4040E-01  0.4040E-01
    -26.067  0.0000E+00  0.0000E+00  0.4040E-01  0.4040E-01
    -25.908  0.0000E+00  0.0000E+00  0.4040E-01  0.4040E-01
    -25.749  0.0000E+00  0.0000E+00  0.4040E-01  0.4040E-01
    -25.589  0.0000E+00  0.0000E+00  0.4040E-01  0.4040E-01
    -25.430  0.0000E+00  0.0000E+00  0.4040E-01  0.4040E-01
    -25.271  0.0000E+00  0.0000E+00  0.4040E-01  0.4040E-01
    -25.112  0.0000E+00  0.0000E+00  0.4040E-01  0.4040E-01
    -24.952  0.0000E+00  0.0000E+00  0.4040E-01  0.4040E-01
    -24.793  0.0000E+00  0.0000E+00  0.4040E-01  0.4040E-01
    -24.634  0.0000E+00  0.0000E+00  0.4040E-01  0.4040E-01
    -24.475  0.0000E+00  0.0000E+00  0.4040E-01  0.4040E-01
    -24.316  0.0000E+00  0.0000E+00  0.4040E-01  0.4040E-01
    -24.156  0.0000E+00  0.0000E+00  0.4040E-01  0.4040E-01
    -23.997  0.0000E+00  0.0000E+00  0.4040E-01  0.4040E-01
    -23.838  0.0000E+00  0.0000E+00  0.4040E-01  0.4040E-01
    -23.679  0.0000E+00  0.0000E+00  0.4040E-01  0.4040E-01
    -23.519  0.0000E+00  0.0000E+00  0.4040E-01  0.4040E-01
    -23.360  0.0000E+00  0.0000E+00  0.4040E-01  0.4040E-01
    -23.201  0.0000E+00  0.0000E+00  0.4040E-01  0.4040E-01
    -23.042  0.0000E+00  0.0000E+00  0.4040E-01  0.4040E-01
    -22.883  0.0000E+00  0.0000E+00  0.4040E-01  0.4040E-01
    -22.723  0.0000E+00  0.0000E+00  0.4040E-01  0.4040E-01
    -22.564  0.0000E+00  0.0000E+00  0.4040E-01  0.4040E-01
    -22.405  0.0000E+00  0.0000E+00  0.4040E-01  0.4040E-01
    -22.246  0.0000E+00  0.0000E+00  0.4040E-01  0.4040E-01
    -22.086  0.0000E+00  0.0000E+00  0.4040E-01  0.4040E-01
    -21.927  0.0000E+00  0.0000E+00  0.4040E-01  0.4040E-01
    -21.768  0.0000E+00  0.0000E+00  0.4040E-01  0.4040E-01
    -21.609  0.0000E+00  0.0000E+00  0.4040E-01  0.4040E-01
    -21.449  0.0000E+00  0.0000E+00  0.4040E-01  0.4040E-01
    -21.290  0.0000E+00  0.0000E+00  0.4040E-01  0.4040E-01
    -21.131  0.0000E+00  0.0000E+00  0.4040E-01  0.4040E-01
    -20.972  0.0000E+00  0.0000E+00  0.4040E-01  0.4040E-01
    -20.813  0.0000E+00  0.0000E+00  0.4040E-01  0.4040E-01
    -20.653  0.0000E+00  0.0000E+00  0.4040E-01  0.4040E-01
    -20.494  0.0000E+00  0.0000E+00  0.4040E-01  0.4040E-01
    -20.335  0.0000E+00  0.0000E+00  0.4040E-01  0.4040E-01
    -20.176  0.0000E+00  0.0000E+00  0.4040E-01  0.4040E-01
    -20.016  0.0000E+00  0.0000E+00  0.4040E-01  0.4040E-01
    -19.857  0.0000E+00  0.0000E+00  0.4040E-01  0.4040E-01
    -19.698  0.0000E+00  0.0000E+00  0.4040E-01  0.4040E-01
    -19.539  0.0000E+00  0.0000E+00  0.4040E-01  0.4040E-01
    -19.379  0.0000E+00  0.0000E+00  0.4040E-01  0.4040E-01
    -19.220  0.0000E+00  0.0000E+00  0.4040E-01  0.4040E-01
    -19.061  0.0000E+00  0.0000E+00  0.4040E-01  0.4040E-01
    -18.902  0.0000E+00  0.0000E+00  0.4040E-01  0.4040E-01
    -18.743  0.0000E+00  0.0000E+00  0.4040E-01  0.4040E-01
    -18.583  0.0000E+00  0.0000E+00  0.4040E-01  0.4040E-01
    -18.424  0.0000E+00  0.0000E+00  0.4040E-01  0.4040E-01
    -18.265  0.0000E+00  0.0000E+00  0.4040E-01  0.4040E-01
    -18.106  0.0000E+00  0.0000E+00  0.4040E-01  0.4040E-01
    -17.946  0.0000E+00  0.0000E+00  0.4040E-01  0.4040E-01
    -17.787  0.0000E+00  0.0000E+00  0.4040E-01  0.4040E-01
    -17.628  0.0000E+00  0.0000E+00  0.4040E-01  0.4040E-01
    -17.469  0.0000E+00  0.0000E+00  0.4040E-01  0.4040E-01
    -17.309  0.0000E+00  0.0000E+00  0.4040E-01  0.4040E-01
    -17.150  0.1184E+00  0.1184E+00  0.4252E-01  0.4252E-01
    -16.991  0.0000E+00  0.0000E+00  0.7071E-01  0.7071E-01
    -16.832  0.0000E+00  0.0000E+00  0.7071E-01  0.7071E-01
    -16.673  0.0000E+00  0.0000E+00  0.7071E-01  0.7071E-01
    -16.513  0.0000E+00  0.0000E+00  0.7071E-01  0.7071E-01
    -16.354  0.0000E+00  0.0000E+00  0.7071E-01  0.7071E-01
    -16.195  0.0000E+00  0.0000E+00  0.7071E-01  0.7071E-01
    -16.036  0.0000E+00  0.0000E+00  0.7071E-01  0.7071E-01
    -15.876  0.0000E+00  0.0000E+00  0.7071E-01  0.7071E-01
    -15.717  0.0000E+00  0.0000E+00  0.7071E-01  0.7071E-01
    -15.558  0.0000E+00  0.0000E+00  0.7071E-01  0.7071E-01
    -15.399  0.0000E+00  0.0000E+00  0.7071E-01  0.7071E-01
    -15.239  0.0000E+00  0.0000E+00  0.7071E-01  0.7071E-01
    -15.080  0.0000E+00  0.0000E+00  0.7071E-01  0.7071E-01
    -14.921  0.0000E+00  0.0000E+00  0.7071E-01  0.7071E-01
    -14.762  0.0000E+00  0.0000E+00  0.7071E-01  0.7071E-01
    -14.603  0.0000E+00  0.0000E+00  0.7071E-01  0.7071E-01
    -14.443  0.0000E+00  0.0000E+00  0.7071E-01  0.7071E-01
    -14.284  0.0000E+00  0.0000E+00  0.7071E-01  0.7071E-01
    -14.125  0.0000E+00  0.0000E+00  0.7071E-01  0.7071E-01
    -13.966  0.0000E+00  0.0000E+00  0.7071E-01  0.7071E-01
    -13.806  0.0000E+00  0.0000E+00  0.7071E-01  0.7071E-01
    -13.647  0.0000E+00  0.0000E+00  0.7071E-01  0.7071E-01
    -13.488  0.0000E+00  0.0000E+00  0.7071E-01  0.7071E-01
    -13.329  0.0000E+00  0.0000E+00  0.7071E-01  0.7071E-01
    -13.169  0.0000E+00  0.0000E+00  0.7071E-01  0.7071E-01
    -13.010  0.0000E+00  0.0000E+00  0.7071E-01  0.7071E-01
    -12.851  0.0000E+00  0.0000E+00  0.7071E-01  0.7071E-01
    -12.692  0.0000E+00  0.0000E+00  0.7071E-01  0.7071E-01
    -12.533  0.0000E+00  0.0000E+00  0.7071E-01  0.7071E-01
    -12.373  0.0000E+00  0.0000E+00  0.7071E-01  0.7071E-01
    -12.214  0.0000E+00  0.0000E+00  0.7071E-01  0.7071E-01
    -12.055  0.0000E+00  0.0000E+00  0.7071E-01  0.7071E-01
    -11.896  0.0000E+00  0.0000E+00  0.7071E-01  0.7071E-01
    -11.736  0.0000E+00  0.0000E+00  0.7071E-01  0.7071E-01
    -11.577  0.0000E+00  0.0000E+00  0.7071E-01  0.7071E-01
    -11.418  0.0000E+00  0.0000E+00  0.7071E-01  0.7071E-01
    -11.259  0.0000E+00  0.0000E+00  0.7071E-01  0.7071E-01
    -11.099  0.0000E+00  0.0000E+00  0.7071E-01  0.7071E-01
    -10.940  0.0000E+00  0.0000E+00  0.7071E-01  0.7071E-01
    -10.781  0.0000E+00  0.0000E+00  0.7071E-01  0.7071E-01
    -10.622  0.0000E+00  0.0000E+00  0.7071E-01  0.7071E-01
    -10.463  0.0000E+00  0.0000E+00  0.7071E-01  0.7071E-01
    -10.303  0.0000E+00  0.0000E+00  0.7071E-01  0.7071E-01
    -10.144  0.0000E+00  0.0000E+00  0.7071E-01  0.7071E-01
     -9.985  0.0000E+00  0.0000E+00  0.7071E-01  0.7071E-01
     -9.826  0.0000E+00  0.0000E+00  0.7071E-01  0.7071E-01
     -9.666  0.0000E+00  0.0000E+00  0.7071E-01  0.7071E-01
     -9.507  0.0000E+00  0.0000E+00  0.7071E-01  0.7071E-01
     -9.348  0.0000E+00  0.0000E+00  0.7071E-01  0.7071E-01
     -9.189  0.0000E+00  0.0000E+00  0.7071E-01  0.7071E-01
     -9.029  0.6452E-02  0.6452E-02  0.7140E-01  0.7140E-01
     -8.870  0.1519E-01  0.1519E-01  0.7331E-01  0.7331E-01
     -8.711  0.1213E-01  0.1213E-01  0.7568E-01  0.7568E-01
     -8.552  0.9552E-02  0.9552E-02  0.7734E-01  0.7734E-01
     -8.393  0.1690E-01  0.1690E-01  0.7928E-01  0.7928E-01
     -8.233  0.0000E+00  0.0000E+00  0.8081E-01  0.8081E-01
     -8.074  0.0000E+00  0.0000E+00  0.8081E-01  0.8081E-01
     -7.915  0.0000E+00  0.0000E+00  0.8081E-01  0.8081E-01
     -7.756  0.2580E-01  0.2580E-01  0.8232E-01  0.8232E-01
     -7.596  0.3118E-01  0.3118E-01  0.8803E-01  0.8803E-01
     -7.437  0.5085E-02  0.5085E-02  0.9072E-01  0.9072E-01
     -7.278  0.1078E-01  0.1078E-01  0.9117E-01  0.9117E-01
     -7.119  0.4171E-01  0.4171E-01  0.9722E-01  0.9722E-01
     -6.959  0.0000E+00  0.0000E+00  0.1010E+00  0.1010E+00
     -6.800  0.0000E+00  0.0000E+00  0.1010E+00  0.1010E+00
     -6.641  0.2697E-01  0.2697E-01  0.1014E+00  0.1014E+00
     -6.482  0.9781E-02  0.9781E-02  0.1041E+00  0.1041E+00
     -6.323  0.9801E-02  0.9801E-02  0.1057E+00  0.1057E+00
     -6.163  0.1442E-01  0.1442E-01  0.1078E+00  0.1078E+00
     -6.004  0.0000E+00  0.0000E+00  0.1111E+00  0.1111E+00
     -5.845  0.0000E+00  0.0000E+00  0.1111E+00  0.1111E+00
     -5.686  0.0000E+00  0.0000E+00  0.1111E+00  0.1111E+00
     -5.526  0.0000E+00  0.0000E+00  0.1111E+00  0.1111E+00
     -5.367  0.0000E+00  0.0000E+00  0.1111E+00  0.1111E+00
     -5.208  0.0000E+00  0.0000E+00  0.1111E+00  0.1111E+00
     -5.049  0.0000E+00  0.0000E+00  0.1111E+00  0.1111E+00
     -4.890  0.0000E+00  0.0000E+00  0.1111E+00  0.1111E+00
     -4.730  0.0000E+00  0.0000E+00  0.1111E+00  0.1111E+00
     -4.571  0.0000E+00  0.0000E+00  0.1111E+00  0.1111E+00
     -4.412  0.8505E-02  0.8505E-02  0.1117E+00  0.1117E+00
     -4.253  0.1758E-01  0.1758E-01  0.1136E+00  0.1136E+00
     -4.093  0.2519E-01  0.2519E-01  0.1174E+00  0.1174E+00
     -3.934  0.8564E-02  0.8564E-02  0.1205E+00  0.1205E+00
     -3.775  0.0000E+00  0.0000E+00  0.1212E+00  0.1212E+00
     -3.616  0.0000E+00  0.0000E+00  0.1212E+00  0.1212E+00
     -3.456  0.0000E+00  0.0000E+00  0.1212E+00  0.1212E+00
     -3.297  0.4707E-02  0.4707E-02  0.1214E+00  0.1214E+00
     -3.138  0.6835E-01  0.6835E-01  0.1253E+00  0.1253E+00
     -2.979  0.1283E-01  0.1283E-01  0.1315E+00  0.1315E+00
     -2.820  0.5348E-01  0.5348E-01  0.1369E+00  0.1369E+00
     -2.660  0.5541E-03  0.5541E-03  0.1414E+00  0.1414E+00
     -2.501  0.4709E-01  0.4709E-01  0.1483E+00  0.1483E+00
     -2.342  0.2163E-01  0.2163E-01  0.1550E+00  0.1550E+00
     -2.183  0.2338E-01  0.2338E-01  0.1603E+00  0.1603E+00
     -2.023  0.4610E-01  0.4610E-01  0.1645E+00  0.1645E+00
     -1.864  0.1032E-01  0.1032E-01  0.1682E+00  0.1682E+00
     -1.705  0.2403E-01  0.2403E-01  0.1701E+00  0.1701E+00
     -1.546  0.0000E+00  0.0000E+00  0.1717E+00  0.1717E+00
     -1.386  0.0000E+00  0.0000E+00  0.1717E+00  0.1717E+00
     -1.227  0.0000E+00  0.0000E+00  0.1717E+00  0.1717E+00
     -1.068  0.0000E+00  0.0000E+00  0.1717E+00  0.1717E+00
     -0.909  0.0000E+00  0.0000E+00  0.1717E+00  0.1717E+00
     -0.750  0.0000E+00  0.0000E+00  0.1717E+00  0.1717E+00
     -0.590  0.0000E+00  0.0000E+00  0.1717E+00  0.1717E+00
     -0.431  0.0000E+00  0.0000E+00  0.1717E+00  0.1717E+00
     -0.272  0.1991E-01  0.1991E-01  0.1720E+00  0.1720E+00
     -0.113  0.5153E-02  0.5153E-02  0.1741E+00  0.1741E+00
      0.047  0.5154E-02  0.5154E-02  0.1749E+00  0.1749E+00
      0.206  0.5155E-02  0.5155E-02  0.1757E+00  0.1757E+00
      0.365  0.5162E-02  0.5162E-02  0.1765E+00  0.1765E+00
      0.524  0.5899E-02  0.5899E-02  0.1774E+00  0.1774E+00
      0.684  0.5904E-02  0.5904E-02  0.1784E+00  0.1784E+00
      0.843  0.5909E-02  0.5909E-02  0.1793E+00  0.1793E+00
      1.002  0.2547E-01  0.2547E-01  0.1816E+00  0.1816E+00
      1.161  0.0000E+00  0.0000E+00  0.1818E+00  0.1818E+00
      1.320  0.0000E+00  0.0000E+00  0.1818E+00  0.1818E+00
      1.480  0.0000E+00  0.0000E+00  0.1818E+00  0.1818E+00
      1.639  0.0000E+00  0.0000E+00  0.1818E+00  0.1818E+00
      1.798  0.0000E+00  0.0000E+00  0.1818E+00  0.1818E+00
      1.957  0.0000E+00  0.0000E+00  0.1818E+00  0.1818E+00
      2.117  0.0000E+00  0.0000E+00  0.1818E+00  0.1818E+00
      2.276  0.0000E+00  0.0000E+00  0.1818E+00  0.1818E+00
      2.435  0.3679E-02  0.3679E-02  0.1821E+00  0.1821E+00
      2.594  0.8862E-02  0.8862E-02  0.1830E+00  0.1830E+00
      2.754  0.1976E-01  0.1976E-01  0.1849E+00  0.1849E+00
      2.913  0.4195E-01  0.4195E-01  0.1907E+00  0.1907E+00
      3.072  0.2060E-01  0.2060E-01  0.1949E+00  0.1949E+00
      3.231  0.2627E-01  0.2627E-01  0.1994E+00  0.1994E+00
      3.390  0.2896E-01  0.2896E-01  0.2034E+00  0.2034E+00
      3.550  0.3673E-01  0.3673E-01  0.2079E+00  0.2079E+00
      3.709  0.2547E-01  0.2547E-01  0.2135E+00  0.2135E+00
      3.868  0.3002E-01  0.3002E-01  0.2178E+00  0.2178E+00
      4.027  0.1362E-01  0.1362E-01  0.2218E+00  0.2218E+00
      4.187  0.1716E-01  0.1716E-01  0.2236E+00  0.2236E+00
      4.346  0.3080E-01  0.3080E-01  0.2272E+00  0.2272E+00
      4.505  0.1521E-01  0.1521E-01  0.2314E+00  0.2314E+00
      4.664  0.2308E-01  0.2308E-01  0.2341E+00  0.2341E+00
      4.824  0.2498E-01  0.2498E-01  0.2377E+00  0.2377E+00
      4.983  0.2477E-01  0.2477E-01  0.2427E+00  0.2427E+00
      5.142  0.2716E-01  0.2716E-01  0.2464E+00  0.2464E+00
      5.301  0.2234E-01  0.2234E-01  0.2514E+00  0.2514E+00
      5.460  0.6051E-02  0.6051E-02  0.2527E+00  0.2527E+00
      5.620  0.5853E-01  0.5853E-01  0.2600E+00  0.2600E+00
      5.779  0.1773E-01  0.1773E-01  0.2631E+00  0.2631E+00
      5.938  0.5864E-01  0.5864E-01  0.2692E+00  0.2692E+00
      6.097  0.1420E-01  0.1420E-01  0.2731E+00  0.2731E+00
      6.257  0.4965E-01  0.4965E-01  0.2780E+00  0.2780E+00
      6.416  0.4846E-02  0.4846E-02  0.2826E+00  0.2826E+00
      6.575  0.1769E-01  0.1769E-01  0.2840E+00  0.2840E+00
      6.734  0.3631E-01  0.3631E-01  0.2880E+00  0.2880E+00
      6.894  0.1749E-01  0.1749E-01  0.2928E+00  0.2928E+00
      7.053  0.2628E-01  0.2628E-01  0.2961E+00  0.2961E+00
      7.212  0.3069E-01  0.3069E-01  0.3013E+00  0.3013E+00
      7.371  0.1911E-01  0.1911E-01  0.3045E+00  0.3045E+00
      7.530  0.3219E-01  0.3219E-01  0.3089E+00  0.3089E+00
      7.690  0.9925E-02  0.9925E-02  0.3126E+00  0.3126E+00
      7.849  0.8158E-02  0.8158E-02  0.3134E+00  0.3134E+00
      8.008  0.2864E-01  0.2864E-01  0.3175E+00  0.3175E+00
      8.167  0.1617E-01  0.1617E-01  0.3213E+00  0.3213E+00
      8.327  0.2882E-02  0.2882E-02  0.3232E+00  0.3232E+00
      8.486  0.0000E+00  0.0000E+00  0.3232E+00  0.3232E+00
      8.645  0.0000E+00  0.0000E+00  0.3232E+00  0.3232E+00
      8.804  0.0000E+00  0.0000E+00  0.3232E+00  0.3232E+00
      8.964  0.0000E+00  0.0000E+00  0.3232E+00  0.3232E+00
      9.123  0.0000E+00  0.0000E+00  0.3232E+00  0.3232E+00
      9.282  0.0000E+00  0.0000E+00  0.3232E+00  0.3232E+00
      9.441  0.0000E+00  0.0000E+00  0.3232E+00  0.3232E+00
      9.600  0.0000E+00  0.0000E+00  0.3232E+00  0.3232E+00
      9.760  0.0000E+00  0.0000E+00  0.3232E+00  0.3232E+00
      9.919  0.0000E+00  0.0000E+00  0.3232E+00  0.3232E+00
     10.078  0.0000E+00  0.0000E+00  0.3232E+00  0.3232E+00
     10.237  0.0000E+00  0.0000E+00  0.3232E+00  0.3232E+00
     10.397  0.0000E+00  0.0000E+00  0.3232E+00  0.3232E+00
     10.556  0.0000E+00  0.0000E+00  0.3232E+00  0.3232E+00
     10.55580110    -37.21320059  301      0.41071197      1.00000000
    -37.213  0.0000E+00  0.0000E+00  0.0000E+00  0.0000E+00  0.0000E+00  0.0000E+00  0.0000E+00  0.0000E+00  0.0000E+00  0.0000E+00  0.0000E+00  0.0000E+00  0.0000E+00  0.0000E+00  0.0000E+00  0.0000E+00  0.0000E+00  0.0000E+00
    -37.054  0.0000E+00  0.0000E+00  0.0000E+00  0.0000E+00  0.0000E+00  0.0000E+00  0.0000E+00  0.0000E+00  0.0000E+00  0.0000E+00  0.0000E+00  0.0000E+00  0.0000E+00  0.0000E+00  0.0000E+00  0.0000E+00  0.0000E+00  0.0000E+00
    -36.895  0.0000E+00  0.0000E+00  0.0000E+00  0.0000E+00  0.0000E+00  0.0000E+00  0.0000E+00  0.0000E+00  0.0000E+00  0.0000E+00  0.0000E+00  0.0000E+00  0.0000E+00  0.0000E+00  0.0000E+00  0.0000E+00  0.0000E+00  0.0000E+00
    -36.736  0.0000E+00  0.0000E+00  0.0000E+00  0.0000E+00  0.0000E+00  0.0000E+00  0.0000E+00  0.0000E+00  0.0000E+00  0.0000E+00  0.0000E+00  0.0000E+00  0.0000E+00  0.0000E+00  0.0000E+00  0.0000E+00  0.0000E+00  0.0000E+00
    -36.576  0.0000E+00  0.0000E+00  0.0000E+00  0.0000E+00  0.0000E+00  0.0000E+00  0.0000E+00  0.0000E+00  0.0000E+00  0.0000E+00  0.0000E+00  0.0000E+00  0.0000E+00  0.0000E+00  0.0000E+00  0.0000E+00  0.0000E+00  0.0000E+00
    -36.417  0.0000E+00  0.0000E+00  0.0000E+00  0.0000E+00  0.0000E+00  0.0000E+00  0.0000E+00  0.0000E+00  0.0000E+00  0.0000E+00  0.0000E+00  0.0000E+00  0.0000E+00  0.0000E+00  0.0000E+00  0.0000E+00  0.0000E+00  0.0000E+00
    -36.258  0.0000E+00  0.0000E+00  0.0000E+00  0.0000E+00  0.0000E+00  0.0000E+00  0.0000E+00  0.0000E+00  0.0000E+00  0.0000E+00  0.0000E+00  0.0000E+00  0.0000E+00  0.0000E+00  0.0000E+00  0.0000E+00  0.0000E+00  0.0000E+00
    -36.099  0.0000E+00  0.0000E+00  0.0000E+00  0.0000E+00  0.0000E+00  0.0000E+00  0.0000E+00  0.0000E+00  0.0000E+00  0.0000E+00  0.0000E+00  0.0000E+00  0.0000E+00  0.0000E+00  0.0000E+00  0.0000E+00  0.0000E+00  0.0000E+00
    -35.939  0.0000E+00  0.0000E+00  0.0000E+00  0.0000E+00  0.0000E+00  0.0000E+00  0.0000E+00  0.0000E+00  0.0000E+00  0.0000E+00  0.0000E+00  0.0000E+00  0.0000E+00  0.0000E+00  0.0000E+00  0.0000E+00  0.0000E+00  0.0000E+00
    -35.780  0.0000E+00  0.0000E+00  0.0000E+00  0.0000E+00  0.0000E+00  0.0000E+00  0.0000E+00  0.0000E+00  0.0000E+00  0.0000E+00  0.0000E+00  0.0000E+00  0.0000E+00  0.0000E+00  0.0000E+00  0.0000E+00  0.0000E+00  0.0000E+00
    -35.621  0.0000E+00  0.0000E+00  0.0000E+00  0.0000E+00  0.0000E+00  0.0000E+00  0.0000E+00  0.0000E+00  0.0000E+00  0.0000E+00  0.0000E+00  0.0000E+00  0.0000E+00  0.0000E+00  0.0000E+00  0.0000E+00  0.0000E+00  0.0000E+00
    -35.462  0.0000E+00  0.0000E+00  0.0000E+00  0.0000E+00  0.0000E+00  0.0000E+00  0.0000E+00  0.0000E+00  0.0000E+00  0.0000E+00  0.0000E+00  0.0000E+00  0.0000E+00  0.0000E+00  0.0000E+00  0.0000E+00  0.0000E+00  0.0000E+00
    -35.302  0.0000E+00  0.0000E+00  0.0000E+00  0.0000E+00  0.0000E+00  0.0000E+00  0.0000E+00  0.0000E+00  0.0000E+00  0.0000E+00  0.0000E+00  0.0000E+00  0.0000E+00  0.0000E+00  0.0000E+00  0.0000E+00  0.0000E+00  0.0000E+00
    -35.143  0.0000E+00  0.0000E+00  0.0000E+00  0.0000E+00  0.0000E+00  0.0000E+00  0.0000E+00  0.0000E+00  0.0000E+00  0.0000E+00  0.0000E+00  0.0000E+00  0.0000E+00  0.0000E+00  0.0000E+00  0.0000E+00  0.0000E+00  0.0000E+00
    -34.984  0.0000E+00  0.0000E+00  0.0000E+00  0.0000E+00  0.0000E+00  0.0000E+00  0.0000E+00  0.0000E+00  0.0000E+00  0.0000E+00  0.0000E+00  0.0000E+00  0.0000E+00  0.0000E+00  0.0000E+00  0.0000E+00  0.0000E+00  0.0000E+00
    -34.825  0.0000E+00  0.0000E+00  0.0000E+00  0.0000E+00  0.0000E+00  0.0000E+00  0.0000E+00  0.0000E+00  0.0000E+00  0.0000E+00  0.0000E+00  0.0000E+00  0.0000E+00  0.0000E+00  0.0000E+00  0.0000E+00  0.0000E+00  0.0000E+00
    -34.666  0.0000E+00  0.0000E+00  0.0000E+00  0.0000E+00  0.0000E+00  0.0000E+00  0.0000E+00  0.0000E+00  0.0000E+00  0.0000E+00  0.0000E+00  0.0000E+00  0.0000E+00  0.0000E+00  0.0000E+00  0.0000E+00  0.0000E+00  0.0000E+00
    -34.506  0.0000E+00  0.0000E+00  0.0000E+00  0.0000E+00  0.0000E+00  0.0000E+00  0.0000E+00  0.0000E+00  0.0000E+00  0.0000E+00  0.0000E+00  0.0000E+00  0.0000E+00  0.0000E+00  0.0000E+00  0.0000E+00  0.0000E+00  0.0000E+00
    -34.347  0.0000E+00  0.0000E+00  0.0000E+00  0.0000E+00  0.0000E+00  0.0000E+00  0.0000E+00  0.0000E+00  0.0000E+00  0.0000E+00  0.0000E+00  0.0000E+00  0.0000E+00  0.0000E+00  0.0000E+00  0.0000E+00  0.0000E+00  0.0000E+00
    -34.188  0.0000E+00  0.0000E+00  0.0000E+00  0.0000E+00  0.0000E+00  0.0000E+00  0.0000E+00  0.0000E+00  0.0000E+00  0.0000E+00  0.0000E+00  0.0000E+00  0.0000E+00  0.0000E+00  0.0000E+00  0.0000E+00  0.0000E+00  0.0000E+00
    -34.029  0.0000E+00  0.0000E+00  0.0000E+00  0.0000E+00  0.0000E+00  0.0000E+00  0.0000E+00  0.0000E+00  0.0000E+00  0.0000E+00  0.0000E+00  0.0000E+00  0.0000E+00  0.0000E+00  0.0000E+00  0.0000E+00  0.0000E+00  0.0000E+00
    -33.869  0.0000E+00  0.0000E+00  0.0000E+00  0.0000E+00  0.0000E+00  0.0000E+00  0.0000E+00  0.0000E+00  0.0000E+00  0.0000E+00  0.0000E+00  0.0000E+00  0.0000E+00  0.0000E+00  0.0000E+00  0.0000E+00  0.0000E+00  0.0000E+00
    -33.710  0.0000E+00  0.0000E+00  0.0000E+00  0.0000E+00  0.0000E+00  0.0000E+00  0.0000E+00  0.0000E+00  0.0000E+00  0.0000E+00  0.0000E+00  0.0000E+00  0.0000E+00  0.0000E+00  0.0000E+00  0.0000E+00  0.0000E+00  0.0000E+00
    -33.551  0.0000E+00  0.0000E+00  0.0000E+00  0.0000E+00  0.0000E+00  0.0000E+00  0.0000E+00  0.0000E+00  0.0000E+00  0.0000E+00  0.0000E+00  0.0000E+00  0.0000E+00  0.0000E+00  0.0000E+00  0.0000E+00  0.0000E+00  0.0000E+00
    -33.392  0.0000E+00  0.0000E+00  0.0000E+00  0.0000E+00  0.0000E+00  0.0000E+00  0.0000E+00  0.0000E+00  0.0000E+00  0.0000E+00  0.0000E+00  0.0000E+00  0.0000E+00  0.0000E+00  0.0000E+00  0.0000E+00  0.0000E+00  0.0000E+00
    -33.232  0.0000E+00  0.0000E+00  0.0000E+00  0.0000E+00  0.0000E+00  0.0000E+00  0.0000E+00  0.0000E+00  0.0000E+00  0.0000E+00  0.0000E+00  0.0000E+00  0.0000E+00  0.0000E+00  0.0000E+00  0.0000E+00  0.0000E+00  0.0000E+00
    -33.073  0.0000E+00  0.0000E+00  0.0000E+00  0.0000E+00  0.0000E+00  0.0000E+00  0.0000E+00  0.0000E+00  0.0000E+00  0.0000E+00  0.0000E+00  0.0000E+00  0.0000E+00  0.0000E+00  0.0000E+00  0.0000E+00  0.0000E+00  0.0000E+00
    -32.914  0.0000E+00  0.0000E+00  0.0000E+00  0.0000E+00  0.0000E+00  0.0000E+00  0.0000E+00  0.0000E+00  0.0000E+00  0.0000E+00  0.0000E+00  0.0000E+00  0.0000E+00  0.0000E+00  0.0000E+00  0.0000E+00  0.0000E+00  0.0000E+00
    -32.755  0.0000E+00  0.0000E+00  0.0000E+00  0.0000E+00  0.0000E+00  0.0000E+00  0.0000E+00  0.0000E+00  0.0000E+00  0.0000E+00  0.0000E+00  0.0000E+00  0.0000E+00  0.0000E+00  0.0000E+00  0.0000E+00  0.0000E+00  0.0000E+00
    -32.596  0.0000E+00  0.0000E+00  0.0000E+00  0.0000E+00  0.0000E+00  0.0000E+00  0.0000E+00  0.0000E+00  0.0000E+00  0.0000E+00  0.0000E+00  0.0000E+00  0.0000E+00  0.0000E+00  0.0000E+00  0.0000E+00  0.0000E+00  0.0000E+00
    -32.436  0.0000E+00  0.0000E+00  0.0000E+00  0.0000E+00  0.0000E+00  0.0000E+00  0.0000E+00  0.0000E+00  0.0000E+00  0.0000E+00  0.0000E+00  0.0000E+00  0.0000E+00  0.0000E+00  0.0000E+00  0.0000E+00  0.0000E+00  0.0000E+00
    -32.277  0.0000E+00  0.0000E+00  0.0000E+00  0.0000E+00  0.0000E+00  0.0000E+00  0.0000E+00  0.0000E+00  0.0000E+00  0.0000E+00  0.0000E+00  0.0000E+00  0.0000E+00  0.0000E+00  0.0000E+00  0.0000E+00  0.0000E+00  0.0000E+00
    -32.118  0.0000E+00  0.0000E+00  0.0000E+00  0.0000E+00  0.0000E+00  0.0000E+00  0.0000E+00  0.0000E+00  0.0000E+00  0.0000E+00  0.0000E+00  0.0000E+00  0.0000E+00  0.0000E+00  0.0000E+00  0.0000E+00  0.0000E+00  0.0000E+00
    -31.959  0.0000E+00  0.0000E+00  0.0000E+00  0.0000E+00  0.0000E+00  0.0000E+00  0.0000E+00  0.0000E+00  0.0000E+00  0.0000E+00  0.0000E+00  0.0000E+00  0.0000E+00  0.0000E+00  0.0000E+00  0.0000E+00  0.0000E+00  0.0000E+00
    -31.799  0.0000E+00  0.0000E+00  0.0000E+00  0.0000E+00  0.0000E+00  0.0000E+00  0.0000E+00  0.0000E+00  0.0000E+00  0.0000E+00  0.0000E+00  0.0000E+00  0.0000E+00  0.0000E+00  0.0000E+00  0.0000E+00  0.0000E+00  0.0000E+00
    -31.640  0.0000E+00  0.0000E+00  0.0000E+00  0.0000E+00  0.0000E+00  0.0000E+00  0.0000E+00  0.0000E+00  0.0000E+00  0.0000E+00  0.0000E+00  0.0000E+00  0.0000E+00  0.0000E+00  0.0000E+00  0.0000E+00  0.0000E+00  0.0000E+00
    -31.481  0.0000E+00  0.0000E+00  0.0000E+00  0.0000E+00  0.0000E+00  0.0000E+00  0.0000E+00  0.0000E+00  0.0000E+00  0.0000E+00  0.0000E+00  0.0000E+00  0.0000E+00  0.0000E+00  0.0000E+00  0.0000E+00  0.0000E+00  0.0000E+00
    -31.322  0.0000E+00  0.0000E+00  0.0000E+00  0.0000E+00  0.0000E+00  0.0000E+00  0.0000E+00  0.0000E+00  0.0000E+00  0.0000E+00  0.0000E+00  0.0000E+00  0.0000E+00  0.0000E+00  0.0000E+00  0.0000E+00  0.0000E+00  0.0000E+00
    -31.162  0.0000E+00  0.0000E+00  0.0000E+00  0.0000E+00  0.0000E+00  0.0000E+00  0.0000E+00  0.0000E+00  0.0000E+00  0.0000E+00  0.0000E+00  0.0000E+00  0.0000E+00  0.0000E+00  0.0000E+00  0.0000E+00  0.0000E+00  0.0000E+00
    -31.003  0.0000E+00  0.0000E+00  0.0000E+00  0.0000E+00  0.0000E+00  0.0000E+00  0.0000E+00  0.0000E+00  0.0000E+00  0.0000E+00  0.0000E+00  0.0000E+00  0.0000E+00  0.0000E+00  0.0000E+00  0.0000E+00  0.0000E+00  0.0000E+00
    -30.844  0.0000E+00  0.0000E+00  0.0000E+00  0.0000E+00  0.0000E+00  0.0000E+00  0.0000E+00  0.0000E+00  0.0000E+00  0.0000E+00  0.0000E+00  0.0000E+00  0.0000E+00  0.0000E+00  0.0000E+00  0.0000E+00  0.0000E+00  0.0000E+00
    -30.685  0.0000E+00  0.0000E+00  0.0000E+00  0.0000E+00  0.0000E+00  0.0000E+00  0.0000E+00  0.0000E+00  0.0000E+00  0.0000E+00  0.0000E+00  0.0000E+00  0.0000E+00  0.0000E+00  0.0000E+00  0.0000E+00  0.0000E+00  0.0000E+00
    -30.526  0.0000E+00  0.0000E+00  0.0000E+00  0.0000E+00  0.0000E+00  0.0000E+00  0.0000E+00  0.0000E+00  0.0000E+00  0.0000E+00  0.0000E+00  0.0000E+00  0.0000E+00  0.0000E+00  0.0000E+00  0.0000E+00  0.0000E+00  0.0000E+00
    -30.366  0.0000E+00  0.0000E+00  0.0000E+00  0.0000E+00  0.0000E+00  0.0000E+00  0.0000E+00  0.0000E+00  0.0000E+00  0.0000E+00  0.0000E+00  0.0000E+00  0.0000E+00  0.0000E+00  0.0000E+00  0.0000E+00  0.0000E+00  0.0000E+00
    -30.207  0.0000E+00  0.0000E+00  0.0000E+00  0.0000E+00  0.0000E+00  0.0000E+00  0.0000E+00  0.0000E+00  0.0000E+00  0.0000E+00  0.0000E+00  0.0000E+00  0.0000E+00  0.0000E+00  0.0000E+00  0.0000E+00  0.0000E+00  0.0000E+00
    -30.048  0.0000E+00  0.0000E+00  0.0000E+00  0.0000E+00  0.0000E+00  0.0000E+00  0.0000E+00  0.0000E+00  0.0000E+00  0.0000E+00  0.0000E+00  0.0000E+00  0.0000E+00  0.0000E+00  0.0000E+00  0.0000E+00  0.0000E+00  0.0000E+00
    -29.889  0.0000E+00  0.0000E+00  0.0000E+00  0.0000E+00  0.0000E+00  0.0000E+00  0.0000E+00  0.0000E+00  0.0000E+00  0.0000E+00  0.0000E+00  0.0000E+00  0.0000E+00  0.0000E+00  0.0000E+00  0.0000E+00  0.0000E+00  0.0000E+00
    -29.729  0.0000E+00  0.0000E+00  0.0000E+00  0.0000E+00  0.0000E+00  0.0000E+00  0.0000E+00  0.0000E+00  0.0000E+00  0.0000E+00  0.0000E+00  0.0000E+00  0.0000E+00  0.0000E+00  0.0000E+00  0.0000E+00  0.0000E+00  0.0000E+00
    -29.570  0.0000E+00  0.0000E+00  0.0000E+00  0.0000E+00  0.0000E+00  0.0000E+00  0.0000E+00  0.0000E+00  0.0000E+00  0.0000E+00  0.0000E+00  0.0000E+00  0.0000E+00  0.0000E+00  0.0000E+00  0.0000E+00  0.0000E+00  0.0000E+00
    -29.411  0.0000E+00  0.0000E+00  0.0000E+00  0.0000E+00  0.0000E+00  0.0000E+00  0.0000E+00  0.0000E+00  0.0000E+00  0.0000E+00  0.0000E+00  0.0000E+00  0.0000E+00  0.0000E+00  0.0000E+00  0.0000E+00  0.0000E+00  0.0000E+00
    -29.252  0.0000E+00  0.0000E+00  0.0000E+00  0.0000E+00  0.0000E+00  0.0000E+00  0.0000E+00  0.0000E+00  0.0000E+00  0.0000E+00  0.0000E+00  0.0000E+00  0.0000E+00  0.0000E+00  0.0000E+00  0.0000E+00  0.0000E+00  0.0000E+00