    8    8   60    1
  0.1027042E+02  0.3155307E-09  0.4106628E-09  0.8716665E-09  0.5000000E-15
  1.000000000000000E-004
  CAR 
 unknown system                          
     27    553     20
 
  0.3742002E-15  0.3742002E-15  0.3742002E-15  0.9049774E-03
    1      -33.328338   1.000000
    2      -28.854637   1.000000
    3      -28.831927   1.000000
    4      -28.581690   1.000000
    5      -15.477797   1.000000
    6      -14.699971   1.000000
    7      -14.674786   1.000000
    8       -6.601654   1.000000
    9       -5.238746   1.000000
   10       -2.734924   1.000000
   11       -1.615223   1.000000
   12       -0.987947   1.000000
   13        1.749722   1.000000
   14        3.195886   0.000000
   15        3.487344   0.000000
   16        3.705983   0.000000
   17        4.599261   0.000000
   18        5.072333   0.000000
   19        7.172777   0.000000
   20        7.892253   0.000000
 
  0.5882353E-01  0.3699298E-15  0.3747003E-15  0.1809955E-02
    1      -33.316313   1.000000
    2      -28.852903   1.000000
    3      -28.840273   1.000000
    4      -28.597269   1.000000
    5      -15.460202   1.000000
    6      -14.740916   1.000000
    7      -14.739568   1.000000
    8       -6.521137   1.000000
    9       -5.190004   1.000000
   10       -2.630910   1.000000
   11       -1.563255   1.000000
   12       -1.031007   1.000000
   13        1.759738   1.000000
   14        3.060367   0.000004
   15        3.624910   0.000000
   16        3.845782   0.000000
   17        4.317931   0.000000
   18        5.087278   0.000000
   19        7.087509   0.000000
   20        8.067641   0.000000
 
  0.1176471E+00  0.3569194E-15  0.3747003E-15  0.1809955E-02
    1      -33.281756   1.000000
    2      -28.873573   1.000000
    3      -28.838609   1.000000
    4      -28.641579   1.000000
    5      -15.409951   1.000000
    6      -14.922683   1.000000
    7      -14.851126   1.000000
    8       -6.302691   1.000000
    9       -5.032619   1.000000
   10       -2.375228   1.000000
   11       -1.436660   1.000000
   12       -1.136396   1.000000
   13        1.808636   1.000000
   14        2.738018   0.029787
   15        3.663352   0.000000
   16        4.070758   0.000000
   17        4.201587   0.000000
   18        5.175602   0.000000
   19        6.782495   0.000000
   20        7.463075   0.000000
 
  0.1764706E+00  0.3981190E-15  0.3608225E-15  0.1809955E-02
    1      -33.229000   1.000000
    2      -28.916608   1.000000
    3      -28.824960   1.000000
    4      -28.707209   1.000000
    5      -15.334019   1.000000
    6      -15.179637   1.000000
    7      -15.014474   1.000000
    8       -6.002402   1.000000
    9       -4.756345   1.000000
   10       -2.114727   1.000000
   11       -1.303288   1.000000
   12       -1.243107   1.000000
   13        1.901673   1.000000
   14        2.468003   0.995415
   15        2.944735   0.001365
   16        4.578977   0.000000
   17        4.779407   0.000000
   18        5.499573   0.000000
   19        6.325032   0.000000
   20        6.382256   0.000000
 
  0.2352941E+00  0.3651593E-15  0.3608225E-15  0.1809955E-02
    1      -33.164820   1.000000
    2      -28.968526   1.000000
    3      -28.817410   1.000000
    4      -28.774633   1.000000
    5      -15.464515   1.000000
    6      -15.241222   1.000000
    7      -15.202538   1.000000
    8       -5.676131   1.000000
    9       -4.368320   1.000000
   10       -2.021640   1.000000
   11       -1.324527   1.000000
   12       -1.223558   1.000000
   13        1.892047   1.000000
   14        2.435912   0.997664
   15        2.499708   0.996687
   16        4.771332   0.000000
   17        5.614472   0.000000
   18        5.712207   0.000000
   19        5.956910   0.000000
   20        6.107185   0.000000
 
  0.2941176E+00  0.3660267E-15  0.3747003E-15  0.1809955E-02
    1      -33.097683   1.000000
    2      -29.021861   1.000000
    3      -28.873636   1.000000
    4      -28.778277   1.000000
    5      -15.733841   1.000000
    6      -15.390174   1.000000
    7      -15.144452   1.000000
    8       -5.363213   1.000000
    9       -3.945545   1.000000
   10       -2.091791   1.000000
   11       -1.422121   1.000000
   12       -1.280359   1.000000
   13        1.628298   1.000000
   14        2.569698   1.044416
   15        2.712209   0.201329
   16        4.585120   0.000000
   17        5.525959   0.000000
   18        5.971426   0.000000
   19        6.419867   0.000000
   20        6.679070   0.000000
 
  0.3529412E+00  0.3920475E-15  0.4163336E-15  0.1809955E-02
    1      -33.036702   1.000000
    2      -29.069294   1.000000
    3      -28.941004   1.000000
    4      -28.762912   1.000000
    5      -15.958091   1.000000
    6      -15.551338   1.000000
    7      -15.057765   1.000000
    8       -5.082949   1.000000
    9       -3.595095   1.000000
   10       -2.198286   1.000000
   11       -1.617215   1.000000
   12       -1.411073   1.000000
   13        1.507137   1.000000
   14        2.773201  -0.050867
   15        3.219529   0.000000
   16        4.453969   0.000000
   17        5.290226   0.000000
   18        6.302979   0.000000
   19        6.600016   0.000000
   20        6.983980   0.000000
 
  0.4117647E+00  0.4978656E-15  0.4163336E-15  0.1809955E-02
    1      -32.990398   1.000000
    2      -29.104682   1.000000
    3      -28.991681   1.000000
    4      -28.750163   1.000000
    5      -16.117076   1.000000
    6      -15.668739   1.000000
    7      -14.992102   1.000000
    8       -4.864844   1.000000
    9       -3.391216   1.000000
   10       -2.262924   1.000000
   11       -1.832771   1.000000
   12       -1.541071   1.000000
   13        1.595731   1.000000
   14        2.944486   0.001376
   15        3.792925   0.000000
   16        4.413861   0.000000
   17        5.195914   0.000000
   18        6.236378   0.000000
   19        6.394035   0.000000
   20        6.613994   0.000000
 
  0.4705882E+00  0.4128642E-15  0.4163336E-15  0.1809955E-02
    1      -32.965415   1.000000
    2      -29.123419   1.000000
    3      -29.018463   1.000000
    4      -28.743134   1.000000
    5      -16.198796   1.000000
    6      -15.730278   1.000000
    7      -14.956708   1.000000
    8       -4.739852   1.000000
    9       -3.317381   1.000000
   10       -2.278291   1.000000
   11       -1.967070   1.000000
   12       -1.616286   1.000000
   13        1.754939   1.000000
   14        2.976881   0.000375
   15        4.187984   0.000000
   16        4.431062   0.000000
   17        5.254119   0.000000
   18        5.987689   0.000000
   19        6.038439   0.000000
   20        6.536866   0.000000
 
  0.3749442E-15  0.7692308E-01  0.3747003E-15  0.1809955E-02
    1      -33.317503   1.000000
    2      -28.853334   1.000000
    3      -28.840061   1.000000
    4      -28.594855   1.000000
    5      -15.461195   1.000000
    6      -14.796597   1.000000
    7      -14.680716   1.000000
    8       -6.525105   1.000000
    9       -5.175745   1.000000
   10       -2.638199   1.000000
   11       -1.608323   1.000000
   12       -1.011229   1.000000
   13        1.727461   1.000000
   14        3.107395   0.000000
   15        3.555060   0.000000
   16        3.809606   0.000000
   17        4.466550   0.000000
   18        5.056916   0.000000
   19        7.134906   0.000000
   20        7.969515   0.000000
 
  0.5882353E-01  0.7692308E-01  0.3677614E-15  0.1809955E-02
    1      -33.321180   1.000000
    2      -28.854271   1.000000
    3      -28.837771   1.000000
    4      -28.589342   1.000000
    5      -15.466576   1.000000
    6      -14.757255   1.000000
    7      -14.688383   1.000000
    8       -6.548391   1.000000
    9       -5.198476   1.000000
   10       -2.660837   1.000000
   11       -1.621703   1.000000
   12       -1.000895   1.000000
   13        1.744170   1.000000
   14        3.102958   0.000000
   15        3.552972   0.000000
   16        3.755783   0.000000
   17        4.555639   0.000000
   18        5.033767   0.000000
   19        7.160169   0.000000
   20        7.938243   0.000000
 
  0.1176471E+00  0.7692308E-01  0.3608225E-15  0.1809955E-02
    1      -33.301628   1.000000
    2      -28.864167   1.000000
    3      -28.842201   1.000000
    4      -28.610695   1.000000
    5      -15.438023   1.000000
    6      -14.919326   1.000000
    7      -14.693449   1.000000
    8       -6.417568   1.000000
    9       -5.121171   1.000000
   10       -2.502489   1.000000
   11       -1.540629   1.000000
   12       -1.066677   1.000000
   13        1.753364   1.000000
   14        2.988227   0.000221
   15        3.666195   0.000000
   16        3.963490   0.000000
   17        4.148218   0.000000
   18        5.065356   0.000000
   19        7.167004   0.000000
   20        8.109512   0.000000
 
  0.1764706E+00  0.7692308E-01  0.3608225E-15  0.1809955E-02
    1      -33.261312   1.000000
    2      -28.901250   1.000000
    3      -28.832489   1.000000
    4      -28.656423   1.000000
    5      -15.379397   1.000000
    6      -15.151420   1.000000
    7      -14.792158   1.000000
    8       -6.171919   1.000000
    9       -4.928606   1.000000
   10       -2.251747   1.000000
   11       -1.413259   1.000000
   12       -1.161207   1.000000
   13        1.787782   1.000000
   14        2.708772   0.231242
   15        3.463904   0.000000
   16        4.094461   0.000000
   17        4.315733   0.000000
   18        5.281377   0.000000
   19        6.879589   0.000000
   20        7.163990   0.000000
 
  0.2352941E+00  0.7692308E-01  0.3469447E-15  0.1809955E-02
    1      -33.205365   1.000000
    2      -28.952074   1.000000
    3      -28.817916   1.000000
    4      -28.719762   1.000000
    5      -15.413444   1.000000
    6      -15.298564   1.000000
    7      -14.961271   1.000000
    8       -5.867998   1.000000
    9       -4.612026   1.000000
   10       -2.068083   1.000000
   11       -1.357257   1.000000
   12       -1.189118   1.000000
   13        1.871412   1.000000
   14        2.439779   0.997398
   15        2.879553   0.004872
   16        4.557141   0.000000
   17        4.746035   0.000000
   18        5.667923   0.000000
   19        6.344258   0.000000
   20        6.511291   0.000000
 
  0.2941176E+00  0.7692308E-01  0.3885781E-15  0.1809955E-02
    1      -33.141039   1.000000
    2      -29.006734   1.000000
    3      -28.815303   1.000000
    4      -28.778472   1.000000
    5      -15.667469   1.000000
    6      -15.209058   1.000000
    7      -15.164168   1.000000
    8       -5.553366   1.000000
    9       -4.201381   1.000000
   10       -2.053154   1.000000
   11       -1.389819   1.000000
   12       -1.210897   1.000000
   13        1.895254   1.000000
   14        2.201567   1.000000
   15        2.781553  -0.051162
   16        4.641866   0.000000
   17        5.316915   0.000000
   18        5.717080   0.000000
   19        6.186037   0.000000
   20        6.687908   0.000000
 
  0.3529412E+00  0.7692308E-01  0.3608225E-15  0.1809955E-02
    1      -33.076924   1.000000
    2      -29.056411   1.000000
    3      -28.877324   1.000000
    4      -28.773515   1.000000
    5      -15.884688   1.000000
    6      -15.376840   1.000000
    7      -15.113433   1.000000
    8       -5.256144   1.000000
    9       -3.788417   1.000000
   10       -2.134554   1.000000
   11       -1.487775   1.000000
   12       -1.352824   1.000000
   13        1.640987   1.000000
   14        2.450210   0.996629
   15        2.994696   0.000161
   16        4.516137   0.000000
   17        5.440839   0.000000
   18        6.056404   0.000000
   19        6.436132   0.000000
   20        6.908943   0.000000
 
  0.4117647E+00  0.7692308E-01  0.4440892E-15  0.1809955E-02
    1      -33.021812   1.000000
    2      -29.094334   1.000000
    3      -28.943188   1.000000
    4      -28.759094   1.000000
    5      -16.047488   1.000000
    6      -15.557698   1.000000
    7      -15.035414   1.000000
    8       -5.003421   1.000000
    9       -3.481026   1.000000
   10       -2.219381   1.000000
   11       -1.661743   1.000000
   12       -1.531140   1.000000
   13        1.563899   1.000000
   14        2.732043   0.060540
   15        3.413319   0.000000
   16        4.459768   0.000000
   17        5.252764   0.000000
   18        6.366049   0.000000
   19        6.551222   0.000000
   20        6.976304   0.000000
 
  0.4705882E+00  0.7692308E-01  0.3885781E-15  0.1809955E-02
    1      -32.983450   1.000000
    2      -29.116640   1.000000
    3      -28.992214   1.000000
    4      -28.748468   1.000000
    5      -16.148459   1.000000
    6      -15.684750   1.000000
    7      -14.981229   1.000000
    8       -4.818437   1.000000
    9       -3.325303   1.000000
   10       -2.261202   1.000000
   11       -1.844638   1.000000
   12       -1.644786   1.000000
   13        1.660657   1.000000
   14        2.893380   0.004704
   15        3.882773   0.000000
   16        4.470439   0.000000
   17        5.125311   0.000000
   18        6.040443   0.000000
   19        6.512636   0.000000
   20        6.750924   0.000000
 
 -0.4705882E+00  0.7692308E-01  0.3608225E-15  0.1809955E-02
    1      -32.967339   1.000000
    2      -29.123677   1.000000
    3      -29.015000   1.000000
    4      -28.743846   1.000000
    5      -16.188582   1.000000
    6      -15.737848   1.000000
    7      -14.958442   1.000000
    8       -4.740827   1.000000
    9       -3.280726   1.000000
   10       -2.269324   1.000000
   11       -1.932219   1.000000
   12       -1.690182   1.000000
   13        1.783024   1.000000
   14        2.881956   0.004923
   15        4.126405   0.000000
   16        4.510243   0.000000
   17        5.094650   0.000000
   18        5.881818   0.000000
   19        6.290903   0.000000
   20        6.745118   0.000000
 
 -0.4117647E+00  0.7692308E-01  0.4440892E-15  0.1809955E-02
    1      -32.975833   1.000000
    2      -29.117655   1.000000
    3      -29.005475   1.000000
    4      -28.746174   1.000000
    5      -16.169617   1.000000
    6      -15.707642   1.000000
    7      -14.970430   1.000000
    8       -4.780404   1.000000
    9       -3.304373   1.000000
   10       -2.267221   1.000000
   11       -1.885502   1.000000
   12       -1.660248   1.000000
   13        1.744316   1.000000
   14        2.866333   0.003694
   15        3.945070   0.000000
   16        4.436534   0.000000
   17        5.231562   0.000000
   18        5.935879   0.000000
   19        6.309938   0.000000
   20        6.788245   0.000000
 
 -0.3529412E+00  0.7692308E-01  0.3885781E-15  0.1809955E-02
    1      -33.007688   1.000000
    2      -29.098147   1.000000
    3      -28.966190   1.000000
    4      -28.754882   1.000000
    5      -16.089550   1.000000
    6      -15.600030   1.000000
    7      -15.015315   1.000000
    8       -4.931180   1.000000
    9       -3.418011   1.000000
   10       -2.240637   1.000000
   11       -1.731390   1.000000
   12       -1.554921   1.000000
   13        1.620063   1.000000
   14        2.788593  -0.048196
   15        3.493657   0.000000
   16        4.396026   0.000000
   17        5.334191   0.000000
   18        6.098602   0.000000
   19        6.611388   0.000000
   20        6.948962   0.000000
 
 -0.2941176E+00  0.7692308E-01  0.4163336E-15  0.1809955E-02
    1      -33.058313   1.000000
    2      -29.063748   1.000000
    3      -28.905909   1.000000
    4      -28.768266   1.000000
    5      -15.946219   1.000000
    6      -15.432842   1.000000
    7      -15.086881   1.000000
    8       -5.164831   1.000000
    9       -3.675657   1.000000
   10       -2.171435   1.000000
   11       -1.551104   1.000000
   12       -1.382709   1.000000
   13        1.618936   1.000000
   14        2.524018   1.005757
   15        3.083585   0.000001
   16        4.451725   0.000000
   17        5.495817   0.000000
   18        6.069833   0.000000
   19        6.408978   0.000000
   20        7.000003   0.000000
 
 -0.2352941E+00  0.7692308E-01  0.3885781E-15  0.1809955E-02
    1      -33.120532   1.000000
    2      -29.016561   1.000000
    3      -28.838067   1.000000
    4      -28.780492   1.000000
    5      -15.744017   1.000000
    6      -15.231835   1.000000
    7      -15.173765   1.000000
    8       -5.451481   1.000000
    9       -4.057952   1.000000
   10       -2.086766   1.000000
   11       -1.417352   1.000000
   12       -1.226294   1.000000
   13        1.816499   1.000000
   14        2.218444   1.000000
   15        2.840972  -0.005096
   16        4.628116   0.000000
   17        5.507832   0.000000
   18        5.752109   0.000000
   19        6.014960   0.000000
   20        6.914277   0.000000
 
 -0.1764706E+00  0.7692308E-01  0.3955170E-15  0.1809955E-02
    1      -33.185742   1.000000
    2      -28.962550   1.000000
    3      -28.815610   1.000000
    4      -28.745789   1.000000
    5      -15.497959   1.000000
    6      -15.269896   1.000000
    7      -15.019965   1.000000
    8       -5.764231   1.000000
    9       -4.472187   1.000000
   10       -2.069292   1.000000
   11       -1.354205   1.000000
   12       -1.182166   1.000000
   13        1.840642   1.000000
   14        2.386823   0.999627
   15        2.797958  -0.041296
   16        4.703720   0.000000
   17        4.895725   0.000000
   18        5.729280   0.000000
   19        6.204385   0.000000
   20        6.469945   0.000000
 
 -0.1176471E+00  0.7692308E-01  0.3573530E-15  0.1809955E-02
    1      -33.245179   1.000000
    2      -28.910242   1.000000
    3      -28.829029   1.000000
    4      -28.680005   1.000000
    5      -15.356072   1.000000
    6      -15.232783   1.000000
    7      -14.837410   1.000000
    8       -6.081096   1.000000
    9       -4.819323   1.000000
   10       -2.206614   1.000000
   11       -1.383767   1.000000
   12       -1.172034   1.000000
   13        1.744268   1.000000
   14        2.694238   0.371196
   15        3.238094   0.000000
   16        4.253333   0.000000
   17        4.463369   0.000000
   18        5.449086   0.000000
   19        6.688132   0.000000
   20        6.825828   0.000000
 
 -0.5882353E-01  0.7692308E-01  0.3825065E-15  0.1809955E-02
    1      -33.291058   1.000000
    2      -28.868930   1.000000
    3      -28.841152   1.000000
    4      -28.626425   1.000000
    5      -15.422506   1.000000
    6      -14.985858   1.000000
    7      -14.715030   1.000000
    8       -6.353895   1.000000
    9       -5.053008   1.000000
   10       -2.448999   1.000000
   11       -1.508309   1.000000
   12       -1.086407   1.000000
   13        1.714803   1.000000
   14        2.952687   0.001022
   15        3.761264   0.000000
   16        3.922061   0.000000
   17        4.112435   0.000000
   18        5.143869   0.000000
   19        7.027796   0.000000
   20        7.894463   0.000000
 
  0.3707429E-15  0.1538462E+00  0.3608225E-15  0.1809955E-02
    1      -33.287288   1.000000
    2      -28.879528   1.000000
    3      -28.839887   1.000000
    4      -28.623630   1.000000
    5      -15.414795   1.000000
    6      -15.084812   1.000000
    7      -14.664503   1.000000
    8       -6.315564   1.000000
    9       -4.988794   1.000000
   10       -2.426664   1.000000
   11       -1.587399   1.000000
   12       -1.060523   1.000000
   13        1.626111   1.000000
   14        3.060217   0.000004
   15        3.619545   0.000000
   16        3.989254   0.000000
   17        4.177298   0.000000
   18        5.131341   0.000000
   19        7.248590   0.000000
   20        7.934292   0.000000
 
  0.5882353E-01  0.1538462E+00  0.3538836E-15  0.1809955E-02
    1      -33.304624   1.000000
    2      -28.860971   1.000000
    3      -28.842218   1.000000
    4      -28.608651   1.000000
    5      -15.440450   1.000000
    6      -14.862765   1.000000
    7      -14.747190   1.000000
    8       -6.428486   1.000000
    9       -5.078702   1.000000
   10       -2.511160   1.000000
   11       -1.658756   1.000000
   12       -1.020351   1.000000
   13        1.709935   1.000000
   14        2.884541   0.004934
   15        3.719747   0.000000
   16        3.877452   0.000000
   17        4.516890   0.000000
   18        5.011302   0.000000
   19        7.008118   0.000000
   20        8.044050   0.000000
 
  0.1176471E+00  0.1538462E+00  0.3747003E-15  0.1809955E-02
    1      -33.300592   1.000000
    2      -28.868346   1.000000
    3      -28.841548   1.000000
    4      -28.609159   1.000000
    5      -15.434453   1.000000
    6      -14.939046   1.000000
    7      -14.703924   1.000000
    8       -6.399133   1.000000
    9       -5.075309   1.000000
   10       -2.474047   1.000000
   11       -1.634807   1.000000
   12       -1.039867   1.000000
   13        1.716992   1.000000
   14        2.912712   0.003440
   15        3.678879   0.000000
   16        3.894178   0.000000
   17        4.439254   0.000000
   18        5.010981   0.000000
   19        7.120987   0.000000
   20        8.038931   0.000000
 
  0.1764706E+00  0.1538462E+00  0.3885781E-15  0.1809955E-02
    1      -33.275695   1.000000
    2      -28.901151   1.000000
    3      -28.835976   1.000000
    4      -28.626527   1.000000
    5      -15.397992   1.000000
    6      -15.182960   1.000000
    7      -14.659291   1.000000
    8       -6.237415   1.000000
    9       -4.969221   1.000000
   10       -2.338045   1.000000
   11       -1.525214   1.000000
   12       -1.104824   1.000000
   13        1.660740   1.000000
   14        3.030291   0.000023
   15        3.633503   0.000000
   16        3.946628   0.000000
   17        4.055478   0.000000
   18        5.188151   0.000000
   19        7.408254   0.000000
   20        7.904277   0.000000
 
  0.2352941E+00  0.1538462E+00  0.3053113E-15  0.1809955E-02
    1      -33.233150   1.000000
    2      -28.952228   1.000000
    3      -28.824329   1.000000
    4      -28.662769   1.000000
    5      -15.451703   1.000000
    6      -15.335962   1.000000
    7      -14.719785   1.000000
    8       -5.987286   1.000000
    9       -4.744087   1.000000
   10       -2.198883   1.000000
   11       -1.413524   1.000000
   12       -1.139384   1.000000
   13        1.637714   1.000000
   14        2.866313   0.003691
   15        3.398804   0.000000
   16        3.963527   0.000000
   17        4.208108   0.000000
   18        5.533524   0.000000
   19        7.118199   0.000000
   20        7.273517   0.000000
 
  0.2941176E+00  0.1538462E+00  0.3608225E-15  0.1809955E-02
    1      -33.178483   1.000000
    2      -29.008708   1.000000
    3      -28.809681   1.000000
    4      -28.716214   1.000000
    5      -15.704653   1.000000
    6      -15.256964   1.000000
    7      -14.869573   1.000000
    8       -5.700354   1.000000
    9       -4.396741   1.000000
   10       -2.143424   1.000000
   11       -1.418221   1.000000
   12       -1.110574   1.000000
   13        1.720477   1.000000
   14        2.490946   0.995508
   15        3.073939   0.000001
   16        4.383837   0.000000
   17        4.490670   0.000000
   18        5.666659   0.000000
   19        6.744409   0.000000
   20        6.964062   0.000000
 
  0.3529412E+00  0.1538462E+00  0.3885781E-15  0.1809955E-02
    1      -33.118930   1.000000
    2      -29.060009   1.000000
    3      -28.804496   1.000000
    4      -28.771602   1.000000
    5      -15.911572   1.000000
    6      -15.173607   1.000000
    7      -15.075923   1.000000
    8       -5.417509   1.000000
    9       -3.983584   1.000000
   10       -2.168059   1.000000
   11       -1.504579   1.000000
   12       -1.179669   1.000000
   13        1.889857   1.000000
   14        2.130374   1.000000
   15        3.034561   0.000018
   16        4.541838   0.000000
   17        4.981437   0.000000
   18        5.742207   0.000000
   19        6.432909   0.000000
   20        7.018395   0.000000
 
  0.4117647E+00  0.1538462E+00  0.4718448E-15  0.1809955E-02
    1      -33.062510   1.000000
    2      -29.097437   1.000000
    3      -28.862375   1.000000
    4      -28.769857   1.000000
    5      -16.052333   1.000000
    6      -15.311897   1.000000
    7      -15.088851   1.000000
    8       -5.156139   1.000000
    9       -3.596075   1.000000
   10       -2.215278   1.000000
   11       -1.637325   1.000000
   12       -1.369057   1.000000
   13        1.760063   1.000000
   14        2.310973   0.999994
   15        3.156844   0.000000
   16        4.505661   0.000000
   17        5.439625   0.000000
   18        6.031257   0.000000
   19        6.338275   0.000000
   20        6.960526   0.000000
 
  0.4705882E+00  0.1538462E+00  0.3885781E-15  0.1809955E-02
    1      -33.016982   1.000000
    2      -29.116524   1.000000
    3      -28.929115   1.000000
    4      -28.758008   1.000000
    5      -16.121666   1.000000
    6      -15.529111   1.000000
    7      -15.025202   1.000000
    8       -4.944858   1.000000
    9       -3.330747   1.000000
   10       -2.250689   1.000000
   11       -1.770386   1.000000
   12       -1.576950   1.000000
   13        1.685736   1.000000
   14        2.583860   1.051465
   15        3.444488   0.000000
   16        4.484021   0.000000
   17        5.294756   0.000000
   18        6.103252   0.000000
   19        6.686619   0.000000
   20        7.113091   0.000000
 
 -0.4705882E+00  0.1538462E+00  0.4163336E-15  0.1809955E-02
    1      -32.988711   1.000000
    2      -29.118839   1.000000
    3      -28.979970   1.000000
    4      -28.750125   1.000000
    5      -16.133549   1.000000
    6      -15.689666   1.000000
    7      -14.985631   1.000000
    8       -4.810357   1.000000
    9       -3.208801   1.000000
   10       -2.264445   1.000000
   11       -1.854864   1.000000
   12       -1.712922   1.000000
   13        1.735244   1.000000
   14        2.696939   0.343850
   15        3.795707   0.000000
   16        4.520527   0.000000
   17        4.998244   0.000000
   18        5.944481   0.000000
   19        6.735743   0.000000
   20        7.286770   0.000000
 
 -0.4117647E+00  0.1538462E+00  0.3885781E-15  0.1809955E-02
    1      -32.981697   1.000000
    2      -29.115137   1.000000
    3      -28.997109   1.000000
    4      -28.748088   1.000000
    5      -16.132109   1.000000
    6      -15.733208   1.000000
    7      -14.975872   1.000000
    8       -4.776954   1.000000
    9       -3.187737   1.000000
   10       -2.267885   1.000000
   11       -1.880107   1.000000
   12       -1.737696   1.000000
   13        1.803426   1.000000
   14        2.660123   0.722252
   15        3.904070   0.000000
   16        4.485300   0.000000
   17        4.944737   0.000000
   18        5.934665   0.000000
   19        6.685303   0.000000
   20        7.241082   0.000000
 
 -0.3529412E+00  0.1538462E+00  0.3608225E-15  0.1809955E-02
    1      -32.996934   1.000000
    2      -29.113913   1.000000
    3      -28.970057   1.000000
    4      -28.752134   1.000000
    5      -16.139381   1.000000
    6      -15.633576   1.000000
    7      -14.997142   1.000000
    8       -4.845545   1.000000
    9       -3.245313   1.000000
   10       -2.262275   1.000000
   11       -1.842180   1.000000
   12       -1.648524   1.000000
   13        1.779940   1.000000
   14        2.643338   0.864464
   15        3.533030   0.000000
   16        4.433459   0.000000
   17        5.230099   0.000000
   18        5.972918   0.000000
   19        6.756684   0.000000
   20        7.191475   0.000000
 
 -0.2941176E+00  0.1538462E+00  0.4163336E-15  0.1809955E-02
    1      -33.032257   1.000000
    2      -29.104066   1.000000
    3      -28.913922   1.000000
    4      -28.761348   1.000000
    5      -16.110157   1.000000
    6      -15.444514   1.000000
    7      -15.046416   1.000000
    8       -5.005698   1.000000
    9       -3.416404   1.000000
   10       -2.243291   1.000000
   11       -1.740570   1.000000
   12       -1.468363   1.000000
   13        1.762550   1.000000
   14        2.484362   0.995130
   15        3.203612   0.000000
   16        4.381028   0.000000
   17        5.522110   0.000000
   18        5.997975   0.000000
   19        6.569032   0.000000
   20        7.124870   0.000000
 
 -0.2352941E+00  0.1538462E+00  0.3816392E-15  0.1809955E-02
    1      -33.082695   1.000000
    2      -29.076742   1.000000
    3      -28.847463   1.000000
    4      -28.772586   1.000000
    5      -16.013475   1.000000
    6      -15.219520   1.000000
    7      -15.115872   1.000000
    8       -5.235823   1.000000
    9       -3.725784   1.000000
   10       -2.209826   1.000000
   11       -1.593397   1.000000
   12       -1.264127   1.000000
   13        1.880042   1.000000
   14        2.150545   1.000000
   15        3.063936   0.000003
   16        4.464016   0.000000
   17        5.415938   0.000000
   18        5.822209   0.000000
   19        6.172226   0.000000
   20        7.106337   0.000000
 
 -0.1764706E+00  0.1538462E+00  0.3816392E-15  0.1809955E-02
    1      -33.141228   1.000000
    2      -29.032524   1.000000
    3      -28.806972   1.000000
    4      -28.758952   1.000000
    5      -15.844555   1.000000
    6      -15.203149   1.000000
    7      -14.990041   1.000000
    8       -5.508637   1.000000
    9       -4.120049   1.000000
   10       -2.178026   1.000000
   11       -1.456608   1.000000
   12       -1.131645   1.000000
   13        1.793790   1.000000
   14        2.240532   1.000000
   15        3.043027   0.000011
   16        4.561858   0.000000
   17        4.768133   0.000000
   18        5.650082   0.000000
   19        6.432685   0.000000
   20        7.051246   0.000000
 
 -0.1176471E+00  0.1538462E+00  0.3989864E-15  0.1809955E-02
    1      -33.199886   1.000000
    2      -28.978106   1.000000
    3      -28.816611   1.000000