Automatically generated mesh
     553
Reciprocal lattice
    0.00000000000000    0.00000000000000    0.00000000000000             1
    0.05882352941176    0.00000000000000    0.00000000000000             2
    0.11764705882353    0.00000000000000    0.00000000000000             2
    0.17647058823529    0.00000000000000    0.00000000000000             2
    0.23529411764706    0.00000000000000    0.00000000000000             2
    0.29411764705882    0.00000000000000    0.00000000000000             2
    0.35294117647059    0.00000000000000    0.00000000000000             2
    0.41176470588235    0.00000000000000    0.00000000000000             2
    0.47058823529412    0.00000000000000    0.00000000000000             2
    0.00000000000000    0.07692307692308    0.00000000000000             2
    0.05882352941176    0.07692307692308    0.00000000000000             2
    0.11764705882353    0.07692307692308    0.00000000000000             2
    0.17647058823529    0.07692307692308    0.00000000000000             2
    0.23529411764706    0.07692307692308    0.00000000000000             2
    0.29411764705882    0.07692307692308    0.00000000000000             2
    0.35294117647059    0.07692307692308    0.00000000000000             2
    0.41176470588235    0.07692307692308    0.00000000000000             2
    0.47058823529412    0.07692307692308    0.00000000000000             2
   -0.47058823529412    0.07692307692308    0.00000000000000             2
   -0.41176470588235    0.07692307692308    0.00000000000000             2
   -0.35294117647059    0.07692307692308    0.00000000000000             2
   -0.29411764705882    0.07692307692308    0.00000000000000             2
   -0.23529411764706    0.07692307692308    0.00000000000000             2
   -0.17647058823529    0.07692307692308    0.00000000000000             2
   -0.11764705882353    0.07692307692308    0.00000000000000             2
   -0.05882352941176    0.07692307692308    0.00000000000000             2
    0.00000000000000    0.15384615384615    0.00000000000000             2
    0.05882352941176    0.15384615384615    0.00000000000000             2
    0.11764705882353    0.15384615384615    0.00000000000000             2
    0.17647058823529    0.15384615384615    0.00000000000000             2
    0.23529411764706    0.15384615384615    0.00000000000000             2
    0.29411764705882    0.15384615384615    0.00000000000000             2
    0.35294117647059    0.15384615384615    0.00000000000000             2
    0.41176470588235    0.15384615384615    0.00000000000000             2
    0.47058823529412    0.15384615384615    0.00000000000000             2
   -0.47058823529412    0.15384615384615    0.00000000000000             2
   -0.41176470588235    0.15384615384615    0.00000000000000             2
   -0.35294117647059    0.15384615384615    0.00000000000000             2
   -0.29411764705882    0.15384615384615    0.00000000000000             2
   -0.23529411764706    0.15384615384615    0.00000000000000             2
   -0.17647058823529    0.15384615384615    0.00000000000000             2
   -0.11764705882353    0.15384615384615    0.00000000000000             2
   -0.05882352941176    0.15384615384615    0.00000000000000             2
    0.00000000000000    0.23076923076923    0.00000000000000             2
    0.05882352941176    0.23076923076923    0.00000000000000             2
    0.11764705882353    0.23076923076923    0.00000000000000             2
    0.17647058823529    0.23076923076923    0.00000000000000             2
    0.23529411764706    0.23076923076923    0.00000000000000             2
    0.29411764705882    0.23076923076923    0.00000000000000             2
    0.35294117647059    0.23076923076923    0.00000000000000             2
    0.41176470588235    0.23076923076923    0.00000000000000             2
    0.47058823529412    0.23076923076923    0.00000000000000             2
   -0.47058823529412    0.23076923076923    0.00000000000000             2
   -0.41176470588235    0.23076923076923    0.00000000000000             2
   -0.35294117647059    0.23076923076923    0.00000000000000             2
   -0.29411764705882    0.23076923076923    0.00000000000000             2
   -0.23529411764706    0.23076923076923    0.00000000000000             2
   -0.17647058823529    0.23076923076923    0.00000000000000             2
   -0.11764705882353    0.23076923076923    0.00000000000000             2
   -0.05882352941176    0.23076923076923    0.00000000000000             2
    0.00000000000000    0.30769230769231    0.00000000000000             2
    0.05882352941176    0.30769230769231    0.00000000000000             2
    0.11764705882353    0.30769230769231    0.00000000000000             2
    0.17647058823529    0.30769230769231    0.00000000000000             2
    0.23529411764706    0.30769230769231    0.00000000000000             2
    0.29411764705882    0.30769230769231    0.00000000000000             2
    0.35294117647059    0.30769230769231    0.00000000000000             2
    0.41176470588235    0.30769230769231    0.00000000000000             2
    0.47058823529412    0.30769230769231    0.00000000000000             2
   -0.47058823529412    0.30769230769231    0.00000000000000             2
   -0.41176470588235    0.30769230769231    0.00000000000000             2
   -0.35294117647059    0.30769230769231    0.00000000000000             2
   -0.29411764705882    0.30769230769231    0.00000000000000             2
   -0.23529411764706    0.30769230769231    0.00000000000000             2
   -0.17647058823529    0.30769230769231    0.00000000000000             2
   -0.11764705882353    0.30769230769231    0.00000000000000             2
   -0.05882352941176    0.30769230769231    0.00000000000000             2
    0.00000000000000    0.38461538461539    0.00000000000000             2
    0.05882352941176    0.38461538461539    0.00000000000000             2
    0.11764705882353    0.38461538461539    0.00000000000000             2
    0.17647058823529    0.38461538461539    0.00000000000000             2
    0.23529411764706    0.38461538461539    0.00000000000000             2
    0.29411764705882    0.38461538461539    0.00000000000000             2
    0.35294117647059    0.38461538461539    0.00000000000000             2
    0.41176470588235    0.38461538461539    0.00000000000000             2
    0.47058823529412    0.38461538461539    0.00000000000000             2
   -0.47058823529412    0.38461538461539    0.00000000000000             2
   -0.41176470588235    0.38461538461539    0.00000000000000             2
   -0.35294117647059    0.38461538461539    0.00000000000000             2
   -0.29411764705882    0.38461538461539    0.00000000000000             2
   -0.23529411764706    0.38461538461539    0.00000000000000             2
   -0.17647058823529    0.38461538461539    0.00000000000000             2
   -0.11764705882353    0.38461538461539    0.00000000000000             2
   -0.05882352941176    0.38461538461539    0.00000000000000             2
    0.00000000000000    0.46153846153846    0.00000000000000             2
    0.05882352941176    0.46153846153846    0.00000000000000             2
    0.11764705882353    0.46153846153846    0.00000000000000             2
    0.17647058823529    0.46153846153846    0.00000000000000             2
    0.23529411764706    0.46153846153846    0.00000000000000             2
    0.29411764705882    0.46153846153846    0.00000000000000             2
    0.35294117647059    0.46153846153846    0.00000000000000             2
    0.41176470588235    0.46153846153846    0.00000000000000             2
    0.47058823529412    0.46153846153846    0.00000000000000             2
   -0.47058823529412    0.46153846153846    0.00000000000000             2
   -0.41176470588235    0.46153846153846    0.00000000000000             2
   -0.35294117647059    0.46153846153846    0.00000000000000             2
   -0.29411764705882    0.46153846153846    0.00000000000000             2
   -0.23529411764706    0.46153846153846    0.00000000000000             2
   -0.17647058823529    0.46153846153846    0.00000000000000             2
   -0.11764705882353    0.46153846153846    0.00000000000000             2
   -0.05882352941176    0.46153846153846    0.00000000000000             2
    0.00000000000000    0.00000000000000    0.20000000000000             2
    0.05882352941176    0.00000000000000    0.20000000000000             2
    0.11764705882353    0.00000000000000    0.20000000000000             2
    0.17647058823529    0.00000000000000    0.20000000000000             2
    0.23529411764706    0.00000000000000    0.20000000000000             2
    0.29411764705882    0.00000000000000    0.20000000000000             2
    0.35294117647059    0.00000000000000    0.20000000000000             2
    0.41176470588235    0.00000000000000    0.20000000000000             2
    0.47058823529412    0.00000000000000    0.20000000000000             2
   -0.47058823529412    0.00000000000000    0.20000000000000             2
   -0.41176470588235    0.00000000000000    0.20000000000000             2
   -0.35294117647059    0.00000000000000    0.20000000000000             2
   -0.29411764705882    0.00000000000000    0.20000000000000             2
   -0.23529411764706    0.00000000000000    0.20000000000000             2
   -0.17647058823529    0.00000000000000    0.20000000000000             2
   -0.11764705882353    0.00000000000000    0.20000000000000             2
   -0.05882352941176    0.00000000000000    0.20000000000000             2
    0.00000000000000    0.07692307692308    0.20000000000000             2
    0.05882352941176    0.07692307692308    0.20000000000000             2
    0.11764705882353    0.07692307692308    0.20000000000000             2
    0.17647058823529    0.07692307692308    0.20000000000000             2
    0.23529411764706    0.07692307692308    0.20000000000000             2
    0.29411764705882    0.07692307692308    0.20000000000000             2
    0.35294117647059    0.07692307692308    0.20000000000000             2
    0.41176470588235    0.07692307692308    0.20000000000000             2
    0.47058823529412    0.07692307692308    0.20000000000000             2
   -0.47058823529412    0.07692307692308    0.20000000000000             2
   -0.41176470588235    0.07692307692308    0.20000000000000             2
   -0.35294117647059    0.07692307692308    0.20000000000000             2
   -0.29411764705882    0.07692307692308    0.20000000000000             2
   -0.23529411764706    0.07692307692308    0.20000000000000             2
   -0.17647058823529    0.07692307692308    0.20000000000000             2
   -0.11764705882353    0.07692307692308    0.20000000000000             2
   -0.05882352941176    0.07692307692308    0.20000000000000             2
    0.00000000000000    0.15384615384615    0.20000000000000             2
    0.05882352941176    0.15384615384615    0.20000000000000             2
    0.11764705882353    0.15384615384615    0.20000000000000             2
    0.17647058823529    0.15384615384615    0.20000000000000             2
    0.23529411764706    0.15384615384615    0.20000000000000             2
    0.29411764705882    0.15384615384615    0.20000000000000             2
    0.35294117647059    0.15384615384615    0.20000000000000             2
    0.41176470588235    0.15384615384615    0.20000000000000             2
    0.47058823529412    0.15384615384615    0.20000000000000             2
   -0.47058823529412    0.15384615384615    0.20000000000000             2
   -0.41176470588235    0.15384615384615    0.20000000000000             2
   -0.35294117647059    0.15384615384615    0.20000000000000             2
   -0.29411764705882    0.15384615384615    0.20000000000000             2
   -0.23529411764706    0.15384615384615    0.20000000000000             2
   -0.17647058823529    0.15384615384615    0.20000000000000             2
   -0.11764705882353    0.15384615384615    0.20000000000000             2
   -0.05882352941176    0.15384615384615    0.20000000000000             2
    0.00000000000000    0.23076923076923    0.20000000000000             2
    0.05882352941176    0.23076923076923    0.20000000000000             2
    0.11764705882353    0.23076923076923    0.20000000000000             2
    0.17647058823529    0.23076923076923    0.20000000000000             2
    0.23529411764706    0.23076923076923    0.20000000000000             2
    0.29411764705882    0.23076923076923    0.20000000000000             2
    0.35294117647059    0.23076923076923    0.20000000000000             2
    0.41176470588235    0.23076923076923    0.20000000000000             2
    0.47058823529412    0.23076923076923    0.20000000000000             2
   -0.47058823529412    0.23076923076923    0.20000000000000             2
   -0.41176470588235    0.23076923076923    0.20000000000000             2
   -0.35294117647059    0.23076923076923    0.20000000000000             2
   -0.29411764705882    0.23076923076923    0.20000000000000             2
   -0.23529411764706    0.23076923076923    0.20000000000000             2
   -0.17647058823529    0.23076923076923    0.20000000000000             2
   -0.11764705882353    0.23076923076923    0.20000000000000             2
   -0.05882352941176    0.23076923076923    0.20000000000000             2
    0.00000000000000    0.30769230769231    0.20000000000000             2
    0.05882352941176    0.30769230769231    0.20000000000000             2
    0.11764705882353    0.30769230769231    0.20000000000000             2
    0.17647058823529    0.30769230769231    0.20000000000000             2
    0.23529411764706    0.30769230769231    0.20000000000000             2
    0.29411764705882    0.30769230769231    0.20000000000000             2
    0.35294117647059    0.30769230769231    0.20000000000000             2
    0.41176470588235    0.30769230769231    0.20000000000000             2
    0.47058823529412    0.30769230769231    0.20000000000000             2
   -0.47058823529412    0.30769230769231    0.20000000000000             2
   -0.41176470588235    0.30769230769231    0.20000000000000             2
   -0.35294117647059    0.30769230769231    0.20000000000000             2
   -0.29411764705882    0.30769230769231    0.20000000000000             2
   -0.23529411764706    0.30769230769231    0.20000000000000             2
   -0.17647058823529    0.30769230769231    0.20000000000000             2
   -0.11764705882353    0.30769230769231    0.20000000000000             2
   -0.05882352941176    0.30769230769231    0.20000000000000             2
    0.00000000000000    0.38461538461539    0.20000000000000             2
    0.05882352941176    0.38461538461539    0.20000000000000             2
    0.11764705882353    0.38461538461539    0.20000000000000             2
    0.17647058823529    0.38461538461539    0.20000000000000             2
    0.23529411764706    0.38461538461539    0.20000000000000             2
    0.29411764705882    0.38461538461539    0.20000000000000             2
    0.35294117647059    0.38461538461539    0.20000000000000             2
    0.41176470588235    0.38461538461539    0.20000000000000             2
    0.47058823529412    0.38461538461539    0.20000000000000             2
   -0.47058823529412    0.38461538461539    0.20000000000000             2
   -0.41176470588235    0.38461538461539    0.20000000000000             2
   -0.35294117647059    0.38461538461539    0.20000000000000             2
   -0.29411764705882    0.38461538461539    0.20000000000000             2
   -0.23529411764706    0.38461538461539    0.20000000000000             2
   -0.17647058823529    0.38461538461538    0.20000000000000             2
   -0.11764705882353    0.38461538461538    0.20000000000000             2
   -0.05882352941176    0.38461538461538    0.20000000000000             2
    0.00000000000000    0.46153846153846    0.20000000000000             2
    0.05882352941176    0.46153846153846    0.20000000000000             2
    0.11764705882353    0.46153846153846    0.20000000000000             2
    0.17647058823529    0.46153846153846    0.20000000000000             2
    0.23529411764706    0.46153846153846    0.20000000000000             2
    0.29411764705882    0.46153846153846    0.20000000000000             2
    0.35294117647059    0.46153846153846    0.20000000000000             2
    0.41176470588235    0.46153846153846    0.20000000000000             2
    0.47058823529412    0.46153846153846    0.20000000000000             2
   -0.47058823529412    0.46153846153846    0.20000000000000             2
   -0.41176470588235    0.46153846153846    0.20000000000000             2
   -0.35294117647059    0.46153846153846    0.20000000000000             2
   -0.29411764705882    0.46153846153846    0.20000000000000             2
   -0.23529411764706    0.46153846153846    0.20000000000000             2
   -0.17647058823529    0.46153846153846    0.20000000000000             2
   -0.11764705882353    0.46153846153846    0.20000000000000             2
   -0.05882352941176    0.46153846153846    0.20000000000000             2
    0.00000000000000   -0.46153846153846    0.20000000000000             2
    0.05882352941176   -0.46153846153846    0.20000000000000             2
    0.11764705882353   -0.46153846153846    0.20000000000000             2
    0.17647058823529   -0.46153846153846    0.20000000000000             2
    0.23529411764706   -0.46153846153846    0.20000000000000             2
    0.29411764705882   -0.46153846153846    0.20000000000000             2
    0.35294117647059   -0.46153846153846    0.20000000000000             2
    0.41176470588235   -0.46153846153846    0.20000000000000             2
    0.47058823529412   -0.46153846153846    0.20000000000000             2
   -0.47058823529412   -0.46153846153846    0.20000000000000             2
   -0.41176470588235   -0.46153846153846    0.20000000000000             2
   -0.35294117647059   -0.46153846153846    0.20000000000000             2
   -0.29411764705882   -0.46153846153846    0.20000000000000             2
   -0.23529411764706   -0.46153846153846    0.20000000000000             2
   -0.17647058823529   -0.46153846153846    0.20000000000000             2
   -0.11764705882353   -0.46153846153846    0.20000000000000             2
   -0.05882352941176   -0.46153846153846    0.20000000000000             2
    0.00000000000000   -0.38461538461538    0.20000000000000             2
    0.05882352941176   -0.38461538461538    0.20000000000000             2
    0.11764705882353   -0.38461538461538    0.20000000000000             2
    0.17647058823529   -0.38461538461538    0.20000000000000             2
    0.23529411764706   -0.38461538461538    0.20000000000000             2
    0.29411764705882   -0.38461538461538    0.20000000000000             2
    0.35294117647059   -0.38461538461538    0.20000000000000             2
    0.41176470588235   -0.38461538461538    0.20000000000000             2
    0.47058823529412   -0.38461538461538    0.20000000000000             2
   -0.47058823529412   -0.38461538461538    0.20000000000000             2
   -0.41176470588235   -0.38461538461538    0.20000000000000             2
   -0.35294117647059   -0.38461538461538    0.20000000000000             2
   -0.29411764705882   -0.38461538461538    0.20000000000000             2
   -0.23529411764706   -0.38461538461538    0.20000000000000             2
   -0.17647058823529   -0.38461538461538    0.20000000000000             2
   -0.11764705882353   -0.38461538461538    0.20000000000000             2
   -0.05882352941176   -0.38461538461538    0.20000000000000             2
    0.00000000000000   -0.30769230769231    0.20000000000000             2
    0.05882352941176   -0.30769230769231    0.20000000000000             2
    0.11764705882353   -0.30769230769231    0.20000000000000             2
    0.17647058823529   -0.30769230769231    0.20000000000000             2
    0.23529411764706   -0.30769230769231    0.20000000000000             2
    0.29411764705882   -0.30769230769231    0.20000000000000             2
    0.35294117647059   -0.30769230769231    0.20000000000000             2
    0.41176470588235   -0.30769230769231    0.20000000000000             2
    0.47058823529412   -0.30769230769231    0.20000000000000             2
   -0.47058823529412   -0.30769230769231    0.20000000000000             2
   -0.41176470588235   -0.30769230769231    0.20000000000000             2
   -0.35294117647059   -0.30769230769231    0.20000000000000             2
   -0.29411764705882   -0.30769230769231    0.20000000000000             2
   -0.23529411764706   -0.30769230769231    0.20000000000000             2
   -0.17647058823529   -0.30769230769231    0.20000000000000             2
   -0.11764705882353   -0.30769230769231    0.20000000000000             2
   -0.05882352941176   -0.30769230769231    0.20000000000000             2
    0.00000000000000   -0.23076923076923    0.20000000000000             2
    0.05882352941176   -0.23076923076923    0.20000000000000             2
    0.11764705882353   -0.23076923076923    0.20000000000000             2
    0.17647058823529   -0.23076923076923    0.20000000000000             2
    0.23529411764706   -0.23076923076923    0.20000000000000             2
    0.29411764705882   -0.23076923076923    0.20000000000000             2
    0.35294117647059   -0.23076923076923    0.20000000000000             2
    0.41176470588235   -0.23076923076923    0.20000000000000             2
    0.47058823529412   -0.23076923076923    0.20000000000000             2
   -0.47058823529412   -0.23076923076923    0.20000000000000             2
   -0.41176470588235   -0.23076923076923    0.20000000000000             2
   -0.35294117647059   -0.23076923076923    0.20000000000000             2
   -0.29411764705882   -0.23076923076923    0.20000000000000             2
   -0.23529411764706   -0.23076923076923    0.20000000000000             2
   -0.17647058823529   -0.23076923076923    0.20000000000000             2
   -0.11764705882353   -0.23076923076923    0.20000000000000             2
   -0.05882352941176   -0.23076923076923    0.20000000000000             2
    0.00000000000000   -0.15384615384615    0.20000000000000             2
    0.05882352941176   -0.15384615384615    0.20000000000000             2
    0.11764705882353   -0.15384615384615    0.20000000000000             2
    0.17647058823529   -0.15384615384615    0.20000000000000             2
    0.23529411764706   -0.15384615384615    0.20000000000000             2
    0.29411764705882   -0.15384615384615    0.20000000000000             2
    0.35294117647059   -0.15384615384615    0.20000000000000             2
    0.41176470588235   -0.15384615384615    0.20000000000000             2
    0.47058823529412   -0.15384615384615    0.20000000000000             2
   -0.47058823529412   -0.15384615384615    0.20000000000000             2
   -0.41176470588235   -0.15384615384615    0.20000000000000             2
   -0.35294117647059   -0.15384615384615    0.20000000000000             2
   -0.29411764705882   -0.15384615384615    0.20000000000000             2
   -0.23529411764706   -0.15384615384615    0.20000000000000             2
   -0.17647058823529   -0.15384615384615    0.20000000000000             2
   -0.11764705882353   -0.15384615384615    0.20000000000000             2
   -0.05882352941176   -0.15384615384615    0.20000000000000             2
    0.00000000000000   -0.07692307692308    0.20000000000000             2
    0.05882352941176   -0.07692307692308    0.20000000000000             2
    0.11764705882353   -0.07692307692308    0.20000000000000             2
    0.17647058823529   -0.07692307692308    0.20000000000000             2
    0.23529411764706   -0.07692307692308    0.20000000000000             2
    0.29411764705882   -0.07692307692308    0.20000000000000             2
    0.35294117647059   -0.07692307692308    0.20000000000000             2
    0.41176470588235   -0.07692307692308    0.20000000000000             2
    0.47058823529412   -0.07692307692308    0.20000000000000             2
   -0.47058823529412   -0.07692307692308    0.20000000000000             2
   -0.41176470588235   -0.07692307692308    0.20000000000000             2
   -0.35294117647059   -0.07692307692308    0.20000000000000             2
   -0.29411764705882   -0.07692307692308    0.20000000000000             2
   -0.23529411764706   -0.07692307692308    0.20000000000000             2
   -0.17647058823529   -0.07692307692308    0.20000000000000             2
   -0.11764705882353   -0.07692307692308    0.20000000000000             2
   -0.05882352941176   -0.07692307692308    0.20000000000000             2
    0.00000000000000    0.00000000000000    0.40000000000000             2
    0.05882352941176    0.00000000000000    0.40000000000000             2
    0.11764705882353    0.00000000000000    0.40000000000000             2
    0.17647058823529    0.00000000000000    0.40000000000000             2
    0.23529411764706    0.00000000000000    0.40000000000000             2
    0.29411764705882    0.00000000000000    0.40000000000000             2
    0.35294117647059    0.00000000000000    0.40000000000000             2
    0.41176470588235    0.00000000000000    0.40000000000000             2
    0.47058823529412    0.00000000000000    0.40000000000000             2
   -0.47058823529412    0.00000000000000    0.40000000000000             2
   -0.41176470588235    0.00000000000000    0.40000000000000             2
   -0.35294117647059    0.00000000000000    0.40000000000000             2
   -0.29411764705882    0.00000000000000    0.40000000000000             2
   -0.23529411764706    0.00000000000000    0.40000000000000             2
   -0.17647058823529    0.00000000000000    0.40000000000000             2
   -0.11764705882353    0.00000000000000    0.40000000000000             2
   -0.05882352941176    0.00000000000000    0.40000000000000             2
    0.00000000000000    0.07692307692308    0.40000000000000             2
    0.05882352941176    0.07692307692308    0.40000000000000             2
    0.11764705882353    0.07692307692308    0.40000000000000             2
    0.17647058823529    0.07692307692308    0.40000000000000             2
    0.23529411764706    0.07692307692308    0.40000000000000             2
    0.29411764705882    0.07692307692308    0.40000000000000             2
    0.35294117647059    0.07692307692308    0.40000000000000             2
    0.41176470588235    0.07692307692308    0.40000000000000             2
    0.47058823529412    0.07692307692308    0.40000000000000             2
   -0.47058823529412    0.07692307692308    0.40000000000000             2
   -0.41176470588235    0.07692307692308    0.40000000000000             2
   -0.35294117647059    0.07692307692308    0.40000000000000             2
   -0.29411764705882    0.07692307692308    0.40000000000000             2
   -0.23529411764706    0.07692307692308    0.40000000000000             2
   -0.17647058823529    0.07692307692308    0.40000000000000             2
   -0.11764705882353    0.07692307692308    0.40000000000000             2
   -0.05882352941176    0.07692307692308    0.40000000000000             2
    0.00000000000000    0.15384615384615    0.40000000000000             2
    0.05882352941176    0.15384615384615    0.40000000000000             2
    0.11764705882353    0.15384615384615    0.40000000000000             2
    0.17647058823529    0.15384615384615    0.40000000000000             2
    0.23529411764706    0.15384615384615    0.40000000000000             2
    0.29411764705882    0.15384615384615    0.40000000000000             2
    0.35294117647059    0.15384615384615    0.40000000000000             2
    0.41176470588235    0.15384615384615    0.40000000000000             2
    0.47058823529412    0.15384615384615    0.40000000000000             2
   -0.47058823529412    0.15384615384615    0.40000000000000             2
   -0.41176470588235    0.15384615384615    0.40000000000000             2
   -0.35294117647059    0.15384615384615    0.40000000000000             2
   -0.29411764705882    0.15384615384615    0.40000000000000             2
   -0.23529411764706    0.15384615384615    0.40000000000000             2
   -0.17647058823529    0.15384615384615    0.40000000000000             2
   -0.11764705882353    0.15384615384615    0.40000000000000             2
   -0.05882352941176    0.15384615384615    0.40000000000000             2
    0.00000000000000    0.23076923076923    0.40000000000000             2
    0.05882352941176    0.23076923076923    0.40000000000000             2
    0.11764705882353    0.23076923076923    0.40000000000000             2
    0.17647058823529    0.23076923076923    0.40000000000000             2
    0.23529411764706    0.23076923076923    0.40000000000000             2
    0.29411764705882    0.23076923076923    0.40000000000000             2
    0.35294117647059    0.23076923076923    0.40000000000000             2
    0.41176470588235    0.23076923076923    0.40000000000000             2
    0.47058823529412    0.23076923076923    0.40000000000000             2
   -0.47058823529412    0.23076923076923    0.40000000000000             2
   -0.41176470588235    0.23076923076923    0.40000000000000             2
   -0.35294117647059    0.23076923076923    0.40000000000000             2
   -0.29411764705882    0.23076923076923    0.40000000000000             2
   -0.23529411764706    0.23076923076923    0.40000000000000             2
   -0.17647058823529    0.23076923076923    0.40000000000000             2
   -0.11764705882353    0.23076923076923    0.40000000000000             2