  10  10   0   0
  0.1060888E+02  0.3713499E-09  0.5911337E-09  0.5686865E-09  0.5000000E-15
  1.000000000000000E-004
  CAR 
 unknown system                          
     10.69393695    -34.40815612  301      3.66171005      1.00000000
    -34.408  0.0000E+00  0.0000E+00
    -34.258  0.0000E+00  0.0000E+00
    -34.107  0.0000E+00  0.0000E+00
    -33.957  0.0000E+00  0.0000E+00
    -33.807  0.0000E+00  0.0000E+00
    -33.656  0.0000E+00  0.0000E+00
    -33.506  0.0000E+00  0.0000E+00
    -33.356  0.0000E+00  0.0000E+00
    -33.205  0.3704E-31  0.5568E-32
    -33.055  0.3494E-21  0.5253E-22
    -32.905  0.3339E-13  0.5020E-14
    -32.754  0.2952E-07  0.4438E-08
    -32.604  0.1711E-03  0.2573E-04
    -32.454 -0.5563E-02 -0.8106E-03
    -32.303  0.1494E+00  0.2164E-01
    -32.153  0.2984E+00  0.6651E-01
    -32.003  0.7505E-04  0.6652E-01
    -31.852  0.9824E-03  0.6667E-01
    -31.702  0.2412E-05  0.6667E-01
    -31.552  0.2028E-10  0.6667E-01
    -31.401  0.2098E-18  0.6667E-01
    -31.251  0.0000E+00  0.6667E-01
    -31.101  0.0000E+00  0.6667E-01
    -30.950  0.0000E+00  0.6667E-01
    -30.800  0.0000E+00  0.6667E-01
    -30.650  0.0000E+00  0.6667E-01
    -30.499  0.0000E+00  0.6667E-01
    -30.349  0.0000E+00  0.6667E-01
    -30.199  0.0000E+00  0.6667E-01
    -30.048  0.0000E+00  0.6667E-01
    -29.898  0.0000E+00  0.6667E-01
    -29.748  0.0000E+00  0.6667E-01
    -29.597  0.0000E+00  0.6667E-01
    -29.447  0.0000E+00  0.6667E-01
    -29.297  0.0000E+00  0.6667E-01
    -29.146  0.0000E+00  0.6667E-01
    -28.996  0.2171E-35  0.6667E-01
    -28.846  0.1347E-24  0.6667E-01
    -28.695  0.8207E-16  0.6667E-01
    -28.545  0.4557E-09  0.6667E-01
    -28.395  0.1827E-04  0.6667E-01
    -28.244  0.3548E-03  0.6672E-01
    -28.094  0.5201E-01  0.7454E-01
    -27.944  0.1736E+00  0.1006E+00
    -27.793  0.1105E+00  0.1173E+00
    -27.643  0.2803E+00  0.1594E+00
    -27.493  0.4786E-01  0.1666E+00
    -27.342  0.4943E-03  0.1667E+00
    -27.192  0.1702E-04  0.1667E+00
    -27.041  0.3968E-09  0.1667E+00
    -26.891  0.6881E-16  0.1667E+00
    -26.741  0.0000E+00  0.1667E+00
    -26.590  0.0000E+00  0.1667E+00
    -26.440  0.0000E+00  0.1667E+00
    -26.290  0.0000E+00  0.1667E+00
    -26.139  0.0000E+00  0.1667E+00
    -25.989  0.0000E+00  0.1667E+00
    -25.839  0.0000E+00  0.1667E+00
    -25.688  0.0000E+00  0.1667E+00
    -25.538  0.0000E+00  0.1667E+00
    -25.388  0.0000E+00  0.1667E+00
    -25.237  0.0000E+00  0.1667E+00
    -25.087  0.0000E+00  0.1667E+00
    -24.937  0.0000E+00  0.1667E+00
    -24.786  0.0000E+00  0.1667E+00
    -24.636  0.0000E+00  0.1667E+00
    -24.486  0.0000E+00  0.1667E+00
    -24.335  0.0000E+00  0.1667E+00
    -24.185  0.0000E+00  0.1667E+00
    -24.035  0.0000E+00  0.1667E+00
    -23.884  0.0000E+00  0.1667E+00
    -23.734  0.0000E+00  0.1667E+00
    -23.584  0.0000E+00  0.1667E+00
    -23.433  0.0000E+00  0.1667E+00
    -23.283  0.0000E+00  0.1667E+00
    -23.133  0.0000E+00  0.1667E+00
    -22.982  0.0000E+00  0.1667E+00
    -22.832  0.0000E+00  0.1667E+00
    -22.682  0.0000E+00  0.1667E+00
    -22.531  0.0000E+00  0.1667E+00
    -22.381  0.0000E+00  0.1667E+00
    -22.231  0.0000E+00  0.1667E+00
    -22.080  0.0000E+00  0.1667E+00
    -21.930  0.0000E+00  0.1667E+00
    -21.780  0.0000E+00  0.1667E+00
    -21.629  0.0000E+00  0.1667E+00
    -21.479  0.0000E+00  0.1667E+00
    -21.329  0.0000E+00  0.1667E+00
    -21.178  0.0000E+00  0.1667E+00
    -21.028  0.0000E+00  0.1667E+00
    -20.878  0.0000E+00  0.1667E+00
    -20.727  0.0000E+00  0.1667E+00
    -20.577  0.0000E+00  0.1667E+00
    -20.427  0.0000E+00  0.1667E+00
    -20.276  0.0000E+00  0.1667E+00
    -20.126  0.0000E+00  0.1667E+00
    -19.975  0.0000E+00  0.1667E+00
    -19.825  0.0000E+00  0.1667E+00
    -19.675  0.0000E+00  0.1667E+00
    -19.524  0.0000E+00  0.1667E+00
    -19.374  0.0000E+00  0.1667E+00
    -19.224  0.0000E+00  0.1667E+00
    -19.073  0.0000E+00  0.1667E+00
    -18.923  0.0000E+00  0.1667E+00
    -18.773  0.0000E+00  0.1667E+00
    -18.622  0.0000E+00  0.1667E+00
    -18.472  0.0000E+00  0.1667E+00
    -18.322  0.0000E+00  0.1667E+00
    -18.171  0.0000E+00  0.1667E+00
    -18.021  0.0000E+00  0.1667E+00
    -17.871  0.0000E+00  0.1667E+00
    -17.720  0.0000E+00  0.1667E+00
    -17.570  0.0000E+00  0.1667E+00
    -17.420  0.0000E+00  0.1667E+00
    -17.269  0.0000E+00  0.1667E+00
    -17.119  0.0000E+00  0.1667E+00
    -16.969  0.0000E+00  0.1667E+00
    -16.818  0.0000E+00  0.1667E+00
    -16.668  0.0000E+00  0.1667E+00
    -16.518  0.0000E+00  0.1667E+00
    -16.367  0.0000E+00  0.1667E+00
    -16.217  0.0000E+00  0.1667E+00
    -16.067  0.0000E+00  0.1667E+00
    -15.916  0.0000E+00  0.1667E+00
    -15.766  0.1038E-39  0.1667E+00
    -15.616  0.3598E-28  0.1667E+00
    -15.465  0.6499E-19  0.1667E+00
    -15.315  0.1192E-11  0.1667E+00
    -15.165  0.2076E-06  0.1667E+00
    -15.014  0.2544E-03  0.1667E+00
    -14.864 -0.4598E-02  0.1660E+00
    -14.714  0.1529E+00  0.1890E+00
    -14.563  0.3225E+00  0.2375E+00
    -14.413  0.1507E+00  0.2601E+00
    -14.263  0.1763E+00  0.2867E+00
    -14.112  0.4072E+00  0.3479E+00
    -13.962  0.1273E+00  0.3670E+00
    -13.812 -0.2338E-02  0.3667E+00
    -13.661  0.9281E-04  0.3667E+00
    -13.511  0.8318E-08  0.3667E+00
    -13.361  0.5356E-14  0.3667E+00
    -13.210  0.0000E+00  0.3667E+00
    -13.060  0.0000E+00  0.3667E+00
    -12.909  0.0000E+00  0.3667E+00
    -12.759  0.0000E+00  0.3667E+00
    -12.609  0.0000E+00  0.3667E+00
    -12.458  0.0000E+00  0.3667E+00
    -12.308  0.0000E+00  0.3667E+00
    -12.158  0.0000E+00  0.3667E+00
    -12.007  0.0000E+00  0.3667E+00
    -11.857  0.0000E+00  0.3667E+00
    -11.707  0.0000E+00  0.3667E+00
    -11.556  0.0000E+00  0.3667E+00
    -11.406  0.0000E+00  0.3667E+00
    -11.256  0.0000E+00  0.3667E+00
    -11.105  0.0000E+00  0.3667E+00
    -10.955  0.0000E+00  0.3667E+00
    -10.805  0.0000E+00  0.3667E+00
    -10.654  0.0000E+00  0.3667E+00
    -10.504  0.0000E+00  0.3667E+00
    -10.354  0.0000E+00  0.3667E+00
    -10.203  0.0000E+00  0.3667E+00
    -10.053  0.0000E+00  0.3667E+00
     -9.903  0.0000E+00  0.3667E+00
     -9.752  0.0000E+00  0.3667E+00
     -9.602  0.0000E+00  0.3667E+00
     -9.452  0.0000E+00  0.3667E+00
     -9.301  0.0000E+00  0.3667E+00
     -9.151  0.0000E+00  0.3667E+00
     -9.001  0.0000E+00  0.3667E+00
     -8.850  0.0000E+00  0.3667E+00
     -8.700  0.0000E+00  0.3667E+00
     -8.550  0.0000E+00  0.3667E+00
     -8.399  0.0000E+00  0.3667E+00
     -8.249  0.0000E+00  0.3667E+00
     -8.099  0.0000E+00  0.3667E+00
     -7.948  0.0000E+00  0.3667E+00
     -7.798  0.0000E+00  0.3667E+00
     -7.648  0.0000E+00  0.3667E+00
     -7.497  0.0000E+00  0.3667E+00
     -7.347  0.0000E+00  0.3667E+00
     -7.197  0.0000E+00  0.3667E+00
     -7.046  0.0000E+00  0.3667E+00
     -6.896  0.0000E+00  0.3667E+00
     -6.746  0.0000E+00  0.3667E+00
     -6.595  0.0000E+00  0.3667E+00
     -6.445  0.0000E+00  0.3667E+00
     -6.295  0.0000E+00  0.3667E+00
     -6.144  0.0000E+00  0.3667E+00
     -5.994  0.0000E+00  0.3667E+00
     -5.843  0.1582E-31  0.3667E+00
     -5.693  0.6832E-22  0.3667E+00
     -5.543  0.2700E-14  0.3667E+00
     -5.392  0.8352E-09  0.3667E+00
     -5.242  0.1108E-05  0.3667E+00
     -5.092 -0.1961E-05  0.3667E+00
     -4.941  0.5031E-03  0.3667E+00
     -4.791  0.3947E-02  0.3673E+00
     -4.641  0.3980E-02  0.3679E+00
     -4.490  0.8878E-02  0.3693E+00
     -4.340  0.6553E-02  0.3703E+00
     -4.190  0.1388E-01  0.3723E+00
     -4.039  0.1040E-01  0.3739E+00
     -3.889  0.2436E-01  0.3776E+00
     -3.739  0.2122E-01  0.3808E+00
     -3.588  0.1740E-01  0.3834E+00
     -3.438  0.1351E-01  0.3854E+00
     -3.288  0.1860E-01  0.3882E+00
     -3.137  0.1522E-01  0.3905E+00
     -2.987  0.1670E-01  0.3930E+00
     -2.837  0.3111E-01  0.3977E+00
     -2.686  0.1614E-01  0.4001E+00
     -2.536  0.6116E-02  0.4010E+00
     -2.386  0.1930E-01  0.4039E+00
     -2.235  0.2127E-01  0.4071E+00
     -2.085  0.2940E-01  0.4115E+00
     -1.935  0.4357E-01  0.4181E+00
     -1.784  0.8415E-01  0.4307E+00
     -1.634  0.7318E-01  0.4417E+00
     -1.484  0.6117E-01  0.4509E+00
     -1.333  0.9098E-01  0.4646E+00
     -1.183  0.1065E+00  0.4806E+00
     -1.033  0.9446E-01  0.4948E+00
     -0.882  0.6263E-01  0.5042E+00
     -0.732  0.8396E-01  0.5169E+00
     -0.582  0.8857E-01  0.5302E+00
     -0.431  0.9871E-01  0.5450E+00
     -0.281  0.1020E+00  0.5604E+00
     -0.131  0.4594E-01  0.5673E+00
      0.020  0.8392E-02  0.5685E+00
      0.170  0.1396E-01  0.5706E+00
      0.320  0.2917E-01  0.5750E+00
      0.471  0.2773E-01  0.5792E+00
      0.621  0.2639E-01  0.5831E+00
      0.771  0.1923E-01  0.5860E+00
      0.922  0.1505E-01  0.5883E+00
      1.072  0.2331E-01  0.5918E+00
      1.222  0.2072E-01  0.5949E+00
      1.373  0.1728E-01  0.5975E+00
      1.523  0.1273E-01  0.5994E+00
      1.674  0.3740E-02  0.6000E+00
      1.824  0.2014E-04  0.6000E+00
      1.974  0.2757E-04  0.6000E+00
      2.125  0.8180E-03  0.6001E+00
      2.275  0.1113E-01  0.6018E+00
      2.425  0.2679E-01  0.6058E+00
      2.576  0.3036E-01  0.6104E+00
      2.726  0.1805E-01  0.6131E+00
      2.876  0.2239E-01  0.6165E+00
      3.027  0.1097E-01  0.6181E+00
      3.177  0.1934E-01  0.6210E+00
      3.327  0.1587E-01  0.6234E+00
      3.478  0.2677E-01  0.6274E+00
      3.628  0.3350E-01  0.6325E+00
      3.778  0.3804E-01  0.6382E+00
      3.929  0.5037E-01  0.6458E+00
      4.079  0.3459E-01  0.6510E+00
      4.229  0.2440E-01  0.6546E+00
      4.380  0.2151E-01  0.6579E+00
      4.530  0.2686E-01  0.6619E+00
      4.680  0.3277E-01  0.6668E+00
      4.831  0.4351E-01  0.6734E+00
      4.981  0.7099E-01  0.6840E+00
      5.131  0.8081E-01  0.6962E+00
      5.282  0.8982E-01  0.7097E+00
      5.432  0.9288E-01  0.7237E+00
      5.582  0.7677E-01  0.7352E+00
      5.733  0.8313E-01  0.7477E+00
      5.883  0.7559E-01  0.7591E+00
      6.033  0.6056E-01  0.7682E+00
      6.184  0.3917E-01  0.7741E+00
      6.334  0.5193E-01  0.7819E+00
      6.484  0.7362E-01  0.7929E+00
      6.635  0.6507E-01  0.8027E+00
      6.785  0.7140E-01  0.8135E+00
      6.935  0.7417E-01  0.8246E+00
      7.086  0.6759E-01  0.8348E+00
      7.236  0.5779E-01  0.8435E+00
      7.386  0.7458E-01  0.8547E+00
      7.537  0.6380E-01  0.8643E+00
      7.687  0.7124E-01  0.8750E+00
      7.837  0.8708E-01  0.8881E+00
      7.988  0.8304E-01  0.9005E+00
      8.138  0.7596E-01  0.9120E+00
      8.288  0.7746E-01  0.9236E+00
      8.439  0.4860E-01  0.9309E+00
      8.589  0.1322E-01  0.9329E+00
      8.740  0.2954E-02  0.9333E+00
      8.890 -0.7542E-04  0.9333E+00
      9.040  0.3981E-05  0.9333E+00
      9.191  0.1157E-08  0.9333E+00
      9.341  0.2008E-14  0.9333E+00
      9.491  0.0000E+00  0.9333E+00
      9.642  0.0000E+00  0.9333E+00
      9.792  0.0000E+00  0.9333E+00
      9.942  0.0000E+00  0.9333E+00
     10.093  0.0000E+00  0.9333E+00
     10.243  0.0000E+00  0.9333E+00
     10.393  0.0000E+00  0.9333E+00
     10.544  0.0000E+00  0.9333E+00
     10.694  0.0000E+00  0.9333E+00
