 running on   16 total cores
 distrk:  each k-point on   16 cores,    1 groups
 distr:  one band on    1 cores,   16 groups
 using from now: INCAR     
 vasp.5.4.4.18Apr17-6-g9f103f2a35 (build Nov 01 2019 12:17:22) complex          
  
 POSCAR found type information on POSCAR  Sr Nb H 
 POSCAR found :  3 types and      15 ions

 ----------------------------------------------------------------------------- 
|                                                                             |
|           W    W    AA    RRRRR   N    N  II  N    N   GGGG   !!!           |
|           W    W   A  A   R    R  NN   N  II  NN   N  G    G  !!!           |
|           W    W  A    A  R    R  N N  N  II  N N  N  G       !!!           |
|           W WW W  AAAAAA  RRRRR   N  N N  II  N  N N  G  GGG   !            |
|           WW  WW  A    A  R   R   N   NN  II  N   NN  G    G                |
|           W    W  A    A  R    R  N    N  II  N    N   GGGG   !!!           |
|                                                                             |
|      For optimal performance we recommend to set                            |
|        NCORE= 4 - approx SQRT( number of cores)                             |
|      NCORE specifies how many cores store one orbital (NPAR=cpu/NCORE).     |
|      This setting can  greatly improve the performance of VASP for DFT.     |
|      The default,   NCORE=1            might be grossly inefficient         |
|      on modern multi-core architectures or massively parallel machines.     |
|      Do your own testing !!!!                                               |
|      Unfortunately you need to use the default for GW and RPA calculations. |
|      (for HF NCORE is supported but not extensively tested yet)             |
|                                                                             |
 ----------------------------------------------------------------------------- 

 LDA part: xc-table for Pade appr. of Perdew
 POSCAR, INCAR and KPOINTS ok, starting setup
 FFT: planning ...
 WAVECAR not read
 entering main loop
       N       E                     dE             d eps       ncg     rms          rms(c)
DAV:   1     0.156552814755E+03    0.15655E+03   -0.16228E+04  7424   0.959E+02
DAV:   2    -0.435351466574E+02   -0.20009E+03   -0.18861E+03  8656   0.260E+02
DAV:   3    -0.542705536695E+02   -0.10735E+02   -0.10667E+02 14656   0.534E+01
DAV:   4    -0.543611402827E+02   -0.90587E-01   -0.90578E-01  7584   0.406E+00
DAV:   5    -0.543629928601E+02   -0.18526E-02   -0.18525E-02 12704   0.572E-01    0.382E+01
RMM:   6    -0.566439944384E+02   -0.22810E+01   -0.54556E+00  8157   0.101E+01    0.178E+01
RMM:   7    -0.560646558536E+02    0.57934E+00   -0.16577E+00  8146   0.723E+00    0.785E+00
RMM:   8    -0.561261545301E+02   -0.61499E-01   -0.30148E-01  7840   0.417E+00    0.370E+00
RMM:   9    -0.561356776907E+02   -0.95232E-02   -0.71687E-02  7686   0.199E+00    0.173E+00
RMM:  10    -0.561404325194E+02   -0.47548E-02   -0.19495E-02  7377   0.104E+00    0.817E-01
RMM:  11    -0.561419369451E+02   -0.15044E-02   -0.39448E-03  6836   0.521E-01    0.381E-01
RMM:  12    -0.561422175474E+02   -0.28060E-03   -0.10796E-03  5754   0.264E-01
   1 F= -.56142218E+02 E0= -.56142218E+02  d E =-.561422E+02  mag=    -0.0017
 curvature:   0.00 expect dE= 0.000E+00 dE for cont linesearch  0.000E+00
 trial: gam= 0.00000 g(F)=  0.803E-02 g(S)=  0.825E-01 ort = 0.000E+00 (trialstep = 0.100E+01)
 search vector abs. value=  0.905E-01
 bond charge predicted
       N       E                     dE             d eps       ncg     rms          rms(c)
DAV:   1    -0.563532374409E+02   -0.21130E+00   -0.29135E+00 11008   0.115E+01    0.458E+00
RMM:   2    -0.562417159353E+02    0.11152E+00   -0.35619E-01  8122   0.332E+00    0.992E-01
RMM:   3    -0.562188009058E+02    0.22915E-01   -0.29385E-02  8038   0.144E+00    0.888E-01
RMM:   4    -0.562146663333E+02    0.41346E-02   -0.73169E-03  7168   0.607E-01    0.804E-01
RMM:   5    -0.562135879108E+02    0.10784E-02   -0.51366E-03  7368   0.607E-01    0.323E-01
RMM:   6    -0.562137751124E+02   -0.18720E-03   -0.31446E-03  6837   0.279E-01
   2 F= -.56213775E+02 E0= -.56213775E+02  d E =-.715576E-01  mag=    -0.0000
 trial-energy change:   -0.071558  1 .order   -0.071609   -0.090495   -0.052723
 step:   2.3958(harm=  2.3958)  dis= 0.01201  next Energy=   -56.250622 (dE=-0.108E+00)
 bond charge predicted
       N       E                     dE             d eps       ncg     rms          rms(c)
DAV:   1    -0.565175860653E+02   -0.30400E+00   -0.55794E+00  8016   0.158E+01    0.617E+00
RMM:   2    -0.563084053492E+02    0.20918E+00   -0.67992E-01  8072   0.456E+00    0.138E+00
RMM:   3    -0.562614923842E+02    0.46913E-01   -0.57416E-02  7790   0.202E+00    0.125E+00
RMM:   4    -0.562541374942E+02    0.73549E-02   -0.15797E-02  7718   0.867E-01    0.121E+00
RMM:   5    -0.562522774285E+02    0.18601E-02   -0.88541E-03  7895   0.824E-01    0.493E-01
RMM:   6    -0.562524464381E+02   -0.16901E-03   -0.73181E-03  7879   0.405E-01
   3 F= -.56252446E+02 E0= -.56252446E+02  d E =-.110229E+00  mag=    -0.0000
 curvature:  -1.20 expect dE=-0.882E-01 dE for cont linesearch -0.151E-03
 trial: gam= 0.77635 g(F)=  0.691E-01 g(S)=  0.458E-02 ort = 0.338E-02 (trialstep = 0.868E+00)
 search vector abs. value=  0.133E+00
 bond charge predicted
       N       E                     dE             d eps       ncg     rms          rms(c)
DAV:   1    -0.563617984119E+02   -0.10952E+00   -0.31198E+00  9344   0.120E+01    0.275E+00
RMM:   2    -0.562927425478E+02    0.69056E-01   -0.28514E-01  8106   0.290E+00    0.102E+00
RMM:   3    -0.562774091126E+02    0.15333E-01   -0.19608E-02  8060   0.125E+00    0.830E-01
RMM:   4    -0.562758867419E+02    0.15224E-02   -0.88274E-03  7296   0.488E-01    0.643E-01
RMM:   5    -0.562761705259E+02   -0.28378E-03   -0.35713E-03  6993   0.471E-01
   4 F= -.56276171E+02 E0= -.56276171E+02  d E =-.237241E-01  mag=    -0.0000
 trial-energy change:   -0.023724  1 .order   -0.026645   -0.066160    0.012870
 step:   0.7263(harm=  0.7263)  dis= 0.01207  next Energy=   -56.280140 (dE=-0.277E-01)
 bond charge predicted
       N       E                     dE             d eps       ncg     rms          rms(c)
DAV:   1    -0.562811918307E+02   -0.53051E-02   -0.98485E-02 12752   0.204E+00    0.548E-01
RMM:   2    -0.562790697456E+02    0.21221E-02   -0.82009E-03  7455   0.495E-01    0.150E-01
RMM:   3    -0.562786376688E+02    0.43208E-03   -0.42705E-04  5168   0.212E-01
   5 F= -.56278638E+02 E0= -.56278638E+02  d E =-.261912E-01  mag=    -0.0000
 curvature:  -0.64 expect dE=-0.393E-01 dE for cont linesearch -0.542E-03
 trial: gam= 0.98803 g(F)=  0.592E-01 g(S)=  0.265E-02 ort =-0.107E-01 (trialstep = 0.655E+00)
 search vector abs. value=  0.171E+00
 bond charge predicted
       N       E                     dE             d eps       ncg     rms          rms(c)
DAV:   1    -0.563494024857E+02   -0.70333E-01   -0.19824E+00  9280   0.932E+00    0.168E+00
RMM:   2    -0.563130256751E+02    0.36377E-01   -0.15107E-01  8108   0.202E+00    0.895E-01
RMM:   3    -0.563056876403E+02    0.73380E-02   -0.91293E-03  7798   0.840E-01    0.687E-01
RMM:   4    -0.563050140001E+02    0.67364E-03   -0.41663E-03  6751   0.364E-01
   6 F= -.56305014E+02 E0= -.56305014E+02  d E =-.263763E-01  mag=    -0.0000
 trial-energy change:   -0.026376  1 .order   -0.027590   -0.033614   -0.021565
 step:   1.8266(harm=  1.8266)  dis= 0.05612  next Energy=   -56.325526 (dE=-0.469E-01)
 bond charge predicted
       N       E                     dE             d eps       ncg     rms          rms(c)
DAV:   1    -0.564486485877E+02   -0.14296E+00   -0.62837E+00  9280   0.166E+01    0.280E+00
RMM:   2    -0.563291091719E+02    0.11954E+00   -0.48903E-01  8106   0.365E+00    0.185E+00
RMM:   3    -0.563064371034E+02    0.22672E-01   -0.31911E-02  8262   0.155E+00    0.146E+00
RMM:   4    -0.563043203893E+02    0.21167E-02   -0.15761E-02  8084   0.583E-01    0.982E-01
RMM:   5    -0.563048662554E+02   -0.54587E-03   -0.49601E-03  7766   0.512E-01
   7 F= -.56304866E+02 E0= -.56304866E+02  d E =-.262286E-01  mag=     0.0000
 curvature:  -3.04 expect dE=-0.249E+00 dE for cont linesearch -0.836E-02
 ZBRENT: interpolating
 opt :   1.3615  next Energy=   -56.309907 (dE=-0.313E-01)
 bond charge predicted
       N       E                     dE             d eps       ncg     rms          rms(c)
DAV:   1    -0.563361129560E+02   -0.31793E-01   -0.10342E+00  9408   0.666E+00    0.123E+00
RMM:   2    -0.563163130724E+02    0.19800E-01   -0.76692E-02  8116   0.145E+00    0.581E-01
RMM:   3    -0.563129817784E+02    0.33313E-02   -0.44634E-03  7420   0.607E-01    0.464E-01
RMM:   4    -0.563125951868E+02    0.38659E-03   -0.21609E-03  6122   0.279E-01
   8 F= -.56312595E+02 E0= -.56312595E+02  d E =-.339575E-01  mag=    -0.0000
 curvature:  -1.84 expect dE=-0.901E-01 dE for cont linesearch -0.112E-02
 trial: gam= 0.40247 g(F)=  0.480E-01 g(S)=  0.111E-02 ort =-0.102E-01 (trialstep = 0.796E+00)
 search vector abs. value=  0.686E-01
 bond charge predicted
       N       E                     dE             d eps       ncg     rms          rms(c)
DAV:   1    -0.563267363867E+02   -0.13755E-01   -0.18173E+00  9280   0.104E+01    0.109E+00
RMM:   2    -0.563241853578E+02    0.25510E-02   -0.11542E-01  8098   0.175E+00    0.446E-01
RMM:   3    -0.563212419831E+02    0.29434E-02   -0.47751E-03  7132   0.692E-01    0.264E-01
RMM:   4    -0.563209565917E+02    0.28539E-03   -0.13003E-03  5874   0.233E-01
   9 F= -.56320957E+02 E0= -.56320957E+02  d E =-.836140E-02  mag=    -0.0000
 trial-energy change:   -0.008361  1 .order   -0.008330   -0.035804    0.019144
 step:   0.5187(harm=  0.5187)  dis= 0.01014  next Energy=   -56.324260 (dE=-0.117E-01)
 bond charge predicted
       N       E                     dE             d eps       ncg     rms          rms(c)
DAV:   1    -0.563254947340E+02   -0.42528E-02   -0.22385E-01  9728   0.364E+00    0.342E-01
RMM:   2    -0.563250702416E+02    0.42449E-03   -0.14036E-02  7864   0.625E-01    0.150E-01
RMM:   3    -0.563247400539E+02    0.33019E-03   -0.51834E-04  4167   0.287E-01
  10 F= -.56324740E+02 E0= -.56324740E+02  d E =-.121449E-01  mag=     0.0000
 curvature:  -0.40 expect dE=-0.560E-02 dE for cont linesearch -0.171E-04
 trial: gam= 0.26928 g(F)=  0.139E-01 g(S)=  0.224E-03 ort =-0.172E-02 (trialstep = 0.741E+00)
 search vector abs. value=  0.182E-01
 bond charge predicted
       N       E                     dE             d eps       ncg     rms          rms(c)
DAV:   1    -0.563282581100E+02   -0.31879E-02   -0.48255E-01  9280   0.562E+00    0.407E-01
RMM:   2    -0.563298283801E+02   -0.15703E-02   -0.28721E-02  7532   0.889E-01    0.454E-01
RMM:   3    -0.563294316020E+02    0.39678E-03   -0.14160E-03  5906   0.499E-01
  11 F= -.56329432E+02 E0= -.56329432E+02  d E =-.469155E-02  mag=    -0.0000
 trial-energy change:   -0.004692  1 .order   -0.004758   -0.010137    0.000622
 step:   0.6978(harm=  0.6978)  dis= 0.00864  next Energy=   -56.329516 (dE=-0.478E-02)
 bond charge predicted
       N       E                     dE             d eps       ncg     rms          rms(c)
DAV:   1    -0.563293948226E+02    0.43356E-03   -0.19958E-03 10912   0.371E-01    0.881E-02
RMM:   2    -0.563294058571E+02   -0.11035E-04   -0.19417E-04  3773   0.766E-02
  12 F= -.56329406E+02 E0= -.56329406E+02  d E =-.466580E-02  mag=     0.0000
 curvature:  -0.46 expect dE=-0.295E-02 dE for cont linesearch -0.195E-05
 trial: gam= 0.41420 g(F)=  0.564E-02 g(S)=  0.723E-03 ort = 0.276E-03 (trialstep = 0.732E+00)
 search vector abs. value=  0.971E-02
 reached required accuracy - stopping structural energy minimisation
