 running on   16 total cores
 distrk:  each k-point on   16 cores,    1 groups
 distr:  one band on    1 cores,   16 groups
 using from now: INCAR     
 vasp.5.4.4.18Apr17-6-g9f103f2a35 (build Nov 01 2019 12:17:22) complex          
  
 POSCAR found type information on POSCAR  Sr Nb H 
 POSCAR found :  3 types and      15 ions

 ----------------------------------------------------------------------------- 
|                                                                             |
|           W    W    AA    RRRRR   N    N  II  N    N   GGGG   !!!           |
|           W    W   A  A   R    R  NN   N  II  NN   N  G    G  !!!           |
|           W    W  A    A  R    R  N N  N  II  N N  N  G       !!!           |
|           W WW W  AAAAAA  RRRRR   N  N N  II  N  N N  G  GGG   !            |
|           WW  WW  A    A  R   R   N   NN  II  N   NN  G    G                |
|           W    W  A    A  R    R  N    N  II  N    N   GGGG   !!!           |
|                                                                             |
|      For optimal performance we recommend to set                            |
|        NCORE= 4 - approx SQRT( number of cores)                             |
|      NCORE specifies how many cores store one orbital (NPAR=cpu/NCORE).     |
|      This setting can  greatly improve the performance of VASP for DFT.     |
|      The default,   NCORE=1            might be grossly inefficient         |
|      on modern multi-core architectures or massively parallel machines.     |
|      Do your own testing !!!!                                               |
|      Unfortunately you need to use the default for GW and RPA calculations. |
|      (for HF NCORE is supported but not extensively tested yet)             |
|                                                                             |
 ----------------------------------------------------------------------------- 

 LDA part: xc-table for Pade appr. of Perdew
 POSCAR, INCAR and KPOINTS ok, starting setup
 FFT: planning ...
 WAVECAR not read
 entering main loop
       N       E                     dE             d eps       ncg     rms          rms(c)
DAV:   1     0.224504570282E+03    0.22450E+03   -0.19483E+04  6144   0.825E+02
DAV:   2    -0.380303483327E+02   -0.26253E+03   -0.24965E+03  6576   0.238E+02
DAV:   3    -0.543402389340E+02   -0.16310E+02   -0.16092E+02 10656   0.535E+01
DAV:   4    -0.547300009622E+02   -0.38976E+00   -0.38846E+00  7456   0.595E+00
DAV:   5    -0.547391511632E+02   -0.91502E-02   -0.91690E-02  9600   0.855E-01    0.381E+01
RMM:   6    -0.557593553999E+02   -0.10202E+01   -0.49073E+00  6410   0.688E+00    0.196E+01
RMM:   7    -0.554458501994E+02    0.31351E+00   -0.16669E+00  6613   0.590E+00    0.107E+01
RMM:   8    -0.554696675348E+02   -0.23817E-01   -0.33208E-01  6534   0.336E+00    0.445E+00
RMM:   9    -0.554965002603E+02   -0.26833E-01   -0.92095E-02  6581   0.159E+00    0.244E+00
RMM:  10    -0.555031051334E+02   -0.66049E-02   -0.39793E-02  6407   0.104E+00    0.704E-01
RMM:  11    -0.555051725389E+02   -0.20674E-02   -0.47885E-03  5824   0.433E-01    0.248E-01
RMM:  12    -0.555057389300E+02   -0.56639E-03   -0.14101E-03  5464   0.202E-01
   1 F= -.55505739E+02 E0= -.55505739E+02  d E =-.555057E+02  mag=    -0.0065
 curvature:   0.00 expect dE= 0.000E+00 dE for cont linesearch  0.000E+00
 trial: gam= 0.00000 g(F)=  0.206E-02 g(S)=  0.909E-01 ort = 0.000E+00 (trialstep = 0.100E+01)
 search vector abs. value=  0.930E-01
 bond charge predicted
       N       E                     dE             d eps       ncg     rms          rms(c)
DAV:   1    -0.557738835180E+02   -0.26871E+00   -0.37735E+00  8624   0.888E+00    0.427E+00
RMM:   2    -0.556155935255E+02    0.15829E+00   -0.40656E-01  6811   0.266E+00    0.118E+00
RMM:   3    -0.555801981624E+02    0.35395E-01   -0.41402E-02  6694   0.135E+00    0.111E+00
RMM:   4    -0.555728530204E+02    0.73451E-02   -0.16892E-02  6485   0.624E-01    0.106E+00
RMM:   5    -0.555731185339E+02   -0.26551E-03   -0.68459E-03  6579   0.539E-01
   2 F= -.55573119E+02 E0= -.55573119E+02  d E =-.673796E-01  mag=    -0.0001
 ZBRENT: can't locate minimum, use default step
 trial-energy change:   -0.067380  1 .order   -0.082247   -0.092981   -0.071513
 step:   4.0000(harm=  4.3312)  dis= 0.01871  next Energy=   -55.707097 (dE=-0.201E+00)
 bond charge predicted
       N       E                     dE             d eps       ncg     rms          rms(c)
DAV:   1    -0.573167421941E+02   -0.17439E+01   -0.32903E+01  7392   0.260E+01    0.130E+01
RMM:   2    -0.559480521114E+02    0.13687E+01   -0.36369E+00  6720   0.788E+00    0.375E+00
RMM:   3    -0.555731307609E+02    0.37492E+00   -0.39051E-01  6553   0.428E+00    0.373E+00
RMM:   4    -0.555122917413E+02    0.60839E-01   -0.13727E-01  6853   0.182E+00    0.398E+00
RMM:   5    -0.555152244193E+02   -0.29327E-02   -0.65321E-02  7485   0.157E+00    0.813E-01
RMM:   6    -0.555092733741E+02    0.59510E-02   -0.92793E-02  7583   0.962E-01    0.547E-01
RMM:   7    -0.555119390170E+02   -0.26656E-02   -0.23292E-02  7315   0.814E-01    0.354E-01
RMM:   8    -0.555135880936E+02   -0.16491E-02   -0.99022E-03  7060   0.251E-01    0.540E-01
RMM:   9    -0.555137506090E+02   -0.16252E-03   -0.17469E-03  5910   0.195E-01
   3 F= -.55513751E+02 E0= -.55513751E+02  d E =-.801168E-02  mag=    -0.0000
 curvature:  -2.14 expect dE=-0.538E+00 dE for cont linesearch -0.167E+00
 ZBRENT: interpolating
 opt :   2.3706  next Energy=   -55.622125 (dE=-0.116E+00)
 bond charge predicted
       N       E                     dE             d eps       ncg     rms          rms(c)
DAV:   1    -0.560969054053E+02   -0.58332E+00   -0.97375E+00  8032   0.137E+01    0.655E+00
RMM:   2    -0.556887289674E+02    0.40818E+00   -0.97738E-01  6772   0.427E+00    0.185E+00
RMM:   3    -0.556075007919E+02    0.81228E-01   -0.12084E-01  6779   0.196E+00    0.132E+00
RMM:   4    -0.555871008884E+02    0.20400E-01   -0.62589E-02  6812   0.118E+00    0.125E+00
RMM:   5    -0.555903108866E+02   -0.32100E-02   -0.14330E-02  6942   0.792E-01    0.548E-01
RMM:   6    -0.555911371367E+02   -0.82625E-03   -0.17224E-02  7458   0.372E-01    0.209E-01
RMM:   7    -0.555913809124E+02   -0.24378E-03   -0.28029E-03  6201   0.223E-01
   4 F= -.55591381E+02 E0= -.55591381E+02  d E =-.856420E-01  mag=    -0.0000
 curvature:  -0.63 expect dE=-0.457E-01 dE for cont linesearch -0.356E-02
 trial: gam= 0.00000 g(F)=  0.633E-01 g(S)=  0.915E-02 ort =-0.229E-01 (trialstep = 0.127E+01)
 search vector abs. value=  0.725E-01
 bond charge predicted
       N       E                     dE             d eps       ncg     rms          rms(c)
DAV:   1    -0.555485824084E+02    0.42555E-01   -0.32453E+00  6352   0.837E+00    0.180E+00
RMM:   2    -0.555443249140E+02    0.42575E-02   -0.21997E-01  6474   0.184E+00    0.966E-01
RMM:   3    -0.555378103739E+02    0.65145E-02   -0.21682E-02  6430   0.142E+00    0.430E-01
RMM:   4    -0.555377355708E+02    0.74803E-04   -0.60373E-03  6383   0.334E-01
   5 F= -.55537736E+02 E0= -.55537736E+02  d E =0.536453E-01  mag=    -0.0000
 trial-energy change:    0.053645  1 .order    0.063835   -0.092316    0.219985
 step:   0.4326(harm=  0.3766)  dis= 0.01420  next Energy=   -55.607450 (dE=-0.161E-01)
 bond charge predicted
       N       E                     dE             d eps       ncg     rms          rms(c)
DAV:   1    -0.556123085395E+02   -0.74498E-01   -0.14718E+00  6176   0.565E+00    0.128E+00
RMM:   2    -0.556114686664E+02    0.83987E-03   -0.10182E-01  6469   0.121E+00    0.715E-01
RMM:   3    -0.556079179378E+02    0.35507E-02   -0.79763E-03  6168   0.816E-01    0.214E-01
RMM:   4    -0.556076245375E+02    0.29340E-03   -0.17243E-03  5223   0.219E-01
   6 F= -.55607625E+02 E0= -.55607625E+02  d E =-.162436E-01  mag=     0.0000
 curvature:  -0.19 expect dE=-0.210E-02 dE for cont linesearch -0.898E-06
 trial: gam= 0.16286 g(F)=  0.101E-01 g(S)=  0.107E-02 ort =-0.589E-03 (trialstep = 0.111E+01)
 search vector abs. value=  0.129E-01
 reached required accuracy - stopping structural energy minimisation
