unknown system                          
           1
     3.744009   -0.001648   -0.135673
    -0.056116    5.925386   -0.418796
    -0.273073   -1.508344    6.439915
   H    Nb   H    Sr   H 
   5   1   8   1   1
Direct configuration=     1
   0.47580637  0.18392797  0.25609693
   0.34863057  0.08279471  0.25342415
   0.76441074  0.23041268  0.04671446
   0.21130048  0.89824148  0.95858940
   0.98708145  0.88008236  0.95260158
   0.10581159  0.64843956  0.67794888
   0.07800993  0.33504476  0.52034967
   0.09116540  0.59652570  0.39647980
   0.81461137  0.34879241  0.02940519
   0.72422231  0.72614906  0.25159263
   0.61211588  0.74121285  0.15733737
   0.38040435  0.52405359  0.85237548
   0.91222914  0.50241925  0.84632210
   0.08809039  0.92937893  0.60953539
   0.59669195  0.15697377  0.63919806
   0.59582109  0.65860291  0.58795489
unknown system                          
           1
     3.739625   -0.003243   -0.135287
    -0.058852    5.914443   -0.425125
    -0.271197   -1.511805    6.446831
   H    Nb   H    Sr   H 
   5   1   8   1   1
Direct configuration=     2
   0.47327001  0.18270592  0.25616148
   0.35174924  0.08450118  0.25296339
   0.76491210  0.23209439  0.04646011
   0.20874157  0.89749624  0.95823800
   0.98940203  0.87999488  0.95243527
   0.11079740  0.64833382  0.67882674
   0.07762993  0.33530127  0.52032712
   0.09087396  0.59642898  0.39687532
   0.81434407  0.34715017  0.03018096
   0.72510152  0.72608184  0.25235282
   0.61089420  0.74148618  0.15669310
   0.37895044  0.52441820  0.85157450
   0.91181686  0.50239470  0.84598529
   0.08861835  0.92942515  0.60981756
   0.59567764  0.15680663  0.63885325
   0.59362369  0.65843246  0.58818108
unknown system                          
           1
     3.741953   -0.002395   -0.135492
    -0.057399    5.920255   -0.421763
    -0.272193   -1.509967    6.443157
   H    Nb   H    Sr   H 
   5   1   8   1   1
Direct configuration=     3
   0.47461936  0.18335675  0.25612795
   0.35008989  0.08359248  0.25320686
   0.76464465  0.23119920  0.04659405
   0.21010257  0.89789335  0.95842488
   0.98816798  0.88004115  0.95252359
   0.10814637  0.64838926  0.67836107
   0.07783188  0.33516479  0.52033893
   0.09102910  0.59648044  0.39666552
   0.81448719  0.34802423  0.02977034
   0.72463424  0.72611737  0.25194952
   0.61154355  0.74134097  0.15703477
   0.37972319  0.52422446  0.85199926
   0.91203601  0.50240788  0.84616401
   0.08833766  0.92940042  0.60966782
   0.59621700  0.15689580  0.63903629
   0.59479237  0.65852346  0.58806115
unknown system                          
           1
     3.740493   -0.001672   -0.135906
    -0.056456    5.917478   -0.429200
    -0.272845   -1.516908    6.450084
   H    Nb   H    Sr   H 
   5   1   8   1   1
Direct configuration=     4
   0.47498257  0.18455135  0.25626794
   0.35036495  0.08293622  0.25261993
   0.76429116  0.23090379  0.04664075
   0.20899802  0.89742304  0.95831790
   0.98915386  0.87981619  0.95232446
   0.11041634  0.64846265  0.67855263
   0.07753078  0.33532369  0.52027810
   0.09091122  0.59640217  0.39722521
   0.81508235  0.34833646  0.03033514
   0.72438965  0.72621218  0.25176140
   0.61145129  0.74147351  0.15736968
   0.37901296  0.52429908  0.85149288
   0.91191619  0.50248300  0.84573762
   0.08894169  0.92941217  0.61004152
   0.59538714  0.15669397  0.63861773
   0.59357283  0.65832253  0.58834312
unknown system                          
           1
     3.740470   -0.001661   -0.135912
    -0.056441    5.917436   -0.429312
    -0.272855   -1.517013    6.450189
   H    Nb   H    Sr   H 
   5   1   8   1   1
Direct configuration=     5
   0.47498807  0.18456943  0.25627007
   0.35036911  0.08292627  0.25261105
   0.76428581  0.23089932  0.04664145
   0.20898131  0.89741592  0.95831627
   0.98916878  0.87981278  0.95232145
   0.11045069  0.64846376  0.67855553
   0.07752623  0.33532610  0.52027719
   0.09090944  0.59640099  0.39723367
   0.81509135  0.34834119  0.03034368
   0.72438595  0.72621361  0.25175856
   0.61144990  0.74147552  0.15737474
   0.37900221  0.52430021  0.85148523
   0.91191437  0.50248413  0.84573118
   0.08895083  0.92941236  0.61004716
   0.59537458  0.15669091  0.63861140
   0.59355438  0.65831949  0.58834737
unknown system                          
           1
     3.740203   -0.001820   -0.136194
    -0.056959    5.914378   -0.437597
    -0.272915   -1.524547    6.459688
   H    Nb   H    Sr   H 
   5   1   8   1   1
Direct configuration=     6
   0.47458216  0.18531119  0.25642571
   0.35153503  0.08282370  0.25194920
   0.76393576  0.23069947  0.04665685
   0.20912374  0.89715630  0.95841856
   0.98898993  0.87946122  0.95208038
   0.11045288  0.64856425  0.67846197
   0.07722801  0.33539280  0.52015778
   0.09091809  0.59630442  0.39782809
   0.81571383  0.34854786  0.03098355
   0.72429016  0.72629489  0.25169784
   0.61118628  0.74164747  0.15761599
   0.37885150  0.52417114  0.85115759
   0.91206524  0.50267485  0.84518425
   0.08960958  0.92944010  0.61052092
   0.59472557  0.15646833  0.63812233
   0.59319523  0.65809403  0.58866500
unknown system                          
           1
     3.739401   -0.002296   -0.137039
    -0.058511    5.905204   -0.462451
    -0.273096   -1.547149    6.488185
   H    Nb   H    Sr   H 
   5   1   8   1   1
Direct configuration=     7
   0.47336488  0.18753877  0.25689489
   0.35503312  0.08251403  0.24996621
   0.76288539  0.23009939  0.04670215
   0.20955087  0.89637704  0.95872398
   0.98845312  0.87840493  0.95135674
   0.11045957  0.64886571  0.67818208
   0.07633338  0.33559273  0.51980030
   0.09094383  0.59601608  0.39960844
   0.81758142  0.34917023  0.03290140
   0.72400283  0.72653876  0.25151623
   0.61039546  0.74216437  0.15833936
   0.37839929  0.52378268  0.85017550
   0.91251813  0.50324602  0.84354655
   0.09158589  0.92952477  0.61194040
   0.59277832  0.15579861  0.63665620
   0.59211748  0.65741787  0.58961558
unknown system                          
           1
     3.739016   -0.002525   -0.137445
    -0.059256    5.900801   -0.474379
    -0.273182   -1.557997    6.501862
   H    Nb   H    Sr   H 
   5   1   8   1   1
Direct configuration=     8
   0.47278129  0.18861117  0.25712334
   0.35671241  0.08236263  0.24901817
   0.76238096  0.22981065  0.04672256
   0.20975559  0.89600251  0.95886847
   0.98819513  0.87789570  0.95100883
   0.11046292  0.64901040  0.67804891
   0.07590404  0.33568841  0.51962978
   0.09095590  0.59587967  0.40045872
   0.81847795  0.34947232  0.03381928
   0.72386501  0.72665586  0.25142989
   0.61001595  0.74241400  0.15868600
   0.37818218  0.52359445  0.84970537
   0.91273591  0.50351874  0.84276502
   0.09253447  0.92956748  0.61261907
   0.59184350  0.15547432  0.63595409
   0.59159979  0.65709371  0.59006848
unknown system                          
           1
     3.739136   -0.002516   -0.137916
    -0.059382    5.899474   -0.479717
    -0.273751   -1.562945    6.509106
   H    Nb   H    Sr   H 
   5   1   8   1   1
Direct configuration=     9
   0.47262424  0.18930514  0.25727307
   0.35743639  0.08215466  0.24853312
   0.76229033  0.22999696  0.04666683
   0.20988982  0.89585713  0.95896530
   0.98801678  0.87768804  0.95088368
   0.11016282  0.64902465  0.67824479
   0.07566523  0.33557458  0.51946280
   0.09093896  0.59578831  0.40068814
   0.81874857  0.34928554  0.03427049
   0.72383531  0.72670543  0.25142742
   0.60981050  0.74253795  0.15883635
   0.37808168  0.52354866  0.84945547
   0.91281833  0.50363655  0.84239981
   0.09280188  0.92968645  0.61297183
   0.59165564  0.15531133  0.63559601
   0.59162652  0.65695061  0.59025090
unknown system                          
           1
     3.739497   -0.002491   -0.139330
    -0.059758    5.895493   -0.495729
    -0.275458   -1.577790    6.530840
   H    Nb   H    Sr   H 
   5   1   8   1   1
Direct configuration=    10
   0.47215333  0.19138822  0.25772354
   0.35960808  0.08152969  0.24707913
   0.76201850  0.23055604  0.04650026
   0.21029248  0.89542095  0.95925513
   0.98748163  0.87706457  0.95050806
   0.10926261  0.64906776  0.67883176
   0.07494874  0.33523266  0.51896208
   0.09088818  0.59551447  0.40137541
   0.81956045  0.34872574  0.03562226
   0.72374625  0.72685423  0.25142014
   0.60919426  0.74291020  0.15928718
   0.37778011  0.52341083  0.84870643
   0.91306554  0.50398954  0.84130565
   0.09360421  0.93004413  0.61402935
   0.59109194  0.15482153  0.63452244
   0.59170672  0.65652143  0.59079720
unknown system                          
           1
     3.739671   -0.002135   -0.140218
    -0.059172    5.896865   -0.498134
    -0.277016   -1.580509    6.535061
   H    Nb   H    Sr   H 
   5   1   8   1   1
Direct configuration=    11
   0.47190240  0.19172543  0.25785462
   0.36024533  0.08154257  0.24679933
   0.76188908  0.23047339  0.04643591
   0.21021775  0.89538381  0.95934407
   0.98745532  0.87707282  0.95057048
   0.10912909  0.64904274  0.67893963
   0.07476110  0.33492836  0.51876484
   0.09080284  0.59545741  0.40134503
   0.81976725  0.34879185  0.03579685
   0.72370095  0.72687718  0.25141289
   0.60914490  0.74296718  0.15941829
   0.37769198  0.52346176  0.84856057
   0.91291554  0.50394059  0.84121778
   0.09338835  0.93022006  0.61431377
   0.59141849  0.15470074  0.63428739
   0.59197262  0.65646610  0.59086455
unknown system                          
           1
     3.740194   -0.001068   -0.142883
    -0.057411    5.900980   -0.505348
    -0.281693   -1.588667    6.547723
   H    Nb   H    Sr   H 
   5   1   8   1   1
Direct configuration=    12
   0.47114963  0.19273705  0.25824789
   0.36215667  0.08158090  0.24596073
   0.76150082  0.23022542  0.04624282
   0.20999369  0.89527249  0.95961064
   0.98737648  0.87709763  0.95075763
   0.10872865  0.64896781  0.67926298
   0.07419812  0.33401543  0.51817310
   0.09054682  0.59528626  0.40125385
   0.82038780  0.34899027  0.03632045
   0.72356507  0.72694601  0.25139119
   0.60899695  0.74313821  0.15981141
   0.37742743  0.52361440  0.84812327
   0.91246549  0.50379371  0.84095421
   0.09274108  0.93074805  0.61516660
   0.59239788  0.15433819  0.63358268
   0.59277040  0.65630016  0.59106655
unknown system                          
           1
     3.741239    0.001065   -0.148213
    -0.053890    5.909211   -0.519776
    -0.291046   -1.604983    6.573049
   H    Nb   H    Sr   H 
   5   1   8   1   1
Direct configuration=    13
   0.46964436  0.19476027  0.25903452
   0.36597702  0.08165576  0.24428822
   0.76072414  0.22972941  0.04585654
   0.20954631  0.89505045  0.96014239
   0.98721922  0.87714757  0.95113123
   0.10792867  0.64881864  0.67990800
   0.07307167  0.33218935  0.51698940
   0.09003478  0.59494395  0.40107124
   0.82162979  0.34938780  0.03736666
   0.72329322  0.72708360  0.25134789
   0.60870183  0.74348087  0.16059644
   0.37689729  0.52391881  0.84725040
   0.91156500  0.50349966  0.84042739
   0.09144817  0.93180520  0.61686973
   0.59435515  0.15361199  0.63217587
   0.59436637  0.65596866  0.59147008
unknown system                          
           1
     3.741399    0.001330   -0.148996
    -0.053452    5.910164   -0.521965
    -0.292418   -1.607426    6.576290
   H    Nb   H    Sr   H 
   5   1   8   1   1
Direct configuration=    14
   0.46946929  0.19517023  0.25918021
   0.36653968  0.08159670  0.24401687
   0.76066083  0.22976525  0.04577296
   0.20946589  0.89502029  0.96023030
   0.98718885  0.87717389  0.95120917
   0.10789878  0.64874076  0.67979901
   0.07291395  0.33195513  0.51683969
   0.08993683  0.59491349  0.40111554
   0.82175507  0.34932975  0.03751576
   0.72331443  0.72709239  0.25139790
   0.60859691  0.74354453  0.16067199
   0.37684048  0.52395212  0.84713675
   0.91140486  0.50344844  0.84035719
   0.09126359  0.93193300  0.61718426
   0.59461246  0.15349420  0.63195839
   0.59454110  0.65592181  0.59154002
unknown system                          
           1
     3.741877    0.002124   -0.151345
    -0.052139    5.913024   -0.528532
    -0.296536   -1.614754    6.586013
   H    Nb   H    Sr   H 
   5   1   8   1   1
Direct configuration=    15
   0.46894414  0.19640015  0.25961740
   0.36822736  0.08141928  0.24320332
   0.76047081  0.22987271  0.04552234
   0.20922472  0.89492988  0.96049383
   0.98709781  0.87725290  0.95144288
   0.10780903  0.64850705  0.67947210
   0.07244070  0.33125239  0.51639048
   0.08964303  0.59482216  0.40124832
   0.82213107  0.34915575  0.03796284
   0.72337813  0.72711882  0.25154788
   0.60828220  0.74373559  0.16089857
   0.37666995  0.52405194  0.84679599
   0.91092441  0.50329472  0.84014658
   0.09071016  0.93231666  0.61812745
   0.59538415  0.15314067  0.63130624
   0.59506534  0.65578133  0.59174977
unknown system                          
           1
     3.742835    0.003714   -0.156043
    -0.049511    5.918745   -0.541665
    -0.304773   -1.629410    6.605459
   H    Nb   H    Sr   H 
   5   1   8   1   1
Direct configuration=    16
   0.46789414  0.19886025  0.26049260
   0.37160084  0.08106299  0.24157932
   0.76009025  0.23008716  0.04502189
   0.20874302  0.89474957  0.96101982
   0.98691617  0.87741131  0.95190976
   0.10762902  0.64803917  0.67881868
   0.07149381  0.32984647  0.51549162
   0.08905581  0.59463978  0.40151311
   0.82288398  0.34880856  0.03885569
   0.72350578  0.72717193  0.25184751
   0.60765320  0.74411803  0.16135125
   0.37632817  0.52425098  0.84611547
   0.90996325  0.50298702  0.83972531
   0.08960508  0.93308546  0.62001160
   0.59692628  0.15243258  0.63000360
   0.59611422  0.65550074  0.59216877
unknown system                          
           1
     3.742699    0.003422   -0.156450
    -0.049990    5.917443   -0.543552
    -0.305373   -1.631190    6.604895
   H    Nb   H    Sr   H 
   5   1   8   1   1
Direct configuration=    17
   0.46759660  0.19924466  0.26067091
   0.37240484  0.08112407  0.24130974
   0.76001404  0.23010913  0.04489695
   0.20863057  0.89468434  0.96107396
   0.98688521  0.87740532  0.95194527
   0.10779217  0.64782361  0.67852437
   0.07143852  0.32983235  0.51545881
   0.08890254  0.59465164  0.40169490
   0.82298472  0.34873852  0.03893228
   0.72350281  0.72717143  0.25189626
   0.60758302  0.74418509  0.16146176
   0.37635553  0.52421522  0.84602916
   0.90992933  0.50304114  0.83953937
   0.08968827  0.93306129  0.62048112
   0.59675794  0.15230070  0.62977858
   0.59593690  0.65546348  0.59223257
unknown system                          
           1
     3.742293    0.002546   -0.157668
    -0.051426    5.913539   -0.549213
    -0.307174   -1.636528    6.603205
   H    Nb   H    Sr   H 
   5   1   8   1   1
Direct configuration=    18
   0.46670421  0.20039836  0.26120621
   0.37481682  0.08130727  0.24050110
   0.75978536  0.23017491  0.04452208
   0.20829322  0.89448860  0.96123629
   0.98679233  0.87738740  0.95205183
   0.10828140  0.64717644  0.67764116
   0.07127265  0.32978991  0.51536036
   0.08844279  0.59468738  0.40224030
   0.82328698  0.34852845  0.03916206
   0.72349390  0.72716999  0.25204254
   0.60737255  0.74438642  0.16179339
   0.37643757  0.52410784  0.84577016
   0.90982748  0.50320338  0.83898152
   0.08993811  0.93298925  0.62188983
   0.59625271  0.15190469  0.62910329
   0.59540493  0.65535170  0.59242390
unknown system                          
           1
     3.741480    0.000793   -0.160105
    -0.054297    5.905732   -0.560534
    -0.310776   -1.647205    6.599823
   H    Nb   H    Sr   H 
   5   1   8   1   1
Direct configuration=    19
   0.46492087  0.20270859  0.26227900
   0.37964073  0.08167339  0.23888459
   0.75932760  0.23030575  0.04377212
   0.20761842  0.89409695  0.96156055
   0.98660664  0.87735170  0.95226493
   0.10925844  0.64587936  0.67587310
   0.07094072  0.32970469  0.51516323
   0.08752378  0.59475983  0.40333135
   0.82389161  0.34810851  0.03962150
   0.72347625  0.72716741  0.25233518
   0.60695209  0.74479003  0.16245716
   0.37660129  0.52389239  0.84525182
   0.90962333  0.50352701  0.83786571
   0.09043924  0.93284795  0.62470823
   0.59524105  0.15111037  0.62775127
   0.59434095  0.65512809  0.59280627
unknown system                          
           1
     3.741950    0.000789   -0.159769
    -0.054384    5.907823   -0.561024
    -0.310272   -1.648443    6.598604
   H    Nb   H    Sr   H 
   5   1   8   1   1
Direct configuration=    20
   0.46519141  0.20350315  0.26250201
   0.37966067  0.08112440  0.23867058
   0.75890077  0.22956533  0.04371872
   0.20767553  0.89401394  0.96149278
   0.98653225  0.87714616  0.95206207
   0.10883231  0.64660956  0.67750626
   0.07099758  0.32939072  0.51493730
   0.08740756  0.59458611  0.40266103
   0.82427701  0.34879984  0.03949133
   0.72351512  0.72715140  0.25240604
   0.60691447  0.74482461  0.16247536
   0.37677378  0.52374473  0.84519857
   0.90984934  0.50359994  0.83760058
   0.09071113  0.93294679  0.62487934
   0.59483797  0.15095152  0.62765274
   0.59432608  0.65509381  0.59267129
unknown system                          
           1
     3.742146    0.000787   -0.159629
    -0.054419    5.908692   -0.561228
    -0.310063   -1.648958    6.598097
   H    Nb   H    Sr   H 
   5   1   8   1   1
Direct configuration=    21
   0.46530388  0.20383342  0.26259477
   0.37966896  0.08089619  0.23858158
   0.75872331  0.22925757  0.04369651
   0.20769928  0.89397943  0.96146459
   0.98650134  0.87706071  0.95197771
   0.10865509  0.64691324  0.67818546
   0.07102122  0.32926020  0.51484334
   0.08735928  0.59451383  0.40238227
   0.82443724  0.34908717  0.03943720
   0.72353128  0.72714475  0.25243550
   0.60689884  0.74483898  0.16248293
   0.37684549  0.52368335  0.84517641
   0.90994332  0.50363023  0.83749032
   0.09082415  0.93298789  0.62495049
   0.59467041  0.15088549  0.62761177
   0.59431991  0.65507954  0.59261515
unknown system                          
           1
     3.742246    0.000116   -0.159339
    -0.055554    5.907767   -0.561940
    -0.309368   -1.649663    6.595623
   H    Nb   H    Sr   H 
   5   1   8   1   1
Direct configuration=    22
   0.46499871  0.20392282  0.26269939
   0.38034304  0.08111794  0.23848424
   0.75879774  0.22944381  0.04357189
   0.20786936  0.89397273  0.96150468
   0.98626766  0.87692340  0.95187474
   0.10847224  0.64724828  0.67859944
   0.07109170  0.32918616  0.51477239
   0.08723148  0.59447090  0.40212962
   0.82431316  0.34883901  0.03931338
   0.72351337  0.72713383  0.25247529
   0.60691418  0.74487569  0.16256318
   0.37709959  0.52349202  0.84524002
   0.90999117  0.50360207  0.83738999
   0.09109693  0.93308127  0.62525003
   0.59423886  0.15068847  0.62750631
   0.59416382  0.65505361  0.59255140
unknown system                          
           1
     3.742406   -0.000962   -0.158872
    -0.057377    5.906282   -0.563083
    -0.308253   -1.650797    6.591648
   H    Nb   H    Sr   H 
   5   1   8   1   1
Direct configuration=    23
   0.46450850  0.20406646  0.26286757
   0.38142605  0.08147431  0.23832783
   0.75891743  0.22974301  0.04337165
   0.20814257  0.89396199  0.96156910
   0.98589223  0.87670270  0.95170924
   0.10817858  0.64778676  0.67926484
   0.07120489  0.32906718  0.51465834
   0.08702621  0.59440181  0.40172358
   0.82411373  0.34844020  0.03911434
   0.72348457  0.72711629  0.25253923
   0.60693882  0.74493469  0.16269216
   0.37750767  0.52318464  0.84534218
   0.91006804  0.50355680  0.83722874
   0.09153510  0.93323147  0.62573142
   0.59354553  0.15037179  0.62733682
   0.59391306  0.65501189  0.59244895
unknown system                          
           1
     3.742435   -0.001418   -0.158640
    -0.058175    5.905923   -0.564116
    -0.307783   -1.652108    6.588445
   H    Nb   H    Sr   H 
   5   1   8   1   1
Direct configuration=    24
   0.46432968  0.20444861  0.26304348
   0.38204728  0.08146577  0.23815201
   0.75886884  0.22970964  0.04323423
   0.20824900  0.89398349  0.96166026
   0.98567825  0.87660860  0.95167144
   0.10820556  0.64780014  0.67921934
   0.07126734  0.32909391  0.51464481
   0.08687756  0.59442756  0.40162313
   0.82410569  0.34840107  0.03896021
   0.72348994  0.72710219  0.25260937
   0.60692513  0.74498498  0.16276942
   0.37772308  0.52301001  0.84542442
   0.91003911  0.50349276  0.83719201
   0.09176930  0.93338008  0.62610908
   0.59313398  0.15014676  0.62720633
   0.59369326  0.65499645  0.59240648
unknown system                          
           1
     3.742521   -0.002785   -0.157946
    -0.060570    5.904847   -0.567213
    -0.306374   -1.656042    6.578836
   H    Nb   H    Sr   H 
   5   1   8   1   1
Direct configuration=    25
   0.46379347  0.20559533  0.26357170
   0.38391101  0.08144007  0.23762423
   0.75872309  0.22960934  0.04282174
   0.20856828  0.89404811  0.96193388
   0.98503624  0.87632620  0.95155794
   0.10828650  0.64784026  0.67908277
   0.07145472  0.32917410  0.51460419
   0.08643165  0.59450468  0.40132164
   0.82408157  0.34828349  0.03849756
   0.72350603  0.72705996  0.25281987
   0.60688410  0.74513593  0.16300132
   0.37836914  0.52248617  0.84567115
   0.90995228  0.50330056  0.83708170
   0.09247191  0.93382642  0.62724270
   0.59189919  0.14947134  0.62681460
   0.59303384  0.65495003  0.59227901
unknown system                          
           1
     3.742692   -0.005518   -0.156558
    -0.065359    5.902694   -0.573409
    -0.303555   -1.663910    6.559618
   H    Nb   H    Sr   H 
   5   1   8   1   1
Direct configuration=    26
   0.46272240  0.20789047  0.26463105
   0.38763856  0.08138826  0.23656668
   0.75843164  0.22940771  0.04199541
   0.20920679  0.89417814  0.96248198
   0.98375193  0.87576069  0.95133043
   0.10844849  0.64792026  0.67880923
   0.07182958  0.32933452  0.51452288
   0.08554009  0.59465812  0.40071789
   0.82403338  0.34804723  0.03757072
   0.72353805  0.72697594  0.25324148
   0.60680213  0.74543841  0.16346601
   0.37966041  0.52143898  0.84616472
   0.90977841  0.50291577  0.83686057
   0.09387718  0.93472219  0.62951378
   0.58942892  0.14811870  0.62602943
   0.59171503  0.65485662  0.59202373
unknown system                          
           1
     3.742204   -0.005738   -0.156761
    -0.065734    5.902671   -0.575061
    -0.303971   -1.666176    6.554969
   H    Nb   H    Sr   H 
   5   1   8   1   1
Direct configuration=    27
   0.46228192  0.20852473  0.26495316
   0.38896418  0.08149079  0.23621326
   0.75823665  0.22915099  0.04173832
   0.20879780  0.89419617  0.96267445
   0.98387018  0.87570449  0.95141778
   0.10872297  0.64745119  0.67879890
   0.07182665  0.32929904  0.51444065
   0.08526622  0.59475388  0.40053990
   0.82412599  0.34815893  0.03726142
   0.72355285  0.72696237  0.25338589
   0.60675763  0.74555063  0.16362670
   0.37967328  0.52132502  0.84615124
   0.90970723  0.50279957  0.83682120
   0.09396106  0.93508906  0.63023199
   0.58914011  0.14774344  0.62573380
   0.59151828  0.65485169  0.59193735
unknown system                          
           1
     3.740741   -0.006395   -0.157368
    -0.066860    5.902603   -0.580014
    -0.305217   -1.672972    6.541025
   H    Nb   H    Sr   H 
   5   1   8   1   1
Direct configuration=    28
   0.46096072  0.21042819  0.26592070
   0.39294140  0.08179796  0.23515242
   0.75765137  0.22838030  0.04096624
   0.20757079  0.89425058  0.96325226
   0.98422499  0.87553606  0.95167999
   0.10954633  0.64604389  0.67876756
   0.07181779  0.32919245  0.51419373
   0.08444443  0.59504084  0.40000556
   0.82440374  0.34849353  0.03633290
   0.72359734  0.72692190  0.25381943
   0.60662425  0.74588758  0.16410920
   0.37971184  0.52098310  0.84611068
   0.90949358  0.50245086  0.83670291
   0.09421328  0.93619107  0.63238854
   0.58827326  0.14661699  0.62484590
   0.59092788  0.65483672  0.59167797
unknown system                          
           1
     3.740765   -0.005947   -0.158224
    -0.066013    5.902621   -0.579821
    -0.306840   -1.672647    6.542841
   H    Nb   H    Sr   H 
   5   1   8   1   1
Direct configuration=    29
   0.46066420  0.21053142  0.26600205
   0.39359783  0.08198456  0.23499230
   0.75797265  0.22900032  0.04084333
   0.20724164  0.89426238  0.96340335
   0.98434882  0.87560388  0.95191067
   0.10922864  0.64651186  0.67881862
   0.07160961  0.32868626  0.51390615
   0.08443705  0.59504630  0.39997256
   0.82405648  0.34781330  0.03624023
   0.72362344  0.72693702  0.25389145
   0.60655993  0.74596208  0.16417882
   0.37950254  0.52103774  0.84599577
   0.90940736  0.50227509  0.83677527
   0.09375662  0.93606919  0.63265919
   0.58896425  0.14652880  0.62467462
   0.59143195  0.65480180  0.59166163
unknown system                          
           1
     3.740784   -0.005613   -0.158863
    -0.065381    5.902635   -0.579677
    -0.308050   -1.672405    6.544194
   H    Nb   H    Sr   H 
   5   1   8   1   1
Direct configuration=    30
   0.46044328  0.21060833  0.26606261
   0.39408684  0.08212359  0.23487309
   0.75821188  0.22946228  0.04075179
   0.20699645  0.89427117  0.96351585
   0.98444113  0.87565439  0.95208250
   0.10899187  0.64686053  0.67885660
   0.07145449  0.32830915  0.51369193
   0.08443154  0.59505038  0.39994798
   0.82379784  0.34730650  0.03617118
   0.72364290  0.72694828  0.25394511
   0.60651202  0.74601758  0.16423067
   0.37934655  0.52107846  0.84591016
   0.90934317  0.50214412  0.83682917
   0.09341647  0.93597837  0.63286074
   0.58947905  0.14646308  0.62454711
   0.59180751  0.65477578  0.59164950
unknown system                          
           1
     3.740941   -0.004592   -0.160016
    -0.063600    5.904294   -0.579873
    -0.310425   -1.672953    6.546830
   H    Nb   H    Sr   H 
   5   1   8   1   1
Direct configuration=    31
   0.46012808  0.21101239  0.26623876
   0.39495215  0.08216035  0.23457529
   0.75810212  0.22932963  0.04062430
   0.20669362  0.89431652  0.96375728
   0.98442756  0.87574779  0.95241693
   0.10871507  0.64687869  0.67886781
   0.07119383  0.32779657  0.51337541
   0.08440405  0.59511314  0.39992768
   0.82386602  0.34735040  0.03599268
   0.72365238  0.72697355  0.25402856
   0.60644054  0.74612364  0.16435408
   0.37900412  0.52118802  0.84572818
   0.90929003  0.50198697  0.83686982
   0.09286270  0.93597548  0.63325272
   0.59030251  0.14634407  0.62428535
   0.59236821  0.65475478  0.59163113
unknown system                          
           1
     3.741411   -0.001530   -0.163476
    -0.058258    5.909271   -0.580461
    -0.317553   -1.674596    6.554739
   H    Nb   H    Sr   H 
   5   1   8   1   1
Direct configuration=    32
   0.45918224  0.21222436  0.26676684
   0.39754741  0.08227031  0.23368264
   0.75777283  0.22893181  0.04024195
   0.20578553  0.89445263  0.96448112
   0.98438730  0.87602790  0.95341983
   0.10788471  0.64693324  0.67890126
   0.07041204  0.32625939  0.51242612
   0.08432145  0.59530140  0.39986682
   0.82407018  0.34748203  0.03545742
   0.72368094  0.72704934  0.25427882
   0.60622616  0.74644173  0.16472414
   0.37797639  0.52151675  0.84518229
   0.90913090  0.50151568  0.83699172
   0.09120216  0.93596698  0.63442795
   0.59277250  0.14598684  0.62350077
   0.59405024  0.65469161  0.59157629
unknown system                          
           1
     3.741513   -0.001142   -0.164045
    -0.057648    5.908818   -0.582511
    -0.318676   -1.676658    6.556023
   H    Nb   H    Sr   H 
   5   1   8   1   1
Direct configuration=    33
   0.45856736  0.21265813  0.26697466
   0.39906552  0.08256505  0.23327983
   0.75760712  0.22877058  0.04003881
   0.20574690  0.89447390  0.96479200
   0.98393791  0.87603343  0.95377657
   0.10807089  0.64585225  0.67864964
   0.07023071  0.32621267  0.51228541
   0.08424189  0.59550625  0.40000927
   0.82415196  0.34750467  0.03516609
   0.72365543  0.72708101  0.25437411
   0.60613234  0.74661169  0.16494292
   0.37768265  0.52154104  0.84500378
   0.90921052  0.50149065  0.83686819
   0.09108189  0.93625974  0.63504175
   0.59297680  0.14580193  0.62313333
   0.59404314  0.65468901  0.59158963
unknown system                          
           1
     3.741620   -0.000733   -0.164644
    -0.057006    5.908339   -0.584672
    -0.319861   -1.678833    6.557377
   H    Nb   H    Sr   H 
   5   1   8   1   1
Direct configuration=    34
   0.45791907  0.21311565  0.26719383
   0.40066595  0.08287566  0.23285543
   0.75743237  0.22860049  0.03982460
   0.20570626  0.89449643  0.96511973
   0.98346420  0.87603940  0.95415260
   0.10826725  0.64471222  0.67838402
   0.07003948  0.32616337  0.51213705
   0.08415802  0.59572232  0.40015951
   0.82423810  0.34752844  0.03485900
   0.72362855  0.72711444  0.25447456
   0.60603346  0.74679100  0.16517361
   0.37737289  0.52156661  0.84481559
   0.90929443  0.50146421  0.83673797
   0.09095522  0.93656867  0.63568890
   0.59319210  0.14560681  0.62274593
   0.59403566  0.65468628  0.59160369
unknown system                          
           1
     3.741655   -0.000740   -0.164720
    -0.057103    5.907754   -0.586929
    -0.319969   -1.681111    6.557950
   H    Nb   H    Sr   H 
   5   1   8   1   1
Direct configuration=    35
   0.45747561  0.21368203  0.26741695
   0.40188841  0.08294633  0.23246800
   0.75739512  0.22865909  0.03963776
   0.20552908  0.89442190  0.96530251
   0.98325050  0.87595014  0.95434763
   0.10836643  0.64453363  0.67830280
   0.06993496  0.32607042  0.51199141
   0.08409143  0.59584069  0.40026275
   0.82419850  0.34734910  0.03461329
   0.72361949  0.72713330  0.25456428
   0.60593716  0.74694076  0.16535162
   0.37735933  0.52141974  0.84475316
   0.90932784  0.50137398  0.83661686
   0.09107673  0.93669972  0.63622341
   0.59306729  0.14539314  0.62244952
   0.59388511  0.65463805  0.59162407
unknown system                          
           1
     3.741760   -0.000758   -0.164949
    -0.057397    5.906000   -0.593701
    -0.320296   -1.687946    6.559671
   H    Nb   H    Sr   H 
   5   1   8   1   1