   21   21   60    1
  0.1200658E+02  0.6494550E-09  0.6891140E-09  0.6875336E-09  0.5000000E-15
  1.000000000000000E-004
  CAR 
 unknown system                          
     76    148     52
 
  0.3742002E-15  0.3742002E-15  0.3742002E-15  0.3401361E-02
    1      -33.167070   1.000000
    2      -33.070437   1.000000
    3      -32.876218   1.000000
    4      -32.672208   1.000000
    5      -32.583348   1.000000
    6      -29.042859   1.000000
    7      -29.022862   1.000000
    8      -28.994170   1.000000
    9      -15.385261   1.000000
   10      -15.363344   1.000000
   11      -15.320594   1.000000
   12      -15.222470   1.000000
   13      -15.192856   1.000000
   14      -15.091373   1.000000
   15      -15.048314   1.000000
   16      -14.976964   1.000000
   17      -14.906593   1.000000
   18      -14.827433   1.000000
   19      -14.792039   1.000000
   20      -14.721746   1.000000
   21      -14.664937   1.000000
   22      -14.563785   1.000000
   23      -14.501788   1.000000
   24       -5.249786   1.000000
   25       -2.542342   1.000000
   26       -2.217141   1.000000
   27       -2.077328   1.000000
   28       -1.865588   1.000000
   29       -1.697306   1.000000
   30       -1.562631   1.000000
   31       -1.432008   1.000000
   32       -1.101970   1.000000
   33       -1.062060   1.000000
   34       -0.831754   1.000000
   35       -0.475497   1.000000
   36       -0.472929   1.000000
   37        0.070098   1.000000
   38        1.041079   0.690155
   39        3.441324   0.000000
   40        3.616543   0.000000
   41        3.937880   0.000000
   42        4.174270   0.000000
   43        4.634981   0.000000
   44        5.076451   0.000000
   45        5.150958   0.000000
   46        5.403331   0.000000
   47        5.634071   0.000000
   48        6.041579   0.000000
   49        6.233733   0.000000
   50        6.262900   0.000000
   51        6.516545   0.000000
   52        6.703181   0.000000
 
  0.1428571E+00  0.3477307E-15  0.3642919E-15  0.6802721E-02
    1      -33.166706   1.000000
    2      -33.070798   1.000000
    3      -32.875963   1.000000
    4      -32.671839   1.000000
    5      -32.584016   1.000000
    6      -29.042820   1.000000
    7      -29.022913   1.000000
    8      -28.994168   1.000000
    9      -15.388848   1.000000
   10      -15.358890   1.000000
   11      -15.319434   1.000000
   12      -15.232077   1.000000
   13      -15.187502   1.000000
   14      -15.096782   1.000000
   15      -15.056677   1.000000
   16      -14.975456   1.000000
   17      -14.904831   1.000000
   18      -14.800951   1.000000
   19      -14.780530   1.000000
   20      -14.721382   1.000000
   21      -14.663848   1.000000
   22      -14.574103   1.000000
   23      -14.520759   1.000000
   24       -5.159299   1.000000
   25       -2.620353   1.000000
   26       -2.193001   1.000000
   27       -2.087258   1.000000
   28       -1.949469   1.000000
   29       -1.707588   1.000000
   30       -1.587947   1.000000
   31       -1.400948   1.000000
   32       -1.205225   1.000000
   33       -1.050496   1.000000
   34       -0.812905   1.000000
   35       -0.562905   1.000000
   36       -0.274636   1.000000
   37        0.079326   1.000000
   38        0.966221   1.051397
   39        3.486654   0.000000
   40        3.673805   0.000000
   41        3.957708   0.000000
   42        4.085478   0.000000
   43        4.473086   0.000000
   44        4.916074   0.000000
   45        5.109262   0.000000
   46        5.511191   0.000000
   47        5.771297   0.000000
   48        5.963618   0.000000
   49        6.171323   0.000000
   50        6.311444   0.000000
   51        6.481890   0.000000
   52        6.743148   0.000000
 
  0.2857143E+00  0.3349643E-15  0.3538836E-15  0.6802721E-02
    1      -33.165877   1.000000
    2      -33.071623   1.000000
    3      -32.875400   1.000000
    4      -32.670947   1.000000
    5      -32.585575   1.000000
    6      -29.042657   1.000000
    7      -29.022952   1.000000
    8      -28.994088   1.000000
    9      -15.397916   1.000000
   10      -15.348895   1.000000
   11      -15.314012   1.000000
   12      -15.250776   1.000000
   13      -15.176768   1.000000
   14      -15.104390   1.000000
   15      -15.055248   1.000000
   16      -14.978716   1.000000
   17      -14.905087   1.000000
   18      -14.774721   1.000000
   19      -14.749000   1.000000
   20      -14.723625   1.000000
   21      -14.662185   1.000000
   22      -14.598366   1.000000
   23      -14.546009   1.000000
   24       -4.926418   1.000000
   25       -2.878069   1.000000
   26       -2.205690   1.000000
   27       -2.072023   1.000000
   28       -1.993753   1.000000
   29       -1.718757   1.000000
   30       -1.621883   1.000000
   31       -1.470443   1.000000
   32       -1.305341   1.000000
   33       -0.990870   1.000000
   34       -0.843640   1.000000
   35       -0.527201   1.000000
   36       -0.132543   1.000000
   37        0.147529   1.000000
   38        0.782029   0.999213
   39        3.469966   0.000000
   40        3.799324   0.000000
   41        3.862731   0.000000
   42        4.174974   0.000000
   43        4.368895   0.000000
   44        4.669422   0.000000
   45        5.171840   0.000000
   46        5.385523   0.000000
   47        5.880740   0.000000
   48        6.018863   0.000000
   49        6.197417   0.000000
   50        6.343328   0.000000
   51        6.632168   0.000000
   52        6.828139   0.000000
 
  0.4285714E+00  0.2945574E-15  0.3469447E-15  0.6802721E-02
    1      -33.165202   1.000000
    2      -33.072301   1.000000
    3      -32.874960   1.000000
    4      -32.670164   1.000000
    5      -32.586887   1.000000
    6      -29.042572   1.000000
    7      -29.022916   1.000000
    8      -28.994038   1.000000
    9      -15.405569   1.000000
   10      -15.340798   1.000000
   11      -15.310484   1.000000
   12      -15.261316   1.000000
   13      -15.170886   1.000000
   14      -15.104680   1.000000
   15      -15.036995   1.000000
   16      -14.981232   1.000000
   17      -14.905969   1.000000
   18      -14.801461   1.000000
   19      -14.742822   1.000000
   20      -14.715298   1.000000
   21      -14.663403   1.000000
   22      -14.585276   1.000000
   23      -14.562040   1.000000
   24       -4.689811   1.000000
   25       -3.130572   1.000000
   26       -2.368899   1.000000
   27       -2.044218   1.000000
   28       -1.887637   1.000000
   29       -1.715185   1.000000
   30       -1.614533   1.000000
   31       -1.557313   1.000000
   32       -1.310276   1.000000
   33       -0.986766   1.000000
   34       -0.888693   1.000000
   35       -0.448432   1.000000
   36       -0.134848   1.000000
   37        0.235065   1.000000
   38        0.629680   1.000000
   39        3.299002   0.000000
   40        3.882502   0.000000
   41        4.057401   0.000000
   42        4.178309   0.000000
   43        4.381824   0.000000
   44        4.564724   0.000000
   45        5.201160   0.000000
   46        5.376465   0.000000
   47        5.909703   0.000000
   48        5.999813   0.000000
   49        6.341588   0.000000
   50        6.462547   0.000000
   51        6.568224   0.000000
   52        6.734232   0.000000
 
  0.3739413E-15  0.1428571E+00  0.3747003E-15  0.6802721E-02
    1      -33.166784   1.000000
    2      -33.070626   1.000000
    3      -32.876059   1.000000
    4      -32.672242   1.000000
    5      -32.583619   1.000000
    6      -29.042844   1.000000
    7      -29.022846   1.000000
    8      -28.994193   1.000000
    9      -15.377480   1.000000
   10      -15.356664   1.000000
   11      -15.317886   1.000000
   12      -15.224579   1.000000
   13      -15.192278   1.000000
   14      -15.095891   1.000000
   15      -15.063053   1.000000
   16      -14.956865   1.000000
   17      -14.909522   1.000000
   18      -14.834261   1.000000
   19      -14.774789   1.000000
   20      -14.722910   1.000000
   21      -14.668732   1.000000
   22      -14.584220   1.000000
   23      -14.505939   1.000000
   24       -5.159019   1.000000
   25       -2.609587   1.000000
   26       -2.226752   1.000000
   27       -2.129135   1.000000
   28       -1.891607   1.000000
   29       -1.688428   1.000000
   30       -1.601893   1.000000
   31       -1.371682   1.000000
   32       -1.162293   1.000000
   33       -1.043430   1.000000
   34       -0.770117   1.000000
   35       -0.530496   1.000000
   36       -0.418192   1.000000
   37        0.017996   1.000000
   38        1.016828   0.893592
   39        3.497545   0.000000
   40        3.625838   0.000000
   41        3.957403   0.000000
   42        4.145210   0.000000
   43        4.501943   0.000000
   44        4.900271   0.000000
   45        5.334536   0.000000
   46        5.457018   0.000000
   47        5.610146   0.000000
   48        5.988915   0.000000
   49        6.223556   0.000000
   50        6.387186   0.000000
   51        6.530398   0.000000
   52        6.723899   0.000000
 
  0.1428571E+00  0.1428571E+00  0.3677614E-15  0.6802721E-02
    1      -33.166670   1.000000
    2      -33.070732   1.000000
    3      -32.876040   1.000000
    4      -32.671911   1.000000
    5      -32.583988   1.000000
    6      -29.042791   1.000000
    7      -29.022872   1.000000
    8      -28.994187   1.000000
    9      -15.380752   1.000000
   10      -15.358171   1.000000
   11      -15.316353   1.000000
   12      -15.225276   1.000000
   13      -15.186632   1.000000
   14      -15.099402   1.000000
   15      -15.053868   1.000000
   16      -14.976658   1.000000
   17      -14.917396   1.000000
   18      -14.808501   1.000000
   19      -14.779038   1.000000
   20      -14.721993   1.000000
   21      -14.668025   1.000000
   22      -14.575425   1.000000
   23      -14.517484   1.000000
   24       -5.147461   1.000000
   25       -2.583007   1.000000
   26       -2.227054   1.000000
   27       -2.141955   1.000000
   28       -1.864338   1.000000
   29       -1.711288   1.000000
   30       -1.587292   1.000000
   31       -1.385551   1.000000
   32       -1.189944   1.000000
   33       -1.079403   1.000000
   34       -0.733577   1.000000
   35       -0.646048   1.000000
   36       -0.290919   1.000000
   37        0.044806   1.000000
   38        0.943688   1.041462
   39        3.514117   0.000000
   40        3.688180   0.000000
   41        3.871858   0.000000
   42        4.134966   0.000000
   43        4.630405   0.000000
   44        4.918730   0.000000
   45        5.142232   0.000000
   46        5.410385   0.000000
   47        5.724025   0.000000
   48        5.853296   0.000000
   49        6.196043   0.000000
   50        6.341513   0.000000
   51        6.509516   0.000000
   52        6.712545   0.000000
 
  0.2857143E+00  0.1428571E+00  0.3885781E-15  0.6802721E-02
    1      -33.166003   1.000000
    2      -33.071395   1.000000
    3      -32.875620   1.000000
    4      -32.671071   1.000000
    5      -32.585340   1.000000
    6      -29.042699   1.000000
    7      -29.022903   1.000000
    8      -28.994146   1.000000
    9      -15.390319   1.000000
   10      -15.350383   1.000000
   11      -15.310556   1.000000
   12      -15.241411   1.000000
   13      -15.171232   1.000000
   14      -15.111442   1.000000
   15      -15.057934   1.000000
   16      -14.983160   1.000000
   17      -14.917592   1.000000
   18      -14.786044   1.000000
   19      -14.742387   1.000000
   20      -14.721090   1.000000
   21      -14.665648   1.000000
   22      -14.584210   1.000000
   23      -14.554821   1.000000
   24       -4.975926   1.000000
   25       -2.763074   1.000000
   26       -2.165997   1.000000
   27       -2.108595   1.000000
   28       -2.003424   1.000000
   29       -1.743324   1.000000
   30       -1.621740   1.000000
   31       -1.374665   1.000000
   32       -1.311948   1.000000
   33       -1.037252   1.000000
   34       -0.738899   1.000000
   35       -0.662034   1.000000
   36       -0.117138   1.000000
   37        0.111912   1.000000
   38        0.750613   0.999805
   39        3.489827   0.000000
   40        3.769970   0.000000
   41        3.865303   0.000000
   42        4.204328   0.000000
   43        4.516691   0.000000
   44        4.724408   0.000000
   45        5.166572   0.000000
   46        5.345206   0.000000
   47        5.691910   0.000000
   48        5.983507   0.000000
   49        6.188653   0.000000
   50        6.299932   0.000000
   51        6.593900   0.000000
   52        6.749811   0.000000
 
  0.4285714E+00  0.1428571E+00  0.3747003E-15  0.6802721E-02
    1      -33.165273   1.000000
    2      -33.072129   1.000000
    3      -32.875128   1.000000
    4      -32.670283   1.000000
    5      -32.586717   1.000000
    6      -29.042573   1.000000
    7      -29.022954   1.000000
    8      -28.994106   1.000000
    9      -15.400607   1.000000
   10      -15.338991   1.000000
   11      -15.302361   1.000000
   12      -15.254654   1.000000
   13      -15.169132   1.000000
   14      -15.109667   1.000000
   15      -15.047651   1.000000
   16      -14.984581   1.000000
   17      -14.917475   1.000000
   18      -14.804128   1.000000
   19      -14.730927   1.000000
   20      -14.708554   1.000000
   21      -14.666090   1.000000
   22      -14.587679   1.000000
   23      -14.568879   1.000000
   24       -4.733343   1.000000
   25       -3.008726   1.000000
   26       -2.368825   1.000000
   27       -2.032515   1.000000
   28       -1.954755   1.000000
   29       -1.744314   1.000000
   30       -1.657587   1.000000
   31       -1.500746   1.000000
   32       -1.259494   1.000000
   33       -0.983226   1.000000
   34       -0.808524   1.000000
   35       -0.562286   1.000000
   36       -0.136923   1.000000
   37        0.253458   1.000000
   38        0.568698   1.000000
   39        3.289786   0.000000
   40        3.926319   0.000000
   41        4.017262   0.000000
   42        4.205730   0.000000
   43        4.462564   0.000000
   44        4.628305   0.000000
   45        5.215576   0.000000
   46        5.376670   0.000000
   47        5.845030   0.000000
   48        5.962714   0.000000
   49        6.176059   0.000000
   50        6.457923   0.000000
   51        6.611263   0.000000
   52        6.676575   0.000000
 
 -0.4285714E+00  0.1428571E+00  0.4163336E-15  0.6802721E-02
    1      -33.165037   1.000000
    2      -33.072372   1.000000
    3      -32.874928   1.000000
    4      -32.670188   1.000000
    5      -32.587038   1.000000
    6      -29.042586   1.000000
    7      -29.022942   1.000000
    8      -28.994078   1.000000
    9      -15.403758   1.000000
   10      -15.330892   1.000000
   11      -15.301236   1.000000
   12      -15.256587   1.000000
   13      -15.180770   1.000000
   14      -15.097168   1.000000
   15      -15.039299   1.000000
   16      -14.975490   1.000000
   17      -14.916095   1.000000
   18      -14.833143   1.000000
   19      -14.740274   1.000000
   20      -14.709334   1.000000
   21      -14.666291   1.000000
   22      -14.588605   1.000000
   23      -14.553545   1.000000
   24       -4.617842   1.000000
   25       -3.113950   1.000000
   26       -2.524046   1.000000
   27       -2.018644   1.000000
   28       -1.888815   1.000000
   29       -1.757966   1.000000
   30       -1.578152   1.000000
   31       -1.549825   1.000000
   32       -1.256165   1.000000
   33       -0.976597   1.000000
   34       -0.849594   1.000000
   35       -0.476015   1.000000
   36       -0.200078   1.000000
   37        0.207208   1.000000
   38        0.623052   1.000000
   39        3.255799   0.000000
   40        3.951065   0.000000
   41        4.077940   0.000000
   42        4.219846   0.000000
   43        4.412892   0.000000
   44        4.583978   0.000000
   45        5.226664   0.000000
   46        5.388114   0.000000
   47        5.919688   0.000000
   48        6.013247   0.000000
   49        6.275371   0.000000
   50        6.370345   0.000000
   51        6.607214   0.000000
   52        6.764594   0.000000
 
 -0.2857143E+00  0.1428571E+00  0.3851086E-15  0.6802721E-02
    1      -33.165481   1.000000
    2      -33.071927   1.000000
    3      -32.875159   1.000000
    4      -32.670909   1.000000
    5      -32.586016   1.000000
    6      -29.042682   1.000000
    7      -29.022877   1.000000
    8      -28.994055   1.000000
    9      -15.396786   1.000000
   10      -15.333661   1.000000
   11      -15.305778   1.000000
   12      -15.250396   1.000000
   13      -15.189078   1.000000
   14      -15.094971   1.000000
   15      -15.059123   1.000000
   16      -14.965165   1.000000
   17      -14.911698   1.000000
   18      -14.803483   1.000000
   19      -14.746619   1.000000
   20      -14.720001   1.000000
   21      -14.665546   1.000000
   22      -14.614443   1.000000
   23      -14.534229   1.000000
   24       -4.763534   1.000000
   25       -2.996059   1.000000
   26       -2.441428   1.000000
   27       -2.020577   1.000000
   28       -1.933206   1.000000
   29       -1.747228   1.000000
   30       -1.588939   1.000000
   31       -1.448052   1.000000
   32       -1.322715   1.000000
   33       -0.961542   1.000000
   34       -0.828528   1.000000
   35       -0.508178   1.000000
   36       -0.199016   1.000000
   37        0.111372   1.000000
   38        0.780956   0.999246
   39        3.408108   0.000000
   40        3.879152   0.000000
   41        3.920642   0.000000
   42        4.219063   0.000000
   43        4.315958   0.000000
   44        4.628610   0.000000
   45        5.254472   0.000000
   46        5.392713   0.000000
   47        5.818044   0.000000
   48        6.002069   0.000000
   49        6.306723   0.000000
   50        6.482268   0.000000
   51        6.639115   0.000000
   52        6.746128   0.000000
 
 -0.1428571E+00  0.1428571E+00  0.3677614E-15  0.6802721E-02
    1      -33.166259   1.000000
    2      -33.071151   1.000000
    3      -32.875661   1.000000
    4      -32.671829   1.000000
    5      -32.584492   1.000000
    6      -29.042844   1.000000
    7      -29.022875   1.000000
    8      -28.994140   1.000000
    9      -15.384362   1.000000
   10      -15.345629   1.000000
   11      -15.314536   1.000000
   12      -15.236202   1.000000
   13      -15.192157   1.000000
   14      -15.100140   1.000000
   15      -15.069071   1.000000
   16      -14.955090   1.000000
   17      -14.907363   1.000000
   18      -14.807375   1.000000
   19      -14.754668   1.000000
   20      -14.722058   1.000000
   21      -14.666904   1.000000
   22      -14.613447   1.000000
   23      -14.519341   1.000000
   24       -5.005362   1.000000
   25       -2.783201   1.000000
   26       -2.232390   1.000000
   27       -2.119109   1.000000
   28       -1.965490   1.000000
   29       -1.706388   1.000000
   30       -1.615832   1.000000
   31       -1.374915   1.000000
   32       -1.251696   1.000000
   33       -1.005095   1.000000
   34       -0.787577   1.000000
   35       -0.546991   1.000000
   36       -0.272085   1.000000
   37        0.033163   1.000000
   38        0.944654   1.042278
   39        3.532060   0.000000
   40        3.693434   0.000000
   41        3.945352   0.000000
   42        4.150592   0.000000
   43        4.311705   0.000000
   44        4.749655   0.000000
   45        5.228045   0.000000
   46        5.496701   0.000000
   47        5.736579   0.000000
   48        6.115156   0.000000
   49        6.211609   0.000000
   50        6.362997   0.000000
   51        6.586608   0.000000
   52        6.817977   0.000000
 
  0.3742666E-15  0.2857143E+00  0.4163336E-15  0.6802721E-02
    1      -33.166135   1.000000
    2      -33.071058   1.000000
    3      -32.875704   1.000000
    4      -32.672316   1.000000
    5      -32.584233   1.000000
    6      -29.042873   1.000000
    7      -29.022802   1.000000
    8      -28.994114   1.000000
    9      -15.363322   1.000000
   10      -15.343575   1.000000
   11      -15.301025   1.000000
   12      -15.229755   1.000000
   13      -15.191277   1.000000
   14      -15.117360   1.000000
   15      -15.066272   1.000000
   16      -14.941044   1.000000
   17      -14.917877   1.000000
   18      -14.818669   1.000000
   19      -14.760671   1.000000
   20      -14.723408   1.000000
   21      -14.676876   1.000000
   22      -14.630119   1.000000
   23      -14.515113   1.000000
   24       -4.921292   1.000000
   25       -2.885081   1.000000
   26       -2.229870   1.000000
   27       -2.134829   1.000000
   28       -1.922487   1.000000
   29       -1.736851   1.000000
   30       -1.604138   1.000000
   31       -1.338901   1.000000
   32       -1.172599   1.000000
   33       -1.061270   1.000000
   34       -0.701465   1.000000
   35       -0.584949   1.000000
   36       -0.303085   1.000000
   37       -0.103243   1.000000
   38        0.938569   1.036873
   39        3.589155   0.000000
   40        3.679623   0.000000
   41        3.890400   0.000000
   42        4.157283   0.000000
   43        4.481845   0.000000
   44        4.708784   0.000000
   45        5.412532   0.000000
   46        5.509575   0.000000
   47        5.643883   0.000000
   48        5.862302   0.000000
   49        6.233856   0.000000
   50        6.319472   0.000000
   51        6.607340   0.000000
   52        6.683568   0.000000
 
  0.1428571E+00  0.2857143E+00  0.4163336E-15  0.6802721E-02
    1      -33.166177   1.000000
    2      -33.071003   1.000000
    3      -32.875835   1.000000
    4      -32.671993   1.000000
    5      -32.584426   1.000000
    6      -29.042767   1.000000
    7      -29.022832   1.000000
    8      -28.994152   1.000000
    9      -15.370057   1.000000
   10      -15.343119   1.000000
   11      -15.303314   1.000000
   12      -15.221738   1.000000
   13      -15.187704   1.000000
   14      -15.103630   1.000000
   15      -15.065215   1.000000
   16      -14.959763   1.000000
   17      -14.938052   1.000000
   18      -14.808172   1.000000
   19      -14.771689   1.000000
   20      -14.723930   1.000000
   21      -14.676311   1.000000
   22      -14.606280   1.000000
   23      -14.516015   1.000000
   24       -4.974974   1.000000
   25       -2.727502   1.000000
   26       -2.285545   1.000000
   27       -2.185807   1.000000
   28       -1.855278   1.000000
   29       -1.685790   1.000000
   30       -1.634136   1.000000
   31       -1.352971   1.000000
   32       -1.231844   1.000000
   33       -1.025240   1.000000
   34       -0.783054   1.000000
   35       -0.512811   1.000000
   36       -0.317959   1.000000
   37       -0.053218   1.000000
   38        0.865727   0.995299
   39        3.559790   0.000000
   40        3.671358   0.000000
   41        3.871840   0.000000
   42        4.218217   0.000000
   43        4.594975   0.000000
   44        4.767907   0.000000
   45        5.320918   0.000000
   46        5.406969   0.000000
   47        5.717630   0.000000
   48        5.881800   0.000000
   49        6.199918   0.000000
   50        6.357936   0.000000
   51        6.470607   0.000000
   52        6.706591   0.000000
 
  0.2857143E+00  0.2857143E+00  0.3747003E-15  0.6802721E-02
    1      -33.165763   1.000000
    2      -33.071411   1.000000
    3      -32.875652   1.000000
    4      -32.671193   1.000000
    5      -32.585480   1.000000
    6      -29.042710   1.000000
    7      -29.022860   1.000000
    8      -28.994123   1.000000
    9      -15.378383   1.000000
   10      -15.339985   1.000000
   11      -15.300616   1.000000
   12      -15.226583   1.000000
   13      -15.172723   1.000000
   14      -15.109122   1.000000
   15      -15.066168   1.000000
   16      -14.981966   1.000000
   17      -14.941250   1.000000
   18      -14.797814   1.000000
   19      -14.744383   1.000000
   20      -14.722947   1.000000
   21      -14.672920   1.000000
   22      -14.600818   1.000000
   23      -14.540627   1.000000
   24       -4.884549   1.000000
   25       -2.775699   1.000000
   26       -2.255914   1.000000
   27       -2.199950   1.000000
   28       -1.914545   1.000000
   29       -1.684206   1.000000
   30       -1.608532   1.000000
   31       -1.403661   1.000000
   32       -1.273614   1.000000
   33       -1.047309   1.000000
   34       -0.836151   1.000000
   35       -0.549916   1.000000
   36       -0.133764   1.000000
   37        0.023995   1.000000
   38        0.677807   0.999997
   39        3.417081   0.000000
   40        3.774843   0.000000
   41        3.970012   0.000000
   42        4.277054   0.000000
   43        4.628916   0.000000
   44        4.743741   0.000000
   45        5.148705   0.000000
   46        5.298332   0.000000
   47        5.679029   0.000000
   48        5.971171   0.000000
   49        6.232830   0.000000
   50        6.324637   0.000000
   51        6.555375   0.000000
   52        6.721121   0.000000
 
  0.4285714E+00  0.2857143E+00  0.4163336E-15  0.6802721E-02
    1      -33.165192   1.000000
    2      -33.071978   1.000000
    3      -32.875298   1.000000
    4      -32.670455   1.000000
    5      -32.586643   1.000000
    6      -29.042531   1.000000
    7      -29.022900   1.000000
    8      -28.994073   1.000000
    9      -15.389355   1.000000
   10      -15.329702   1.000000
   11      -15.290063   1.000000
   12      -15.238376   1.000000
   13      -15.166918   1.000000
   14      -15.111043   1.000000
   15      -15.067131   1.000000
   16      -14.981459   1.000000
   17      -14.941985   1.000000
   18      -14.817661   1.000000
   19      -14.731197   1.000000
   20      -14.700800   1.000000
   21      -14.669707   1.000000
   22      -14.601008   1.000000
   23      -14.561574   1.000000
   24       -4.702765   1.000000
   25       -2.938893   1.000000
   26       -2.382260   1.000000
   27       -2.113123   1.000000
   28       -1.951235   1.000000
   29       -1.723925   1.000000
   30       -1.641709   1.000000
   31       -1.448913   1.000000
   32       -1.254202   1.000000
   33       -0.998056   1.000000
   34       -0.779224   1.000000
   35       -0.624525   1.000000
   36       -0.098185   1.000000
   37        0.194625   1.000000
   38        0.469281   1.000000
   39        3.236627   0.000000
   40        3.957809   0.000000
   41        4.073765   0.000000
   42        4.305850   0.000000
   43        4.564596   0.000000
   44        4.731721   0.000000
   45        5.115327   0.000000
   46        5.334574   0.000000
   47        5.746083   0.000000
   48        6.000924   0.000000
   49        6.153579   0.000000
   50        6.414483   0.000000
   51        6.538367   0.000000
   52        6.649707   0.000000
 
 -0.4285714E+00  0.2857143E+00  0.4371503E-15  0.6802721E-02
    1      -33.164899   1.000000
    2      -33.072283   1.000000
    3      -32.875052   1.000000
    4      -32.670334   1.000000
    5      -32.587047   1.000000
    6      -29.042567   1.000000
    7      -29.022895   1.000000
    8      -28.994105   1.000000
    9      -15.397484   1.000000
   10      -15.314756   1.000000
   11      -15.280424   1.000000
   12      -15.244996   1.000000
   13      -15.186363   1.000000
   14      -15.093330   1.000000
   15      -15.054895   1.000000
   16      -14.974635   1.000000
   17      -14.942154   1.000000
   18      -14.855627   1.000000
   19      -14.737059   1.000000
   20      -14.704621   1.000000
   21      -14.671441   1.000000
   22      -14.591696   1.000000
   23      -14.550525   1.000000
   24       -4.564559   1.000000
   25       -2.963705   1.000000
   26       -2.704736   1.000000
   27       -2.041062   1.000000
   28       -1.905146   1.000000
   29       -1.771942   1.000000
   30       -1.605634   1.000000
   31       -1.506182   1.000000
   32       -1.185071   1.000000
   33       -0.945589   1.000000
   34       -0.740755   1.000000
   35       -0.603485   1.000000
   36       -0.232786   1.000000
   37        0.182295   1.000000
   38        0.528069   1.000000
   39        3.188925   0.000000
   40        3.943481   0.000000
   41        4.222414   0.000000
   42        4.341827   0.000000
   43        4.483846   0.000000
   44        4.658427   0.000000
   45        5.157131   0.000000
   46        5.435847   0.000000
   47        5.890882   0.000000
   48        5.976653   0.000000
   49        6.192328   0.000000
   50        6.422773   0.000000
   51        6.514635   0.000000
   52        6.641513   0.000000
 
 -0.2857143E+00  0.2857143E+00  0.3747003E-15  0.6802721E-02
    1      -33.165111   1.000000
    2      -33.072083   1.000000
    3      -32.875082   1.000000
    4      -32.670983   1.000000
    5      -32.586332   1.000000
    6      -29.042702   1.000000
    7      -29.022851   1.000000
    8      -28.994081   1.000000
    9      -15.393512   1.000000
   10      -15.310788   1.000000
   11      -15.278919   1.000000
   12      -15.248191   1.000000
   13      -15.199329   1.000000
   14      -15.091462   1.000000
   15      -15.062103   1.000000
   16      -14.950021   1.000000
   17      -14.936520   1.000000
   18      -14.854971   1.000000
   19      -14.742279   1.000000
   20      -14.714977   1.000000
   21      -14.672943   1.000000
   22      -14.614769   1.000000
   23      -14.529517   1.000000
   24       -4.591905   1.000000
   25       -3.011680   1.000000
   26       -2.682051   1.000000
   27       -2.027705   1.000000
   28       -1.900335   1.000000
   29       -1.795792   1.000000
   30       -1.532950   1.000000
   31       -1.492225   1.000000
   32       -1.189868   1.000000
   33       -0.945141   1.000000
   34       -0.784113   1.000000
   35       -0.524340   1.000000
   36       -0.305130   1.000000
   37        0.057151   1.000000
   38        0.719692   0.999962