  16  16   1   0
  0.1083315E+02  0.5765780E-09  0.6082665E-09  0.5739665E-09  0.5000000E-15
  1.000000000000000E-004
  CAR 
 unknown system                          
     11.73929009    -35.78571773  301      1.20458002      1.00000000
    -35.786  0.0000E+00  0.0000E+00  0.0000E+00  0.0000E+00
    -35.627  0.0000E+00  0.0000E+00  0.0000E+00  0.0000E+00
    -35.469  0.0000E+00  0.0000E+00  0.0000E+00  0.0000E+00
    -35.310  0.0000E+00  0.0000E+00  0.0000E+00  0.0000E+00
    -35.152  0.0000E+00  0.0000E+00  0.0000E+00  0.0000E+00
    -34.994  0.0000E+00  0.0000E+00  0.0000E+00  0.0000E+00
    -34.835  0.0000E+00  0.0000E+00  0.0000E+00  0.0000E+00
    -34.677  0.0000E+00  0.0000E+00  0.0000E+00  0.0000E+00
    -34.518  0.0000E+00  0.0000E+00  0.0000E+00  0.0000E+00
    -34.360  0.0000E+00  0.0000E+00  0.0000E+00  0.0000E+00
    -34.202  0.0000E+00  0.0000E+00  0.0000E+00  0.0000E+00
    -34.043  0.0000E+00  0.0000E+00  0.0000E+00  0.0000E+00
    -33.885  0.0000E+00  0.0000E+00  0.0000E+00  0.0000E+00
    -33.726  0.0000E+00  0.0000E+00  0.0000E+00  0.0000E+00
    -33.568  0.0000E+00  0.0000E+00  0.1010E-01  0.1010E-01
    -33.409  0.0000E+00  0.0000E+00  0.2020E-01  0.2020E-01
    -33.251  0.0000E+00  0.0000E+00  0.2020E-01  0.2020E-01
    -33.093  0.0000E+00  0.0000E+00  0.2020E-01  0.2020E-01
    -32.934  0.0000E+00  0.0000E+00  0.2020E-01  0.2020E-01
    -32.776  0.0000E+00  0.0000E+00  0.2020E-01  0.2020E-01
    -32.617  0.0000E+00  0.0000E+00  0.2020E-01  0.2020E-01
    -32.459  0.0000E+00  0.0000E+00  0.2020E-01  0.2020E-01
    -32.301  0.0000E+00  0.0000E+00  0.2020E-01  0.2020E-01
    -32.142  0.0000E+00  0.0000E+00  0.2020E-01  0.2020E-01
    -31.984  0.0000E+00  0.0000E+00  0.2020E-01  0.2020E-01
    -31.825  0.0000E+00  0.0000E+00  0.2020E-01  0.2020E-01
    -31.667  0.0000E+00  0.0000E+00  0.2020E-01  0.2020E-01
    -31.508  0.0000E+00  0.0000E+00  0.2020E-01  0.2020E-01
    -31.350  0.0000E+00  0.0000E+00  0.2020E-01  0.2020E-01
    -31.192  0.0000E+00  0.0000E+00  0.2020E-01  0.2020E-01
    -31.033  0.0000E+00  0.0000E+00  0.2020E-01  0.2020E-01
    -30.875  0.0000E+00  0.0000E+00  0.2020E-01  0.2020E-01
    -30.716  0.0000E+00  0.0000E+00  0.2020E-01  0.2020E-01
    -30.558  0.0000E+00  0.0000E+00  0.2020E-01  0.2020E-01
    -30.400  0.0000E+00  0.0000E+00  0.2020E-01  0.2020E-01
    -30.241  0.0000E+00  0.0000E+00  0.2020E-01  0.2020E-01
    -30.083  0.0000E+00  0.0000E+00  0.2020E-01  0.2020E-01
    -29.924  0.6326E-01  0.6326E-01  0.2691E-01  0.2691E-01
    -29.766  0.0000E+00  0.0000E+00  0.3030E-01  0.3030E-01
    -29.607  0.2461E+00  0.2461E+00  0.4749E-01  0.4748E-01
    -29.449  0.1398E+00  0.1398E+00  0.6518E-01  0.6518E-01
    -29.291  0.0000E+00  0.0000E+00  0.8081E-01  0.8081E-01
    -29.132  0.0000E+00  0.0000E+00  0.8081E-01  0.8081E-01
    -28.974  0.0000E+00  0.0000E+00  0.8081E-01  0.8081E-01
    -28.815  0.0000E+00  0.0000E+00  0.8081E-01  0.8081E-01
    -28.657  0.0000E+00  0.0000E+00  0.8081E-01  0.8081E-01
    -28.499  0.0000E+00  0.0000E+00  0.8081E-01  0.8081E-01
    -28.340  0.0000E+00  0.0000E+00  0.8081E-01  0.8081E-01
    -28.182  0.0000E+00  0.0000E+00  0.8081E-01  0.8081E-01
    -28.023  0.0000E+00  0.0000E+00  0.8081E-01  0.8081E-01
    -27.865  0.0000E+00  0.0000E+00  0.8081E-01  0.8081E-01
    -27.706  0.0000E+00  0.0000E+00  0.8081E-01  0.8081E-01
    -27.548  0.0000E+00  0.0000E+00  0.8081E-01  0.8081E-01
    -27.390  0.0000E+00  0.0000E+00  0.8081E-01  0.8081E-01
    -27.231  0.0000E+00  0.0000E+00  0.8081E-01  0.8081E-01
    -27.073  0.0000E+00  0.0000E+00  0.8081E-01  0.8081E-01
    -26.914  0.0000E+00  0.0000E+00  0.8081E-01  0.8081E-01
    -26.756  0.0000E+00  0.0000E+00  0.8081E-01  0.8081E-01
    -26.598  0.0000E+00  0.0000E+00  0.8081E-01  0.8081E-01
    -26.439  0.0000E+00  0.0000E+00  0.8081E-01  0.8081E-01
    -26.281  0.0000E+00  0.0000E+00  0.8081E-01  0.8081E-01
    -26.122  0.0000E+00  0.0000E+00  0.8081E-01  0.8081E-01
    -25.964  0.0000E+00  0.0000E+00  0.8081E-01  0.8081E-01
    -25.805  0.0000E+00  0.0000E+00  0.8081E-01  0.8081E-01
    -25.647  0.0000E+00  0.0000E+00  0.8081E-01  0.8081E-01
    -25.489  0.0000E+00  0.0000E+00  0.8081E-01  0.8081E-01
    -25.330  0.0000E+00  0.0000E+00  0.8081E-01  0.8081E-01
    -25.172  0.0000E+00  0.0000E+00  0.8081E-01  0.8081E-01
    -25.013  0.0000E+00  0.0000E+00  0.8081E-01  0.8081E-01
    -24.855  0.0000E+00  0.0000E+00  0.8081E-01  0.8081E-01
    -24.697  0.0000E+00  0.0000E+00  0.8081E-01  0.8081E-01
    -24.538  0.0000E+00  0.0000E+00  0.8081E-01  0.8081E-01
    -24.380  0.0000E+00  0.0000E+00  0.8081E-01  0.8081E-01
    -24.221  0.0000E+00  0.0000E+00  0.8081E-01  0.8081E-01
    -24.063  0.0000E+00  0.0000E+00  0.8081E-01  0.8081E-01
    -23.904  0.0000E+00  0.0000E+00  0.8081E-01  0.8081E-01
    -23.746  0.0000E+00  0.0000E+00  0.8081E-01  0.8081E-01
    -23.588  0.0000E+00  0.0000E+00  0.8081E-01  0.8081E-01
    -23.429  0.0000E+00  0.0000E+00  0.8081E-01  0.8081E-01
    -23.271  0.0000E+00  0.0000E+00  0.8081E-01  0.8081E-01
    -23.112  0.0000E+00  0.0000E+00  0.8081E-01  0.8081E-01
    -22.954  0.0000E+00  0.0000E+00  0.8081E-01  0.8081E-01
    -22.796  0.0000E+00  0.0000E+00  0.8081E-01  0.8081E-01
    -22.637  0.0000E+00  0.0000E+00  0.8081E-01  0.8081E-01
    -22.479  0.0000E+00  0.0000E+00  0.8081E-01  0.8081E-01
    -22.320  0.0000E+00  0.0000E+00  0.8081E-01  0.8081E-01
    -22.162  0.0000E+00  0.0000E+00  0.8081E-01  0.8081E-01
    -22.003  0.0000E+00  0.0000E+00  0.8081E-01  0.8081E-01
    -21.845  0.0000E+00  0.0000E+00  0.8081E-01  0.8081E-01
    -21.687  0.0000E+00  0.0000E+00  0.8081E-01  0.8081E-01
    -21.528  0.0000E+00  0.0000E+00  0.8081E-01  0.8081E-01
    -21.370  0.0000E+00  0.0000E+00  0.8081E-01  0.8081E-01
    -21.211  0.0000E+00  0.0000E+00  0.8081E-01  0.8081E-01
    -21.053  0.0000E+00  0.0000E+00  0.8081E-01  0.8081E-01
    -20.895  0.0000E+00  0.0000E+00  0.8081E-01  0.8081E-01
    -20.736  0.0000E+00  0.0000E+00  0.8081E-01  0.8081E-01
    -20.578  0.0000E+00  0.0000E+00  0.8081E-01  0.8081E-01
    -20.419  0.0000E+00  0.0000E+00  0.8081E-01  0.8081E-01
    -20.261  0.0000E+00  0.0000E+00  0.8081E-01  0.8081E-01
    -20.102  0.0000E+00  0.0000E+00  0.8081E-01  0.8081E-01
    -19.944  0.0000E+00  0.0000E+00  0.8081E-01  0.8081E-01
    -19.786  0.0000E+00  0.0000E+00  0.8081E-01  0.8081E-01
    -19.627  0.0000E+00  0.0000E+00  0.8081E-01  0.8081E-01
    -19.469  0.0000E+00  0.0000E+00  0.8081E-01  0.8081E-01
    -19.310  0.0000E+00  0.0000E+00  0.8081E-01  0.8081E-01
    -19.152  0.0000E+00  0.0000E+00  0.8081E-01  0.8081E-01
    -18.994  0.0000E+00  0.0000E+00  0.8081E-01  0.8081E-01
    -18.835  0.0000E+00  0.0000E+00  0.8081E-01  0.8081E-01
    -18.677  0.0000E+00  0.0000E+00  0.8081E-01  0.8081E-01
    -18.518  0.0000E+00  0.0000E+00  0.8081E-01  0.8081E-01
    -18.360  0.0000E+00  0.0000E+00  0.8081E-01  0.8081E-01
    -18.201  0.0000E+00  0.0000E+00  0.8081E-01  0.8081E-01
    -18.043  0.0000E+00  0.0000E+00  0.8081E-01  0.8081E-01
    -17.885  0.0000E+00  0.0000E+00  0.8081E-01  0.8081E-01
    -17.726  0.0000E+00  0.0000E+00  0.8081E-01  0.8081E-01
    -17.568  0.0000E+00  0.0000E+00  0.8081E-01  0.8081E-01
    -17.409  0.0000E+00  0.0000E+00  0.8081E-01  0.8081E-01
    -17.251  0.0000E+00  0.0000E+00  0.8081E-01  0.8081E-01
    -17.093  0.0000E+00  0.0000E+00  0.8081E-01  0.8081E-01
    -16.934  0.0000E+00  0.0000E+00  0.8081E-01  0.8081E-01
    -16.776  0.0000E+00  0.0000E+00  0.8081E-01  0.8081E-01
    -16.617  0.0000E+00  0.0000E+00  0.8081E-01  0.8081E-01
    -16.459  0.0000E+00  0.0000E+00  0.8081E-01  0.8081E-01
    -16.300  0.0000E+00  0.0000E+00  0.8081E-01  0.8081E-01
    -16.142  0.0000E+00  0.0000E+00  0.8081E-01  0.8081E-01
    -15.984  0.0000E+00  0.0000E+00  0.8081E-01  0.8081E-01
    -15.825  0.0000E+00  0.0000E+00  0.8081E-01  0.8081E-01
    -15.667  0.0000E+00  0.0000E+00  0.1111E+00  0.1111E+00
    -15.508  0.0000E+00  0.0000E+00  0.1414E+00  0.1414E+00
    -15.350  0.0000E+00  0.0000E+00  0.1414E+00  0.1414E+00
    -15.192  0.0000E+00  0.0000E+00  0.1414E+00  0.1414E+00
    -15.033  0.0000E+00  0.0000E+00  0.1414E+00  0.1414E+00
    -14.875  0.0000E+00  0.0000E+00  0.1414E+00  0.1414E+00
    -14.716  0.0000E+00  0.0000E+00  0.1414E+00  0.1414E+00
    -14.558  0.0000E+00  0.0000E+00  0.1414E+00  0.1414E+00
    -14.399  0.0000E+00  0.0000E+00  0.1414E+00  0.1414E+00
    -14.241  0.0000E+00  0.0000E+00  0.1414E+00  0.1414E+00
    -14.083  0.0000E+00  0.0000E+00  0.1414E+00  0.1414E+00
    -13.924  0.0000E+00  0.0000E+00  0.1414E+00  0.1414E+00
    -13.766  0.0000E+00  0.0000E+00  0.1414E+00  0.1414E+00
    -13.607  0.0000E+00  0.0000E+00  0.1414E+00  0.1414E+00
    -13.449  0.0000E+00  0.0000E+00  0.1414E+00  0.1414E+00
    -13.291  0.0000E+00  0.0000E+00  0.1414E+00  0.1414E+00
    -13.132  0.0000E+00  0.0000E+00  0.1414E+00  0.1414E+00
    -12.974  0.0000E+00  0.0000E+00  0.1414E+00  0.1414E+00
    -12.815  0.0000E+00  0.0000E+00  0.1414E+00  0.1414E+00
    -12.657  0.0000E+00  0.0000E+00  0.1414E+00  0.1414E+00
    -12.498  0.0000E+00  0.0000E+00  0.1414E+00  0.1414E+00
    -12.340  0.0000E+00  0.0000E+00  0.1414E+00  0.1414E+00
    -12.182  0.0000E+00  0.0000E+00  0.1414E+00  0.1414E+00
    -12.023  0.0000E+00  0.0000E+00  0.1414E+00  0.1414E+00
    -11.865  0.0000E+00  0.0000E+00  0.1414E+00  0.1414E+00
    -11.706  0.0000E+00  0.0000E+00  0.1414E+00  0.1414E+00
    -11.548  0.0000E+00  0.0000E+00  0.1414E+00  0.1414E+00
    -11.390  0.0000E+00  0.0000E+00  0.1414E+00  0.1414E+00
    -11.231  0.0000E+00  0.0000E+00  0.1414E+00  0.1414E+00
    -11.073  0.0000E+00  0.0000E+00  0.1414E+00  0.1414E+00
    -10.914  0.0000E+00  0.0000E+00  0.1414E+00  0.1414E+00
    -10.756  0.0000E+00  0.0000E+00  0.1414E+00  0.1414E+00
    -10.597  0.0000E+00  0.0000E+00  0.1414E+00  0.1414E+00
    -10.439  0.0000E+00  0.0000E+00  0.1414E+00  0.1414E+00
    -10.281  0.0000E+00  0.0000E+00  0.1414E+00  0.1414E+00
    -10.122  0.0000E+00  0.0000E+00  0.1414E+00  0.1414E+00
     -9.964  0.0000E+00  0.0000E+00  0.1414E+00  0.1414E+00
     -9.805  0.0000E+00  0.0000E+00  0.1414E+00  0.1414E+00
     -9.647  0.0000E+00  0.0000E+00  0.1414E+00  0.1414E+00
     -9.489  0.0000E+00  0.0000E+00  0.1414E+00  0.1414E+00
     -9.330  0.0000E+00  0.0000E+00  0.1414E+00  0.1414E+00
     -9.172  0.0000E+00  0.0000E+00  0.1414E+00  0.1414E+00
     -9.013  0.0000E+00  0.0000E+00  0.1414E+00  0.1414E+00
     -8.855  0.0000E+00  0.0000E+00  0.1414E+00  0.1414E+00
     -8.696  0.0000E+00  0.0000E+00  0.1414E+00  0.1414E+00
     -8.538  0.0000E+00  0.0000E+00  0.1414E+00  0.1414E+00
     -8.380  0.0000E+00  0.0000E+00  0.1414E+00  0.1414E+00
     -8.221  0.0000E+00  0.0000E+00  0.1414E+00  0.1414E+00
     -8.063  0.0000E+00  0.0000E+00  0.1414E+00  0.1414E+00
     -7.904  0.0000E+00  0.0000E+00  0.1414E+00  0.1414E+00
     -7.746  0.0000E+00  0.0000E+00  0.1414E+00  0.1414E+00
     -7.588  0.0000E+00  0.0000E+00  0.1414E+00  0.1414E+00
     -7.429  0.0000E+00  0.0000E+00  0.1414E+00  0.1414E+00
     -7.271  0.0000E+00  0.0000E+00  0.1414E+00  0.1414E+00
     -7.112  0.0000E+00  0.0000E+00  0.1414E+00  0.1414E+00
     -6.954  0.0000E+00  0.0000E+00  0.1414E+00  0.1414E+00
     -6.795  0.0000E+00  0.0000E+00  0.1414E+00  0.1414E+00
     -6.637  0.0000E+00  0.0000E+00  0.1414E+00  0.1414E+00
     -6.479  0.0000E+00  0.0000E+00  0.1414E+00  0.1414E+00
     -6.320  0.0000E+00  0.0000E+00  0.1414E+00  0.1414E+00
     -6.162  0.3079E-02  0.3079E-02  0.1416E+00  0.1416E+00
     -6.003  0.5004E-02  0.5004E-02  0.1422E+00  0.1422E+00
     -5.845  0.9193E-02  0.9193E-02  0.1433E+00  0.1433E+00
     -5.687  0.1421E-01  0.1421E-01  0.1455E+00  0.1455E+00
     -5.528  0.1123E-01  0.1123E-01  0.1475E+00  0.1475E+00
     -5.370  0.1054E-01  0.1054E-01  0.1492E+00  0.1492E+00
     -5.211  0.8934E-02  0.8934E-02  0.1511E+00  0.1511E+00
     -5.053  0.0000E+00  0.0000E+00  0.1515E+00  0.1515E+00
     -4.894  0.0000E+00  0.0000E+00  0.1515E+00  0.1515E+00
     -4.736  0.0000E+00  0.0000E+00  0.1515E+00  0.1515E+00
     -4.578  0.5765E-02  0.5765E-02  0.1516E+00  0.1516E+00
     -4.419  0.1269E-01  0.1269E-01  0.1528E+00  0.1528E+00
     -4.261  0.8389E-02  0.8389E-02  0.1552E+00  0.1552E+00
     -4.102  0.7828E-02  0.7828E-02  0.1564E+00  0.1564E+00
     -3.944  0.7858E-02  0.7858E-02  0.1577E+00  0.1577E+00
     -3.786  0.1263E-01  0.1263E-01  0.1599E+00  0.1599E+00
     -3.627  0.5738E-02  0.5738E-02  0.1612E+00  0.1612E+00
     -3.469  0.4294E-01  0.4294E-01  0.1650E+00  0.1650E+00
     -3.310  0.2930E-01  0.2930E-01  0.1740E+00  0.1740E+00
     -3.152  0.5007E-01  0.5007E-01  0.1798E+00  0.1798E+00
     -2.993  0.5015E-01  0.5015E-01  0.1858E+00  0.1858E+00
     -2.835  0.6190E-04  0.6187E-04  0.1919E+00  0.1919E+00
     -2.677  0.3449E-01  0.3449E-01  0.1943E+00  0.1943E+00
     -2.518  0.2230E-01  0.2230E-01  0.1996E+00  0.1996E+00
     -2.360  0.7488E-01  0.7488E-01  0.2084E+00  0.2084E+00
     -2.201  0.1849E-01  0.1849E-01  0.2129E+00  0.2129E+00
     -2.043  0.5271E-01  0.5272E-01  0.2191E+00  0.2191E+00
     -1.885  0.8162E-01  0.8162E-01  0.2244E+00  0.2244E+00
     -1.726  0.1388E-01  0.1388E-01  0.2324E+00  0.2324E+00
     -1.568  0.1757E-01  0.1757E-01  0.2421E+00  0.2421E+00
     -1.409  0.2641E-01  0.2641E-01  0.2488E+00  0.2488E+00
     -1.251  0.1390E-01  0.1390E-01  0.2519E+00  0.2519E+00
     -1.092  0.0000E+00  0.0000E+00  0.2525E+00  0.2525E+00
     -0.934  0.0000E+00  0.0000E+00  0.2525E+00  0.2525E+00
     -0.776  0.0000E+00  0.0000E+00  0.2525E+00  0.2525E+00
     -0.617  0.0000E+00  0.0000E+00  0.2525E+00  0.2525E+00
     -0.459  0.4065E-01  0.4065E-01  0.2549E+00  0.2549E+00
     -0.300  0.2913E-01  0.2913E-01  0.2587E+00  0.2587E+00
     -0.142  0.1378E-01  0.1378E-01  0.2620E+00  0.2620E+00
      0.016  0.0000E+00  0.0000E+00  0.2626E+00  0.2626E+00
      0.175  0.0000E+00  0.0000E+00  0.2626E+00  0.2626E+00
      0.333  0.0000E+00  0.0000E+00  0.2626E+00  0.2626E+00
      0.492  0.0000E+00  0.0000E+00  0.2626E+00  0.2626E+00
      0.650  0.0000E+00  0.0000E+00  0.2626E+00  0.2626E+00
      0.809  0.0000E+00  0.0000E+00  0.2626E+00  0.2626E+00
      0.967  0.1963E-01  0.1963E-01  0.2630E+00  0.2630E+00
      1.125  0.5087E-01  0.5087E-01  0.2709E+00  0.2709E+00
      1.284  0.0000E+00  0.0000E+00  0.2727E+00  0.2727E+00
      1.442  0.0000E+00  0.0000E+00  0.2727E+00  0.2727E+00
      1.601  0.0000E+00  0.0000E+00  0.2727E+00  0.2727E+00
      1.759  0.0000E+00  0.0000E+00  0.2727E+00  0.2727E+00
      1.917  0.0000E+00  0.0000E+00  0.2727E+00  0.2727E+00
      2.076  0.0000E+00  0.0000E+00  0.2727E+00  0.2727E+00
      2.234  0.0000E+00  0.0000E+00  0.2727E+00  0.2727E+00
      2.393  0.5699E-01  0.5699E-01  0.2774E+00  0.2774E+00
      2.551  0.1052E-01  0.1052E-01  0.2822E+00  0.2822E+00
      2.710  0.2227E-01  0.2227E-01  0.2842E+00  0.2842E+00
      2.868  0.1674E-01  0.1674E-01  0.2871E+00  0.2871E+00
      3.026  0.4354E-01  0.4355E-01  0.2929E+00  0.2929E+00
      3.185  0.1836E-01  0.1836E-01  0.2979E+00  0.2979E+00
      3.343  0.2160E-01  0.2160E-01  0.3006E+00  0.3006E+00
      3.502  0.5774E-02  0.5774E-02  0.3027E+00  0.3027E+00
      3.660  0.0000E+00  0.0000E+00  0.3030E+00  0.3030E+00
      3.818  0.1138E-01  0.1138E-01  0.3036E+00  0.3036E+00
      3.977  0.2806E-01  0.2806E-01  0.3070E+00  0.3070E+00
      4.135  0.4569E-01  0.4569E-01  0.3135E+00  0.3135E+00
      4.294  0.3052E-01  0.3052E-01  0.3204E+00  0.3204E+00
      4.452  0.1593E-01  0.1593E-01  0.3242E+00  0.3242E+00
      4.611  0.2378E-01  0.2378E-01  0.3267E+00  0.3267E+00
      4.769  0.3653E-01  0.3653E-01  0.3323E+00  0.3323E+00
      4.927  0.3002E-01  0.3002E-01  0.3368E+00  0.3368E+00
      5.086  0.1972E-01  0.1972E-01  0.3415E+00  0.3415E+00
      5.244  0.1822E-01  0.1822E-01  0.3447E+00  0.3447E+00
      5.403  0.2887E-01  0.2887E-01  0.3494E+00  0.3494E+00
      5.561  0.2114E-01  0.2114E-01  0.3536E+00  0.3536E+00
      5.719  0.3466E-01  0.3466E-01  0.3581E+00  0.3581E+00
      5.878  0.3190E-01  0.3190E-01  0.3651E+00  0.3651E+00
      6.036  0.2483E-01  0.2483E-01  0.3686E+00  0.3686E+00
      6.195  0.4550E-01  0.4550E-01  0.3731E+00  0.3731E+00
      6.353  0.3396E-01  0.3396E-01  0.3795E+00  0.3795E+00
      6.512  0.2344E-01  0.2344E-01  0.3847E+00  0.3847E+00
      6.670  0.2631E-01  0.2631E-01  0.3875E+00  0.3875E+00
      6.828  0.3149E-01  0.3149E-01  0.3924E+00  0.3924E+00
      6.987  0.4589E-01  0.4589E-01  0.3998E+00  0.3998E+00
      7.145  0.3491E-01  0.3491E-01  0.4056E+00  0.4056E+00
      7.304  0.3529E-01  0.3529E-01  0.4129E+00  0.4129E+00
      7.462  0.4019E-01  0.4019E-01  0.4189E+00  0.4189E+00
      7.620  0.2508E-01  0.2508E-01  0.4249E+00  0.4249E+00
      7.779  0.4594E-01  0.4594E-01  0.4309E+00  0.4309E+00
      7.937  0.4165E-01  0.4165E-01  0.4358E+00  0.4358E+00
      8.096  0.2975E-01  0.2975E-01  0.4430E+00  0.4430E+00
      8.254  0.2549E-01  0.2549E-01  0.4460E+00  0.4460E+00
      8.413  0.5143E-01  0.5144E-01  0.4521E+00  0.4521E+00
      8.571  0.3209E-01  0.3209E-01  0.4576E+00  0.4576E+00
      8.729  0.4263E-01  0.4263E-01  0.4629E+00  0.4629E+00
      8.888  0.3653E-01  0.3653E-01  0.4687E+00  0.4687E+00
      9.046  0.4565E-01  0.4565E-01  0.4745E+00  0.4745E+00
      9.205  0.2323E-01  0.2323E-01  0.4802E+00  0.4802E+00
      9.363  0.1568E-01  0.1568E-01  0.4830E+00  0.4830E+00
      9.521  0.4551E-02  0.4551E-02  0.4848E+00  0.4848E+00
      9.680  0.0000E+00  0.0000E+00  0.4848E+00  0.4848E+00
      9.838  0.0000E+00  0.0000E+00  0.4848E+00  0.4848E+00
      9.997  0.0000E+00  0.0000E+00  0.4848E+00  0.4848E+00
     10.155  0.0000E+00  0.0000E+00  0.4848E+00  0.4848E+00
     10.314  0.0000E+00  0.0000E+00  0.4848E+00  0.4848E+00
     10.472  0.0000E+00  0.0000E+00  0.4848E+00  0.4848E+00
     10.630  0.0000E+00  0.0000E+00  0.4848E+00  0.4848E+00
     10.789  0.0000E+00  0.0000E+00  0.4848E+00  0.4848E+00
     10.947  0.0000E+00  0.0000E+00  0.4848E+00  0.4848E+00
     11.106  0.0000E+00  0.0000E+00  0.4848E+00  0.4848E+00
     11.264  0.0000E+00  0.0000E+00  0.4848E+00  0.4848E+00
     11.422  0.0000E+00  0.0000E+00  0.4848E+00  0.4848E+00
     11.581  0.0000E+00  0.0000E+00  0.4848E+00  0.4848E+00
     11.739  0.0000E+00  0.0000E+00  0.4848E+00  0.4848E+00
     11.73929009    -35.78571773  301      1.20458002      1.00000000
    -35.786  0.0000E+00  0.0000E+00  0.0000E+00  0.0000E+00  0.0000E+00  0.0000E+00  0.0000E+00  0.0000E+00  0.0000E+00  0.0000E+00  0.0000E+00  0.0000E+00  0.0000E+00  0.0000E+00  0.0000E+00  0.0000E+00  0.0000E+00  0.0000E+00
    -35.627  0.0000E+00  0.0000E+00  0.0000E+00  0.0000E+00  0.0000E+00  0.0000E+00  0.0000E+00  0.0000E+00  0.0000E+00  0.0000E+00  0.0000E+00  0.0000E+00  0.0000E+00  0.0000E+00  0.0000E+00  0.0000E+00  0.0000E+00  0.0000E+00
    -35.469  0.0000E+00  0.0000E+00  0.0000E+00  0.0000E+00  0.0000E+00  0.0000E+00  0.0000E+00  0.0000E+00  0.0000E+00  0.0000E+00  0.0000E+00  0.0000E+00  0.0000E+00  0.0000E+00  0.0000E+00  0.0000E+00  0.0000E+00  0.0000E+00
    -35.310  0.0000E+00  0.0000E+00  0.0000E+00  0.0000E+00  0.0000E+00  0.0000E+00  0.0000E+00  0.0000E+00  0.0000E+00  0.0000E+00  0.0000E+00  0.0000E+00  0.0000E+00  0.0000E+00  0.0000E+00  0.0000E+00  0.0000E+00  0.0000E+00
    -35.152  0.0000E+00  0.0000E+00  0.0000E+00  0.0000E+00  0.0000E+00  0.0000E+00  0.0000E+00  0.0000E+00  0.0000E+00  0.0000E+00  0.0000E+00  0.0000E+00  0.0000E+00  0.0000E+00  0.0000E+00  0.0000E+00  0.0000E+00  0.0000E+00
    -34.994  0.0000E+00  0.0000E+00  0.0000E+00  0.0000E+00  0.0000E+00  0.0000E+00  0.0000E+00  0.0000E+00  0.0000E+00  0.0000E+00  0.0000E+00  0.0000E+00  0.0000E+00  0.0000E+00  0.0000E+00  0.0000E+00  0.0000E+00  0.0000E+00
    -34.835  0.0000E+00  0.0000E+00  0.0000E+00  0.0000E+00  0.0000E+00  0.0000E+00  0.0000E+00  0.0000E+00  0.0000E+00  0.0000E+00  0.0000E+00  0.0000E+00  0.0000E+00  0.0000E+00  0.0000E+00  0.0000E+00  0.0000E+00  0.0000E+00
    -34.677  0.0000E+00  0.0000E+00  0.0000E+00  0.0000E+00  0.0000E+00  0.0000E+00  0.0000E+00  0.0000E+00  0.0000E+00  0.0000E+00  0.0000E+00  0.0000E+00  0.0000E+00  0.0000E+00  0.0000E+00  0.0000E+00  0.0000E+00  0.0000E+00
    -34.518  0.0000E+00  0.0000E+00  0.0000E+00  0.0000E+00  0.0000E+00  0.0000E+00  0.0000E+00  0.0000E+00  0.0000E+00  0.0000E+00  0.0000E+00  0.0000E+00  0.0000E+00  0.0000E+00  0.0000E+00  0.0000E+00  0.0000E+00  0.0000E+00
    -34.360  0.0000E+00  0.0000E+00  0.0000E+00  0.0000E+00  0.0000E+00  0.0000E+00  0.0000E+00  0.0000E+00  0.0000E+00  0.0000E+00  0.0000E+00  0.0000E+00  0.0000E+00  0.0000E+00  0.0000E+00  0.0000E+00  0.0000E+00  0.0000E+00
    -34.202  0.0000E+00  0.0000E+00  0.0000E+00  0.0000E+00  0.0000E+00  0.0000E+00  0.0000E+00  0.0000E+00  0.0000E+00  0.0000E+00  0.0000E+00  0.0000E+00  0.0000E+00  0.0000E+00  0.0000E+00  0.0000E+00  0.0000E+00  0.0000E+00
    -34.043  0.0000E+00  0.0000E+00  0.0000E+00  0.0000E+00  0.0000E+00  0.0000E+00  0.0000E+00  0.0000E+00  0.0000E+00  0.0000E+00  0.0000E+00  0.0000E+00  0.0000E+00  0.0000E+00  0.0000E+00  0.0000E+00  0.0000E+00  0.0000E+00
    -33.885  0.0000E+00  0.0000E+00  0.0000E+00  0.0000E+00  0.0000E+00  0.0000E+00  0.0000E+00  0.0000E+00  0.0000E+00  0.0000E+00  0.0000E+00  0.0000E+00  0.0000E+00  0.0000E+00  0.0000E+00  0.0000E+00  0.0000E+00  0.0000E+00
    -33.726  0.0000E+00  0.0000E+00  0.0000E+00  0.0000E+00  0.0000E+00  0.0000E+00  0.0000E+00  0.0000E+00  0.0000E+00  0.0000E+00  0.0000E+00  0.0000E+00  0.0000E+00  0.0000E+00  0.0000E+00  0.0000E+00  0.0000E+00  0.0000E+00
    -33.568  0.0000E+00  0.0000E+00  0.0000E+00  0.0000E+00  0.0000E+00  0.0000E+00  0.0000E+00  0.0000E+00  0.0000E+00  0.0000E+00  0.0000E+00  0.0000E+00  0.0000E+00  0.0000E+00  0.0000E+00  0.0000E+00  0.0000E+00  0.0000E+00
    -33.409  0.0000E+00  0.0000E+00  0.0000E+00  0.0000E+00  0.0000E+00  0.0000E+00  0.0000E+00  0.0000E+00  0.0000E+00  0.0000E+00  0.0000E+00  0.0000E+00  0.0000E+00  0.0000E+00  0.0000E+00  0.0000E+00  0.0000E+00  0.0000E+00
    -33.251  0.0000E+00  0.0000E+00  0.0000E+00  0.0000E+00  0.0000E+00  0.0000E+00  0.0000E+00  0.0000E+00  0.0000E+00  0.0000E+00  0.0000E+00  0.0000E+00  0.0000E+00  0.0000E+00  0.0000E+00  0.0000E+00  0.0000E+00  0.0000E+00
    -33.093  0.0000E+00  0.0000E+00  0.0000E+00  0.0000E+00  0.0000E+00  0.0000E+00  0.0000E+00  0.0000E+00  0.0000E+00  0.0000E+00  0.0000E+00  0.0000E+00  0.0000E+00  0.0000E+00  0.0000E+00  0.0000E+00  0.0000E+00  0.0000E+00
    -32.934  0.0000E+00  0.0000E+00  0.0000E+00  0.0000E+00  0.0000E+00  0.0000E+00  0.0000E+00  0.0000E+00  0.0000E+00  0.0000E+00  0.0000E+00  0.0000E+00  0.0000E+00  0.0000E+00  0.0000E+00  0.0000E+00  0.0000E+00  0.0000E+00
    -32.776  0.0000E+00  0.0000E+00  0.0000E+00  0.0000E+00  0.0000E+00  0.0000E+00  0.0000E+00  0.0000E+00  0.0000E+00  0.0000E+00  0.0000E+00  0.0000E+00  0.0000E+00  0.0000E+00  0.0000E+00  0.0000E+00  0.0000E+00  0.0000E+00
    -32.617  0.0000E+00  0.0000E+00  0.0000E+00  0.0000E+00  0.0000E+00  0.0000E+00  0.0000E+00  0.0000E+00  0.0000E+00  0.0000E+00  0.0000E+00  0.0000E+00  0.0000E+00  0.0000E+00  0.0000E+00  0.0000E+00  0.0000E+00  0.0000E+00
    -32.459  0.0000E+00  0.0000E+00  0.0000E+00  0.0000E+00  0.0000E+00  0.0000E+00  0.0000E+00  0.0000E+00  0.0000E+00  0.0000E+00  0.0000E+00  0.0000E+00  0.0000E+00  0.0000E+00  0.0000E+00  0.0000E+00  0.0000E+00  0.0000E+00
    -32.301  0.0000E+00  0.0000E+00  0.0000E+00  0.0000E+00  0.0000E+00  0.0000E+00  0.0000E+00  0.0000E+00  0.0000E+00  0.0000E+00  0.0000E+00  0.0000E+00  0.0000E+00  0.0000E+00  0.0000E+00  0.0000E+00  0.0000E+00  0.0000E+00
    -32.142  0.0000E+00  0.0000E+00  0.0000E+00  0.0000E+00  0.0000E+00  0.0000E+00  0.0000E+00  0.0000E+00  0.0000E+00  0.0000E+00  0.0000E+00  0.0000E+00  0.0000E+00  0.0000E+00  0.0000E+00  0.0000E+00  0.0000E+00  0.0000E+00
    -31.984  0.0000E+00  0.0000E+00  0.0000E+00  0.0000E+00  0.0000E+00  0.0000E+00  0.0000E+00  0.0000E+00  0.0000E+00  0.0000E+00  0.0000E+00  0.0000E+00  0.0000E+00  0.0000E+00  0.0000E+00  0.0000E+00  0.0000E+00  0.0000E+00
    -31.825  0.0000E+00  0.0000E+00  0.0000E+00  0.0000E+00  0.0000E+00  0.0000E+00  0.0000E+00  0.0000E+00  0.0000E+00  0.0000E+00  0.0000E+00  0.0000E+00  0.0000E+00  0.0000E+00  0.0000E+00  0.0000E+00  0.0000E+00  0.0000E+00
    -31.667  0.0000E+00  0.0000E+00  0.0000E+00  0.0000E+00  0.0000E+00  0.0000E+00  0.0000E+00  0.0000E+00  0.0000E+00  0.0000E+00  0.0000E+00  0.0000E+00  0.0000E+00  0.0000E+00  0.0000E+00  0.0000E+00  0.0000E+00  0.0000E+00
    -31.508  0.0000E+00  0.0000E+00  0.0000E+00  0.0000E+00  0.0000E+00  0.0000E+00  0.0000E+00  0.0000E+00  0.0000E+00  0.0000E+00  0.0000E+00  0.0000E+00  0.0000E+00  0.0000E+00  0.0000E+00  0.0000E+00  0.0000E+00  0.0000E+00
    -31.350  0.0000E+00  0.0000E+00  0.0000E+00  0.0000E+00  0.0000E+00  0.0000E+00  0.0000E+00  0.0000E+00  0.0000E+00  0.0000E+00  0.0000E+00  0.0000E+00  0.0000E+00  0.0000E+00  0.0000E+00  0.0000E+00  0.0000E+00  0.0000E+00
    -31.192  0.0000E+00  0.0000E+00  0.0000E+00  0.0000E+00  0.0000E+00  0.0000E+00  0.0000E+00  0.0000E+00  0.0000E+00  0.0000E+00  0.0000E+00  0.0000E+00  0.0000E+00  0.0000E+00  0.0000E+00  0.0000E+00  0.0000E+00  0.0000E+00
    -31.033  0.0000E+00  0.0000E+00  0.0000E+00  0.0000E+00  0.0000E+00  0.0000E+00  0.0000E+00  0.0000E+00  0.0000E+00  0.0000E+00  0.0000E+00  0.0000E+00  0.0000E+00  0.0000E+00  0.0000E+00  0.0000E+00  0.0000E+00  0.0000E+00
    -30.875  0.0000E+00  0.0000E+00  0.0000E+00  0.0000E+00  0.0000E+00  0.0000E+00  0.0000E+00  0.0000E+00  0.0000E+00  0.0000E+00  0.0000E+00  0.0000E+00  0.0000E+00  0.0000E+00  0.0000E+00  0.0000E+00  0.0000E+00  0.0000E+00
    -30.716  0.0000E+00  0.0000E+00  0.0000E+00  0.0000E+00  0.0000E+00  0.0000E+00  0.0000E+00  0.0000E+00  0.0000E+00  0.0000E+00  0.0000E+00  0.0000E+00  0.0000E+00  0.0000E+00  0.0000E+00  0.0000E+00  0.0000E+00  0.0000E+00
    -30.558  0.0000E+00  0.0000E+00  0.0000E+00  0.0000E+00  0.0000E+00  0.0000E+00  0.0000E+00  0.0000E+00  0.0000E+00  0.0000E+00  0.0000E+00  0.0000E+00  0.0000E+00  0.0000E+00  0.0000E+00  0.0000E+00  0.0000E+00  0.0000E+00
    -30.400  0.0000E+00  0.0000E+00  0.0000E+00  0.0000E+00  0.0000E+00  0.0000E+00  0.0000E+00  0.0000E+00  0.0000E+00  0.0000E+00  0.0000E+00  0.0000E+00  0.0000E+00  0.0000E+00  0.0000E+00  0.0000E+00  0.0000E+00  0.0000E+00
    -30.241  0.0000E+00  0.0000E+00  0.0000E+00  0.0000E+00  0.0000E+00  0.0000E+00  0.0000E+00  0.0000E+00  0.0000E+00  0.0000E+00  0.0000E+00  0.0000E+00  0.0000E+00  0.0000E+00  0.0000E+00  0.0000E+00  0.0000E+00  0.0000E+00
    -30.083  0.0000E+00  0.0000E+00  0.0000E+00  0.0000E+00  0.0000E+00  0.0000E+00  0.0000E+00  0.0000E+00  0.0000E+00  0.0000E+00  0.0000E+00  0.0000E+00  0.0000E+00  0.0000E+00  0.0000E+00  0.0000E+00  0.0000E+00  0.0000E+00
    -29.924  0.5034E-04  0.5034E-04  0.6973E-05  0.6971E-05  0.2152E-05  0.2152E-05  0.6125E-05  0.6124E-05  0.1597E-05  0.1597E-05  0.5639E-06  0.5639E-06  0.1236E-05  0.1236E-05  0.6516E-06  0.6516E-06  0.1440E-05  0.1440E-05
    -29.766  0.0000E+00  0.0000E+00  0.0000E+00  0.0000E+00  0.0000E+00  0.0000E+00  0.0000E+00  0.0000E+00  0.0000E+00  0.0000E+00  0.0000E+00  0.0000E+00  0.0000E+00  0.0000E+00  0.0000E+00  0.0000E+00  0.0000E+00  0.0000E+00
    -29.607  0.2895E-03  0.2894E-03  0.6369E-04  0.6368E-04  0.1914E-04  0.1914E-04  0.2091E-04  0.2091E-04  0.6718E-05  0.6718E-05  0.7709E-05  0.7708E-05  0.2035E-05  0.2035E-05  0.6878E-05  0.6877E-05  0.1175E-04  0.1175E-04
    -29.449  0.5657E-03  0.5656E-03  0.1301E-03  0.1301E-03  0.4864E-04  0.4864E-04  0.3439E-04  0.3439E-04  0.7122E-05  0.7121E-05  0.2760E-04  0.2759E-04  0.2673E-05  0.2673E-05  0.6917E-05  0.6916E-05  0.2141E-04  0.2141E-04
    -29.291  0.0000E+00  0.0000E+00  0.0000E+00  0.0000E+00  0.0000E+00  0.0000E+00  0.0000E+00  0.0000E+00  0.0000E+00  0.0000E+00  0.0000E+00  0.0000E+00  0.0000E+00  0.0000E+00  0.0000E+00  0.0000E+00  0.0000E+00  0.0000E+00
    -29.132  0.0000E+00  0.0000E+00  0.0000E+00  0.0000E+00  0.0000E+00  0.0000E+00  0.0000E+00  0.0000E+00  0.0000E+00  0.0000E+00  0.0000E+00  0.0000E+00  0.0000E+00  0.0000E+00  0.0000E+00  0.0000E+00  0.0000E+00  0.0000E+00
    -28.974  0.0000E+00  0.0000E+00  0.0000E+00  0.0000E+00  0.0000E+00  0.0000E+00  0.0000E+00  0.0000E+00  0.0000E+00  0.0000E+00  0.0000E+00  0.0000E+00  0.0000E+00  0.0000E+00  0.0000E+00  0.0000E+00  0.0000E+00  0.0000E+00
    -28.815  0.0000E+00  0.0000E+00  0.0000E+00  0.0000E+00  0.0000E+00  0.0000E+00  0.0000E+00  0.0000E+00  0.0000E+00  0.0000E+00  0.0000E+00  0.0000E+00  0.0000E+00  0.0000E+00  0.0000E+00  0.0000E+00  0.0000E+00  0.0000E+00
    -28.657  0.0000E+00  0.0000E+00  0.0000E+00  0.0000E+00  0.0000E+00  0.0000E+00  0.0000E+00  0.0000E+00  0.0000E+00  0.0000E+00  0.0000E+00  0.0000E+00  0.0000E+00  0.0000E+00  0.0000E+00  0.0000E+00  0.0000E+00  0.0000E+00
    -28.499  0.0000E+00  0.0000E+00  0.0000E+00  0.0000E+00  0.0000E+00  0.0000E+00  0.0000E+00  0.0000E+00  0.0000E+00  0.0000E+00  0.0000E+00  0.0000E+00  0.0000E+00  0.0000E+00  0.0000E+00  0.0000E+00  0.0000E+00  0.0000E+00
    -28.340  0.0000E+00  0.0000E+00  0.0000E+00  0.0000E+00  0.0000E+00  0.0000E+00  0.0000E+00  0.0000E+00  0.0000E+00  0.0000E+00  0.0000E+00  0.0000E+00  0.0000E+00  0.0000E+00  0.0000E+00  0.0000E+00  0.0000E+00  0.0000E+00
    -28.182  0.0000E+00  0.0000E+00  0.0000E+00  0.0000E+00  0.0000E+00  0.0000E+00  0.0000E+00  0.0000E+00  0.0000E+00  0.0000E+00  0.0000E+00  0.0000E+00  0.0000E+00  0.0000E+00  0.0000E+00  0.0000E+00  0.0000E+00  0.0000E+00
    -28.023  0.0000E+00  0.0000E+00  0.0000E+00  0.0000E+00  0.0000E+00  0.0000E+00  0.0000E+00  0.0000E+00  0.0000E+00  0.0000E+00  0.0000E+00  0.0000E+00  0.0000E+00  0.0000E+00  0.0000E+00  0.0000E+00  0.0000E+00  0.0000E+00
    -27.865  0.0000E+00  0.0000E+00  0.0000E+00  0.0000E+00  0.0000E+00  0.0000E+00  0.0000E+00  0.0000E+00  0.0000E+00  0.0000E+00  0.0000E+00  0.0000E+00  0.0000E+00  0.0000E+00  0.0000E+00  0.0000E+00  0.0000E+00  0.0000E+00