unknown system                          
           1
     5.715181    0.700618   -0.300100
     2.420022    5.579788   -0.090956
     0.512539    0.165167    5.714348
   Sr   Nb   H 
   2   2  12
Direct configuration=     1
   0.81568800  0.92720200  0.16193400
   0.44015100  0.60098600  0.63395600
   0.03963100  0.34785900  0.92201200
   0.18949800  0.22691000  0.42060000
   0.31404300  0.31017200  0.12001600
   0.09999500  0.61816000  0.89240600
   0.72406700  0.65394700  0.89990100
   0.32677700  0.26051700  0.70996700
   0.04602800  0.13476000  0.70222100
   0.75093900  0.29526100  0.93199300
   0.17533500  0.05032200  0.11322300
   0.07100800  0.98277400  0.44010500
   0.49631600  0.91524000  0.43160000
   0.86160100  0.43332700  0.24381700
   0.49310200  0.25068500  0.41359300
   0.11100900  0.56254400  0.41877400
unknown system                          
           1
     5.763730    0.705444   -0.302825
     2.439591    5.626983   -0.090160
     0.516640    0.168239    5.765929
   Sr   Nb   H 
   2   2  12
Direct configuration=     2
   0.81581682  0.92723158  0.16230706
   0.44002922  0.60094585  0.63398707
   0.03919745  0.34805888  0.92258318
   0.18990377  0.22629250  0.42041533
   0.31373232  0.31008495  0.11978706
   0.09979353  0.61803329  0.89230991
   0.72452331  0.65366394  0.89965684
   0.32647503  0.26061309  0.70997617
   0.04634719  0.13487950  0.70230353
   0.75158366  0.29531815  0.93187885
   0.17504413  0.05071682  0.11299183
   0.07112370  0.98300041  0.44006419
   0.49593145  0.91548245  0.43147303
   0.86188634  0.43333820  0.24392400
   0.49266178  0.25059221  0.41366226
   0.11113831  0.56241415  0.41879769
unknown system                          
           1
     5.823959    0.711432   -0.306204
     2.463868    5.685532   -0.089172
     0.521728    0.172050    5.829919
   Sr   Nb   H 
   2   2  12
Direct configuration=     3
   0.81597537  0.92726786  0.16276572
   0.43987944  0.60089641  0.63402528
   0.03866438  0.34830444  0.92328535
   0.19040268  0.22553306  0.42018850
   0.31335009  0.30997788  0.11950560
   0.09954567  0.61787741  0.89219181
   0.72508444  0.65331596  0.89935676
   0.32610363  0.26073122  0.70998740
   0.04673985  0.13502656  0.70240497
   0.75237658  0.29538867  0.93173850
   0.17468639  0.05120253  0.11270747
   0.07126606  0.98327897  0.44001396
   0.49545846  0.91578065  0.43131684
   0.86223733  0.43335202  0.24405556
   0.49212030  0.25047792  0.41374742
   0.11129733  0.56225444  0.41882686
unknown system                          
           1
     5.801746    0.709224   -0.304958
     2.454914    5.663938   -0.089536
     0.519851    0.170645    5.806319
   Sr   Nb   H 
   2   2  12
Direct configuration=     4
   0.81591746  0.92725466  0.16259841
   0.43993410  0.60091448  0.63401134
   0.03885884  0.34821495  0.92302925
   0.19022068  0.22581019  0.42027115
   0.31348963  0.31001696  0.11960826
   0.09963615  0.61793432  0.89223488
   0.72487970  0.65344288  0.89946617
   0.32623917  0.26068814  0.70998332
   0.04659652  0.13497286  0.70236798
   0.75208720  0.29536283  0.93178969
   0.17481694  0.05102523  0.11281126
   0.07121409  0.98317727  0.44003231
   0.49563107  0.91567183  0.43137385
   0.86210922  0.43334696  0.24400757
   0.49231792  0.25051970  0.41371635
   0.11123930  0.56231273  0.41881620
unknown system                          
           1
     5.780781    0.698816   -0.305308
     2.438954    5.638846   -0.089573
     0.516037    0.169617    5.779581
   Sr   Nb   H 
   2   2  12
Direct configuration=     5
   0.81617044  0.92721287  0.16314980
   0.43956948  0.60062193  0.63406790
   0.03967795  0.34758791  0.92226176
   0.19096262  0.22710247  0.42021675
   0.31163017  0.30960425  0.11971139
   0.09908167  0.61673268  0.89250966
   0.72673934  0.65158133  0.89932047
   0.32364208  0.26130511  0.71022732
   0.04731891  0.13685954  0.70301908
   0.75379547  0.29544228  0.93176067
   0.17369067  0.05307315  0.11234874
   0.07193873  0.98405344  0.43984153
   0.49404431  0.91688971  0.43115735
   0.86431459  0.43225412  0.24391505
   0.49064698  0.25019069  0.41378149
   0.11196459  0.56015452  0.41882903
unknown system                          
           1
     5.781000    0.698925   -0.305304
     2.439121    5.639108   -0.089573
     0.516077    0.169627    5.779860
   Sr   Nb   H 
   2   2  12
Direct configuration=     6
   0.81616779  0.92721331  0.16314401
   0.43957331  0.60062500  0.63406731
   0.03966936  0.34759448  0.92226982
   0.19095482  0.22708889  0.42021732
   0.31164968  0.30960862  0.11971031
   0.09908749  0.61674531  0.89250678
   0.72671986  0.65160085  0.89932199
   0.32366931  0.26129867  0.71022477
   0.04731132  0.13683972  0.70301223
   0.75377755  0.29544142  0.93176097
   0.17370246  0.05305166  0.11235360
   0.07193113  0.98404423  0.43984353
   0.49406094  0.91687694  0.43115963
   0.86429147  0.43226556  0.24391602
   0.49066450  0.25019417  0.41378081
   0.11195701  0.56017717  0.41882890
