 running on   16 total cores
 distrk:  each k-point on   16 cores,    1 groups
 distr:  one band on    1 cores,   16 groups
 using from now: INCAR     
 vasp.5.4.4.18Apr17-6-g9f103f2a35 (build Nov 01 2019 12:17:22) complex          
  
 POSCAR found type information on POSCAR  Sr Nb H 
 POSCAR found :  3 types and      21 ions

 ----------------------------------------------------------------------------- 
|                                                                             |
|           W    W    AA    RRRRR   N    N  II  N    N   GGGG   !!!           |
|           W    W   A  A   R    R  NN   N  II  NN   N  G    G  !!!           |
|           W    W  A    A  R    R  N N  N  II  N N  N  G       !!!           |
|           W WW W  AAAAAA  RRRRR   N  N N  II  N  N N  G  GGG   !            |
|           WW  WW  A    A  R   R   N   NN  II  N   NN  G    G                |
|           W    W  A    A  R    R  N    N  II  N    N   GGGG   !!!           |
|                                                                             |
|      For optimal performance we recommend to set                            |
|        NCORE= 4 - approx SQRT( number of cores)                             |
|      NCORE specifies how many cores store one orbital (NPAR=cpu/NCORE).     |
|      This setting can  greatly improve the performance of VASP for DFT.     |
|      The default,   NCORE=1            might be grossly inefficient         |
|      on modern multi-core architectures or massively parallel machines.     |
|      Do your own testing !!!!                                               |
|      Unfortunately you need to use the default for GW and RPA calculations. |
|      (for HF NCORE is supported but not extensively tested yet)             |
|                                                                             |
 ----------------------------------------------------------------------------- 

 LDA part: xc-table for Pade appr. of Perdew
 POSCAR, INCAR and KPOINTS ok, starting setup
 FFT: planning ...
 WAVECAR not read
 entering main loop
       N       E                     dE             d eps       ncg     rms          rms(c)
DAV:   1     0.829590406467E+03    0.82959E+03   -0.36603E+04  8192   0.127E+03
DAV:   2    -0.414162739584E+02   -0.87101E+03   -0.83720E+03  8192   0.511E+02
DAV:   3    -0.106512139769E+03   -0.65096E+02   -0.62649E+02 14448   0.123E+02
DAV:   4    -0.108837636086E+03   -0.23255E+01   -0.23051E+01 13280   0.194E+01
DAV:   5    -0.108902654844E+03   -0.65019E-01   -0.64789E-01 13424   0.290E+00    0.617E+01
RMM:   6    -0.105638388652E+03    0.32643E+01   -0.20271E+01  9483   0.172E+01    0.242E+01
RMM:   7    -0.105804412349E+03   -0.16602E+00   -0.73581E+00  9688   0.102E+01    0.849E+00
RMM:   8    -0.105441508192E+03    0.36290E+00   -0.91896E-01  9942   0.349E+00    0.495E+00
RMM:   9    -0.105345407481E+03    0.96101E-01   -0.15897E-01  9505   0.182E+00    0.318E+00
RMM:  10    -0.105336283047E+03    0.91244E-02   -0.55430E-02  9687   0.108E+00    0.155E+00
RMM:  11    -0.105331716440E+03    0.45666E-02   -0.20201E-02  9697   0.611E-01    0.591E-01
RMM:  12    -0.105328276286E+03    0.34402E-02   -0.55331E-03  7612   0.341E-01    0.305E-01
RMM:  13    -0.105328846851E+03   -0.57057E-03   -0.14119E-03  5956   0.225E-01
   1 F= -.10532885E+03 E0= -.10532885E+03  d E =-.105329E+03  mag=    -0.0230
 curvature:   0.00 expect dE= 0.000E+00 dE for cont linesearch  0.000E+00
 trial: gam= 0.00000 g(F)=  0.188E-02 g(S)=  0.117E+00 ort = 0.000E+00 (trialstep = 0.100E+01)
 search vector abs. value=  0.119E+00
 bond charge predicted
       N       E                     dE             d eps       ncg     rms          rms(c)
DAV:   1    -0.105758227593E+03   -0.42995E+00   -0.86188E+00 10176   0.163E+01    0.722E+00
RMM:   2    -0.105432668274E+03    0.32556E+00   -0.92657E-01  9740   0.493E+00    0.188E+00
RMM:   3    -0.105405868394E+03    0.26800E-01   -0.23294E-01  9443   0.246E+00    0.133E+00
RMM:   4    -0.105383343494E+03    0.22525E-01   -0.29076E-02  9815   0.913E-01    0.107E+00
RMM:   5    -0.105382414249E+03    0.92924E-03   -0.31515E-03  6223   0.337E-01
   2 F= -.10538241E+03 E0= -.10538241E+03  d E =-.535674E-01  mag=    -0.0010
 trial-energy change:   -0.053567  1 .order   -0.073665   -0.118861   -0.028469
 step:   1.3150(harm=  1.3150)  dis= 0.00489  next Energy=  -105.406995 (dE=-0.781E-01)
 bond charge predicted
       N       E                     dE             d eps       ncg     rms          rms(c)
DAV:   1    -0.105412478581E+03   -0.29135E-01   -0.80478E-01 10720   0.498E+00    0.246E+00
RMM:   2    -0.105378191077E+03    0.34288E-01   -0.84812E-02  8552   0.172E+00    0.547E-01
RMM:   3    -0.105379169984E+03   -0.97891E-03   -0.38150E-02  9248   0.909E-01    0.606E-01
RMM:   4    -0.105373398770E+03    0.57712E-02   -0.51957E-03  7533   0.342E-01    0.419E-01
RMM:   5    -0.105373730322E+03   -0.33155E-03   -0.80828E-04  5413   0.238E-01
   3 F= -.10537373E+03 E0= -.10537373E+03  d E =-.448835E-01  mag=    -0.0002
 curvature:  -0.66 expect dE=-0.127E-01 dE for cont linesearch -0.405E-02
 trial: gam= 0.00000 g(F)=  0.102E-01 g(S)=  0.910E-02 ort =-0.271E-01 (trialstep = 0.106E+01)
 search vector abs. value=  0.193E-01
 bond charge predicted
       N       E                     dE             d eps       ncg     rms          rms(c)
DAV:   1    -0.105395051791E+03   -0.21653E-01   -0.15512E+00  9344   0.840E+00    0.252E+00
RMM:   2    -0.105389316590E+03    0.57352E-02   -0.23764E-01 10346   0.234E+00    0.706E-01
RMM:   3    -0.105384663709E+03    0.46529E-02   -0.25350E-02  8820   0.124E+00    0.319E-01
RMM:   4    -0.105385339239E+03   -0.67553E-03   -0.43465E-03  6558   0.377E-01
   4 F= -.10538534E+03 E0= -.10538534E+03  d E =-.116089E-01  mag=    -0.0000
 trial-energy change:   -0.011609  1 .order   -0.014329   -0.020486   -0.008172
 step:   1.7684(harm=  1.7684)  dis= 0.00956  next Energy=  -105.390771 (dE=-0.170E-01)
 bond charge predicted
       N       E                     dE             d eps       ncg     rms          rms(c)
DAV:   1    -0.105389438410E+03   -0.47747E-02   -0.66816E-01  9696   0.559E+00    0.158E+00
RMM:   2    -0.105384924449E+03    0.45140E-02   -0.10663E-01 10138   0.158E+00    0.435E-01
RMM:   3    -0.105382628099E+03    0.22963E-02   -0.11088E-02  7802   0.875E-01    0.325E-01
RMM:   4    -0.105382895252E+03   -0.26715E-03   -0.21910E-03  5941   0.269E-01
   5 F= -.10538290E+03 E0= -.10538290E+03  d E =-.916493E-02  mag=    -0.0000
 curvature:  -0.88 expect dE=-0.573E-02 dE for cont linesearch -0.115E-02
 trial: gam= 0.00000 g(F)=  0.473E-02 g(S)=  0.175E-02 ort =-0.500E-02 (trialstep = 0.120E+01)
 search vector abs. value=  0.648E-02
 reached required accuracy - stopping structural energy minimisation
