Automatically generated mesh
      88
Reciprocal lattice
    0.00000000000000    0.00000000000000    0.00000000000000             1
    0.14285714285714    0.00000000000000    0.00000000000000             2
    0.28571428571429    0.00000000000000    0.00000000000000             2
    0.42857142857143    0.00000000000000    0.00000000000000             2
    0.00000000000000    0.20000000000000    0.00000000000000             2
    0.14285714285714    0.20000000000000    0.00000000000000             2
    0.28571428571429    0.20000000000000    0.00000000000000             2
    0.42857142857143    0.20000000000000    0.00000000000000             2
   -0.42857142857143    0.20000000000000    0.00000000000000             2
   -0.28571428571429    0.20000000000000    0.00000000000000             2
   -0.14285714285714    0.20000000000000    0.00000000000000             2
    0.00000000000000    0.40000000000000    0.00000000000000             2
    0.14285714285714    0.40000000000000    0.00000000000000             2
    0.28571428571429    0.40000000000000    0.00000000000000             2
    0.42857142857143    0.40000000000000    0.00000000000000             2
   -0.42857142857143    0.40000000000000    0.00000000000000             2
   -0.28571428571429    0.40000000000000    0.00000000000000             2
   -0.14285714285714    0.40000000000000    0.00000000000000             2
    0.00000000000000    0.00000000000000    0.20000000000000             2
    0.14285714285714    0.00000000000000    0.20000000000000             2
    0.28571428571429    0.00000000000000    0.20000000000000             2
    0.42857142857143    0.00000000000000    0.20000000000000             2
   -0.42857142857143    0.00000000000000    0.20000000000000             2
   -0.28571428571429    0.00000000000000    0.20000000000000             2
   -0.14285714285714    0.00000000000000    0.20000000000000             2
    0.00000000000000    0.20000000000000    0.20000000000000             2
    0.14285714285714    0.20000000000000    0.20000000000000             2
    0.28571428571429    0.20000000000000    0.20000000000000             2
    0.42857142857143    0.20000000000000    0.20000000000000             2
   -0.42857142857143    0.20000000000000    0.20000000000000             2
   -0.28571428571429    0.20000000000000    0.20000000000000             2
   -0.14285714285714    0.20000000000000    0.20000000000000             2
    0.00000000000000    0.40000000000000    0.20000000000000             2
    0.14285714285714    0.40000000000000    0.20000000000000             2
    0.28571428571429    0.40000000000000    0.20000000000000             2
    0.42857142857143    0.40000000000000    0.20000000000000             2
   -0.42857142857143    0.40000000000000    0.20000000000000             2
   -0.28571428571429    0.40000000000000    0.20000000000000             2
   -0.14285714285714    0.40000000000000    0.20000000000000             2
    0.00000000000000   -0.40000000000000    0.20000000000000             2
    0.14285714285714   -0.40000000000000    0.20000000000000             2
    0.28571428571429   -0.40000000000000    0.20000000000000             2
    0.42857142857143   -0.40000000000000    0.20000000000000             2
   -0.42857142857143   -0.40000000000000    0.20000000000000             2
   -0.28571428571429   -0.40000000000000    0.20000000000000             2
   -0.14285714285714   -0.40000000000000    0.20000000000000             2
    0.00000000000000   -0.20000000000000    0.20000000000000             2
    0.14285714285714   -0.20000000000000    0.20000000000000             2
    0.28571428571429   -0.20000000000000    0.20000000000000             2
    0.42857142857143   -0.20000000000000    0.20000000000000             2
   -0.42857142857143   -0.20000000000000    0.20000000000000             2
   -0.28571428571429   -0.20000000000000    0.20000000000000             2
   -0.14285714285714   -0.20000000000000    0.20000000000000             2
    0.00000000000000    0.00000000000000    0.40000000000000             2
    0.14285714285714    0.00000000000000    0.40000000000000             2
    0.28571428571429    0.00000000000000    0.40000000000000             2
    0.42857142857143    0.00000000000000    0.40000000000000             2
   -0.42857142857143    0.00000000000000    0.40000000000000             2
   -0.28571428571429    0.00000000000000    0.40000000000000             2
   -0.14285714285714    0.00000000000000    0.40000000000000             2
    0.00000000000000    0.20000000000000    0.40000000000000             2
    0.14285714285714    0.20000000000000    0.40000000000000             2
    0.28571428571429    0.20000000000000    0.40000000000000             2
    0.42857142857143    0.20000000000000    0.40000000000000             2
   -0.42857142857143    0.20000000000000    0.40000000000000             2
   -0.28571428571429    0.20000000000000    0.40000000000000             2
   -0.14285714285714    0.20000000000000    0.40000000000000             2
    0.00000000000000    0.40000000000000    0.40000000000000             2
    0.14285714285714    0.40000000000000    0.40000000000000             2
    0.28571428571429    0.40000000000000    0.40000000000000             2
    0.42857142857143    0.40000000000000    0.40000000000000             2
   -0.42857142857143    0.40000000000000    0.40000000000000             2
   -0.28571428571429    0.40000000000000    0.40000000000000             2
   -0.14285714285714    0.40000000000000    0.40000000000000             2
    0.00000000000000   -0.40000000000000    0.40000000000000             2
    0.14285714285714   -0.40000000000000    0.40000000000000             2
    0.28571428571429   -0.40000000000000    0.40000000000000             2
    0.42857142857143   -0.40000000000000    0.40000000000000             2
   -0.42857142857143   -0.40000000000000    0.40000000000000             2
   -0.28571428571429   -0.40000000000000    0.40000000000000             2
   -0.14285714285714   -0.40000000000000    0.40000000000000             2
    0.00000000000000   -0.20000000000000    0.40000000000000             2
    0.14285714285714   -0.20000000000000    0.40000000000000             2
    0.28571428571429   -0.20000000000000    0.40000000000000             2
    0.42857142857143   -0.20000000000000    0.40000000000000             2
   -0.42857142857143   -0.20000000000000    0.40000000000000             2
   -0.28571428571429   -0.20000000000000    0.40000000000000             2
   -0.14285714285714   -0.20000000000000    0.40000000000000             2
Tetrahedra
       522    0.00095238095238
         2         1         2         5        20
         2         2         5         6        20
         2         5         6        20        27
         2         1         5        19        20
         2         5        19        20        26
         2         5        20        26        27
         2         2         3         6        21
         2         3         6         7        21
         2         6         7        21        28
         2         2         6        20        21
         2         6        20        21        27
         2         6        21        27        28
         2         3         4         7        22
         2         4         7         8        22
         2         7         8        22        29
         2         3         7        21        22
         2         7        21        22        28
         2         7        22        28        29
         2         4         4         8        23
         2         4         8         9        23
         2         8         9        23        30
         2         4         8        22        23
         2         8        22        23        29
         2         8        23        29        30
         2         3         4         9        24
         2         3         9        10        24
         2         9        10        24        31
         2         4         9        23        24
         2         9        23        24        30
         2         9        24        30        31
         2         2         3        10        25
         2         2        10        11        25
         2        10        11        25        32
         2         3        10        24        25
         2        10        24        25        31
         2        10        25        31        32
         2         1         2        11        19
         2         1         5        11        19
         2         5        11        19        26
         2         2        11        19        25
         2        11        19        25        32
         2        11        19        26        32
         2         5         6        12        27
         2         6        12        13        27
         2        12        13        27        34
         2         5        12        26        27
         2        12        26        27        33
         2        12        27        33        34
         2         6         7        13        28
         2         7        13        14        28
         2        13        14        28        35
         2         6        13        27        28
         2        13        27        28        34
         2        13        28        34        35
         2         7         8        14        29
         2         8        14        15        29
         2        14        15        29        36
         2         7        14        28        29
         2        14        28        29        35
         2        14        29        35        36
         2         8         9        15        30
         2         9        15        16        30
         2        15        16        30        37
         2         8        15        29        30
         2        15        29        30        36
         2        15        30        36        37
         2         9        10        16        31
         2        10        16        17        31
         2        16        17        31        38
         2         9        16        30        31
         2        16        30        31        37
         2        16        31        37        38
         2        10        11        17        32
         2        11        17        18        32
         2        17        18        32        39
         2        10        17        31        32
         2        17        31        32        38
         2        17        32        38        39
         2         5        11        18        26
         2         5        12        18        26
         2        12        18        26        33
         2        11        18        26        32
         2        18        26        32        39
         2        18        26        33        39
         2        12        12        13        34
         2        12        13        18        34
         2        12        18        34        41
         2        12        12        33        34
         2        12        33        34        40
         2        12        34        40        41
         2        13        14        18        35
         2        14        17        18        35
         2        17        18        35        42
         2        13        18        34        35
         2        18        34        35        41
         2        18        35        41        42
         2        14        15        17        36
         2        15        16        17        36
         2        16        17        36        43
         2        14        17        35        36
         2        17        35        36        42
         2        17        36        42        43
         4        15        16        16        37
         2        15        16        37        44
         2        15        16        36        37
         2        16        36        37        43
         2        16        37        43        44
         2        15        16        17        38
         2        14        15        17        38
         2        14        15        38        45
         2        15        16        37        38
         2        15        37        38        44
         2        15        38        44        45
         2        14        17        18        39
         2        13        14        18        39
         2        13        14        39        46
         2        14        17        38        39
         2        14        38        39        45
         2        14        39        45        46
         2        12        13        18        33
         2        12        12        13        33
         2        12        13        33        40
         2        13        18        33        39
         2        13        33        39        46
         2        13        33        40        46
         2         5        12        18        41
         2         5        11        18        41
         2         5        11        41        48
         2         5        12        40        41
         2         5        40        41        47
         2         5        41        47        48
         2        11        17        18        42
         2        10        11        17        42
         2        10        11        42        49
         2        11        18        41        42
         2        11        41        42        48
         2        11        42        48        49
         2        10        16        17        43
         2         9        10        16        43
         2         9        10        43        50
         2        10        17        42        43
         2        10        42        43        49
         2        10        43        49        50
         2         9        15        16        44
         2         8         9        15        44
         2         8         9        44        51
         2         9        16        43        44
         2         9        43        44        50
         2         9        44        50        51
         2         8        14        15        45
         2         7         8        14        45
         2         7         8        45        52
         2         8        15        44        45
         2         8        44        45        51
         2         8        45        51        52
         2         7        13        14        46
         2         6         7        13        46
         2         6         7        46        53
         2         7        14        45        46
         2         7        45        46        52
         2         7        46        52        53
         2         6        12        13        40
         2         5         6        12        40
         2         5         6        40        47
         2         6        13        40        46
         2         6        40        46        53
         2         6        40        47        53
         2         1         5        11        48
         2         1         2        11        48
         2         1         2        20        48
         2         1         5        47        48
         2         1        19        47        48
         2         1        19        20        48
         2         2        10        11        49
         2         2         3        10        49
         2         2         3        21        49
         2         2        11        48        49
         2         2        20        48        49
         2         2        20        21        49
         2         3         9        10        50
         2         3         4         9        50
         2         3         4        22        50
         2         3        10        49        50
         2         3        21        49        50
         2         3        21        22        50
         2         4         8         9        51
         2         4         4         8        51
         2         4         4        23        51
         2         4         9        50        51
         2         4        22        50        51
         2         4        22        23        51
         2         4         7         8        52
         2         3         4         7        52
         2         3         4        24        52
         2         4         8        51        52
         2         4        23        51        52
         2         4        23        24        52
         2         3         6         7        53
         2         2         3         6        53
         2         2         3        25        53
         2         3         7        52        53
         2         3        24        52        53
         2         3        24        25        53
         2         2         5         6        47
         2         1         2         5        47
         2         1         2        19        47
         2         2         6        47        53
         2         2        25        47        53
         2         2        19        25        47
         2        19        20        26        55
         2        20        26        27        55
         2        26        27        55        62
         2        19        26        54        55
         2        26        54        55        61
         2        26        55        61        62
         2        20        21        27        56
         2        21        27        28        56
         2        27        28        56        63
         2        20        27        55        56
         2        27        55        56        62
         2        27        56        62        63
         2        21        22        28        57
         2        22        28        29        57
         2        28        29        57        64
         2        21        28        56        57
         2        28        56        57        63
         2        28        57        63        64
         2        22        23        29        58
         2        23        29        30        58
         2        29        30        58        65
         2        22        29        57        58
         2        29        57        58        64
         2        29        58        64        65
         2        23        24        30        59
         2        24        30        31        59
         2        30        31        59        66
         2        23        30        58        59
         2        30        58        59        65
         2        30        59        65        66
         2        24        25        31        60
         2        25        31        32        60
         2        31        32        60        67
         2        24        31        59        60
         2        31        59        60        66
         2        31        60        66        67
         2        19        25        32        54
         2        19        26        32        54
         2        26        32        54        61
         2        25        32        54        60
         2        32        54        60        67
         2        32        54        61        67
         2        26        27        33        62
         2        27        33        34        62
         2        33        34        62        69
         2        26        33        61        62
         2        33        61        62        68
         2        33        62        68        69
         2        27        28        34        63
         2        28        34        35        63
         2        34        35        63        70
         2        27        34        62        63
         2        34        62        63        69
         2        34        63        69        70
         2        28        29        35        64
         2        29        35        36        64
         2        35        36        64        71
         2        28        35        63        64
         2        35        63        64        70
         2        35        64        70        71
         2        29        30        36        65
         2        30        36        37        65
         2        36        37        65        72
         2        29        36        64        65
         2        36        64        65        71
         2        36        65        71        72
         2        30        31        37        66
         2        31        37        38        66
         2        37        38        66        73
         2        30        37        65        66
         2        37        65        66        72
         2        37        66        72        73
         2        31        32        38        67
         2        32        38        39        67
         2        38        39        67        74
         2        31        38        66        67
         2        38        66        67        73
         2        38        67        73        74
         2        26        32        39        61
         2        26        33        39        61
         2        33        39        61        68
         2        32        39        61        67
         2        39        61        67        74
         2        39        61        68        74
         2        33        34        40        69
         2        34        40        41        69
         2        40        41        69        76
         2        33        40        68        69
         2        40        68        69        75
         2        40        69        75        76
         2        34        35        41        70
         2        35        41        42        70
         2        41        42        70        77
         2        34        41        69        70
         2        41        69        70        76
         2        41        70        76        77
         2        35        36        42        71
         2        36        42        43        71
         2        42        43        71        78
         2        35        42        70        71
         2        42        70        71        77
         2        42        71        77        78
         2        36        37        43        72
         2        37        43        44        72
         2        43        44        72        79
         2        36        43        71        72
         2        43        71        72        78
         2        43        72        78        79
         2        37        38        44        73
         2        38        44        45        73
         2        44        45        73        80
         2        37        44        72        73
         2        44        72        73        79
         2        44        73        79        80
         2        38        39        45        74
         2        39        45        46        74
         2        45        46        74        81
         2        38        45        73        74
         2        45        73        74        80
         2        45        74        80        81
         2        33        39        46        68
         2        33        40        46        68
         2        40        46        68        75
         2        39        46        68        74
         2        46        68        74        81
         2        46        68        75        81
         2        40        41        47        76
         2        41        47        48        76
         2        47        48        76        83
         2        40        47        75        76
         2        47        75        76        82
         2        47        76        82        83
         2        41        42        48        77
         2        42        48        49        77
         2        48        49        77        84
         2        41        48        76        77
         2        48        76        77        83
         2        48        77        83        84
         2        42        43        49        78
         2        43        49        50        78
         2        49        50        78        85
         2        42        49        77        78
         2        49        77        78        84
         2        49        78        84        85
         2        43        44        50        79
         2        44        50        51        79
         2        50        51        79        86
         2        43        50        78        79
         2        50        78        79        85
         2        50        79        85        86
         2        44        45        51        80
         2        45        51        52        80
         2        51        52        80        87
         2        44        51        79        80
         2        51        79        80        86
         2        51        80        86        87
         2        45        46        52        81
         2        46        52        53        81
         2        52        53        81        88
         2        45        52        80        81
         2        52        80        81        87
         2        52        81        87        88
         2        40        46        53        75
         2        40        47        53        75
         2        47        53        75        82
         2        46        53        75        81
         2        53        75        81        88
         2        53        75        82        88
         2        19        47        48        83
         2        19        20        48        83
         2        19        20        55        83
         2        19        47        82        83
         2        19        54        82        83
         2        19        54        55        83
         2        20        48        49        84
         2        20        21        49        84
         2        20        21        56        84
         2        20        48        83        84
         2        20        55        83        84
         2        20        55        56        84
         2        21        49        50        85
         2        21        22        50        85
         2        21        22        57        85
         2        21        49        84        85
         2        21        56        84        85
         2        21        56        57        85
         2        22        50        51        86
         2        22        23        51        86
         2        22        23        58        86
         2        22        50        85        86
         2        22        57        85        86
         2        22        57        58        86
         2        23        51        52        87
         2        23        24        52        87
         2        23        24        59        87
         2        23        51        86        87
         2        23        58        86        87
         2        23        58        59        87
         2        24        52        53        88
         2        24        25        53        88
         2        24        25        60        88
         2        24        52        87        88
         2        24        59        87        88
         2        24        59        60        88
         2        25        47        53        82
         2        19        25        47        82
         2        19        25        54        82
         2        25        53        82        88
         2        25        60        82        88
         2        25        54        60        82
         2        54        55        60        61
         2        55        60        61        62
         2        60        61        62        88
         2        54        54        60        61
         2        54        60        61        82
         2        60        61        82        88
         2        55        56        59        62
         2        56        59        62        63
         2        59        62        63        87
         2        55        59        60        62
         2        59        60        62        88
         2        59        62        87        88
         2        56        57        58        63
         2        57        58        63        64
         2        58        63        64        86
         2        56        58        59        63
         2        58        59        63        87
         2        58        63        86        87
         4        57        57        58        64
         2        57        58        64        65
         2        57        64        65        85
         2        57        58        64        86
         2        57        64        85        86
         2        56        58        59        65
         2        56        59        65        66
         2        56        65        66        84
         2        56        57        58        65
         2        56        57        65        85
         2        56        65        84        85
         2        55        59        60        66
         2        55        60        66        67
         2        55        66        67        83
         2        55        56        59        66
         2        55        56        66        84
         2        55        66        83        84
         2        54        54        60        67
         2        54        54        61        67