       N       E                     dE             d eps       ncg     rms          rms(c)
DAV:   1     0.213006127294E+03    0.21301E+03   -0.18655E+04  6144   0.115E+03
DAV:   2    -0.293937448689E+02   -0.24240E+03   -0.23732E+03  7424   0.302E+02
DAV:   3    -0.444799098737E+02   -0.15086E+02   -0.14991E+02 12144   0.614E+01
DAV:   4    -0.447509274772E+02   -0.27102E+00   -0.27092E+00  6832   0.737E+00
DAV:   5    -0.447628720518E+02   -0.11945E-01   -0.11941E-01 10608   0.123E+00    0.340E+01
RMM:   6    -0.456440243515E+02   -0.88115E+00   -0.57372E+00  6707   0.937E+00    0.182E+01
RMM:   7    -0.449869385928E+02    0.65709E+00   -0.29425E+00  7212   0.954E+00    0.818E+00
RMM:   8    -0.451293634034E+02   -0.14242E+00   -0.52339E-01  7110   0.425E+00    0.369E+00
RMM:   9    -0.451511058869E+02   -0.21742E-01   -0.74338E-02  7155   0.181E+00    0.178E+00
RMM:  10    -0.451523258160E+02   -0.12199E-02   -0.31407E-02  6953   0.105E+00    0.424E-01
RMM:  11    -0.451533865997E+02   -0.10608E-02   -0.49302E-03  5878   0.557E-01    0.185E-01
RMM:  12    -0.451537132928E+02   -0.32669E-03   -0.15414E-03  4915   0.262E-01
   1 F= -.45153713E+02 E0= -.45153713E+02  d E =-.451537E+02  mag=     0.7370
       N       E                     dE             d eps       ncg     rms          rms(c)
DAV:   1    -0.453988097835E+02   -0.24542E+00   -0.44848E+00  9152   0.127E+01    0.404E+00
RMM:   2    -0.452484209901E+02    0.15039E+00   -0.62560E-01  7147   0.450E+00    0.124E+00
RMM:   3    -0.452107178498E+02    0.37703E-01   -0.60702E-02  7145   0.211E+00    0.961E-01
RMM:   4    -0.452021467429E+02    0.85711E-02   -0.32474E-02  7038   0.106E+00    0.105E+00
RMM:   5    -0.452030594423E+02   -0.91270E-03   -0.88073E-03  6635   0.910E-01    0.635E-01
RMM:   6    -0.452033792368E+02   -0.31979E-03   -0.78840E-03  6231   0.355E-01    0.186E-01
RMM:   7    -0.452033911291E+02   -0.11892E-04   -0.30369E-03  5540   0.299E-01
   2 F= -.45203391E+02 E0= -.45203391E+02  d E =-.496778E-01  mag=     0.8011
       N       E                     dE             d eps       ncg     rms          rms(c)
DAV:   1    -0.454482140242E+02   -0.24483E+00   -0.55374E+00  6304   0.141E+01    0.433E+00
RMM:   2    -0.452633018798E+02    0.18491E+00   -0.72829E-01  7252   0.485E+00    0.135E+00
RMM:   3    -0.452204787738E+02    0.42823E-01   -0.76950E-02  7153   0.245E+00    0.104E+00
RMM:   4    -0.452104562344E+02    0.10023E-01   -0.36951E-02  7049   0.111E+00    0.119E+00
RMM:   5    -0.452115450324E+02   -0.10888E-02   -0.89972E-03  6465   0.107E+00    0.744E-01
RMM:   6    -0.452115814379E+02   -0.36405E-04   -0.92085E-03  6354   0.390E-01    0.257E-01
RMM:   7    -0.452115222999E+02    0.59138E-04   -0.34476E-03  6207   0.330E-01
   3 F= -.45211522E+02 E0= -.45211522E+02  d E =-.578090E-01  mag=     0.8606
       N       E                     dE             d eps       ncg     rms          rms(c)
DAV:   1    -0.452804504258E+02   -0.68869E-01   -0.37114E+00  7888   0.111E+01    0.256E+00
RMM:   2    -0.452100164961E+02    0.70434E-01   -0.36543E-01  6937   0.337E+00    0.968E-01
RMM:   3    -0.451923463576E+02    0.17670E-01   -0.33078E-02  6977   0.185E+00    0.610E-01
RMM:   4    -0.451883602891E+02    0.39861E-02   -0.17189E-02  7223   0.774E-01    0.636E-01
RMM:   5    -0.451887858146E+02   -0.42553E-03   -0.46123E-03  6288   0.722E-01
   4 F= -.45188786E+02 E0= -.45188786E+02  d E =0.227365E-01  mag=     0.8977
       N       E                     dE             d eps       ncg     rms          rms(c)
DAV:   1    -0.452636082109E+02   -0.75248E-01   -0.19151E+00  9008   0.788E+00    0.186E+00
RMM:   2    -0.452286736101E+02    0.34935E-01   -0.19617E-01  6829   0.244E+00    0.685E-01
RMM:   3    -0.452200172043E+02    0.86564E-02   -0.15843E-02  6858   0.131E+00    0.406E-01
RMM:   4    -0.452178519206E+02    0.21653E-02   -0.85248E-03  6385   0.521E-01    0.372E-01
RMM:   5    -0.452179122189E+02   -0.60298E-04   -0.21860E-03  5157   0.591E-01
   5 F= -.45217912E+02 E0= -.45217912E+02  d E =-.638992E-02  mag=     0.8713
       N       E                     dE             d eps       ncg     rms          rms(c)
DAV:   1    -0.452419618792E+02   -0.24110E-01   -0.68718E-01  6208   0.541E+00    0.129E+00
RMM:   2    -0.452302828762E+02    0.11679E-01   -0.53894E-02  7011   0.139E+00    0.423E-01
RMM:   3    -0.452269205217E+02    0.33624E-02   -0.87676E-03  6390   0.938E-01    0.303E-01
RMM:   4    -0.452265113681E+02    0.40915E-03   -0.39220E-03  5417   0.420E-01
   6 F= -.45226511E+02 E0= -.45226511E+02  d E =-.859915E-02  mag=     0.8588
       N       E                     dE             d eps       ncg     rms          rms(c)
DAV:   1    -0.452285519892E+02   -0.16315E-02   -0.69400E-02  9216   0.185E+00    0.422E-01
RMM:   2    -0.452270769866E+02    0.14750E-02   -0.58470E-03  6198   0.459E-01    0.192E-01
RMM:   3    -0.452267447282E+02    0.33226E-03   -0.77813E-04  4167   0.310E-01
   7 F= -.45226745E+02 E0= -.45226745E+02  d E =-.883251E-02  mag=     0.8555
       N       E                     dE             d eps       ncg     rms          rms(c)
DAV:   1    -0.452350702658E+02   -0.79933E-02   -0.29326E-01  6800   0.323E+00    0.714E-01
RMM:   2    -0.452313376200E+02    0.37326E-02   -0.17342E-02  6786   0.795E-01    0.265E-01
RMM:   3    -0.452303294082E+02    0.10082E-02   -0.23500E-03  5195   0.540E-01    0.198E-01
RMM:   4    -0.452302489878E+02    0.80420E-04   -0.15750E-03  4916   0.278E-01
   8 F= -.45230249E+02 E0= -.45230249E+02  d E =-.350426E-02  mag=     0.8479
       N       E                     dE             d eps       ncg     rms          rms(c)
DAV:   1    -0.452304570283E+02   -0.12762E-03   -0.27397E-03 10768   0.386E-01    0.168E-01
RMM:   2    -0.452304887274E+02   -0.31699E-04   -0.90365E-05  2929   0.586E-02
   9 F= -.45230489E+02 E0= -.45230489E+02  d E =-.374400E-02  mag=     0.8490
