  23  23   0   0
  0.7754100E+01  0.5712833E-09  0.5694772E-09  0.6493068E-09  0.5000000E-15
  1.000000000000000E-004
  CAR 
 unknown system                          
      9.50382008    -36.76177913  301     -0.48267929      1.00000000
    -36.762  0.0000E+00  0.0000E+00
    -36.608  0.0000E+00  0.0000E+00
    -36.453  0.0000E+00  0.0000E+00
    -36.299  0.0000E+00  0.0000E+00
    -36.145  0.0000E+00  0.0000E+00
    -35.991  0.0000E+00  0.0000E+00
    -35.836  0.0000E+00  0.0000E+00
    -35.682  0.0000E+00  0.0000E+00
    -35.528  0.2864E-31  0.4417E-32
    -35.374  0.6382E-21  0.9841E-22
    -35.220  0.1037E-12  0.1599E-13
    -35.065  0.1068E-06  0.1648E-07
    -34.911  0.4153E-03  0.6406E-04
    -34.757 -0.1153E-01 -0.1714E-02
    -34.603  0.2207E+00  0.3232E-01
    -34.448  0.5570E-02  0.3317E-01
    -34.294  0.1027E-02  0.3333E-01
    -34.140  0.1888E-05  0.3333E-01
    -33.986  0.7750E-11  0.3333E-01
    -33.832  0.0000E+00  0.3333E-01
    -33.677  0.0000E+00  0.3333E-01
    -33.523  0.0000E+00  0.3333E-01
    -33.369  0.0000E+00  0.3333E-01
    -33.215  0.0000E+00  0.3333E-01
    -33.061  0.0000E+00  0.3333E-01
    -32.906  0.0000E+00  0.3333E-01
    -32.752  0.0000E+00  0.3333E-01
    -32.598  0.0000E+00  0.3333E-01
    -32.444  0.0000E+00  0.3333E-01
    -32.289  0.0000E+00  0.3333E-01
    -32.135  0.0000E+00  0.3333E-01
    -31.981  0.0000E+00  0.3333E-01
    -31.827  0.0000E+00  0.3333E-01
    -31.673  0.0000E+00  0.3333E-01
    -31.518  0.5348E-33  0.3333E-01
    -31.364  0.1746E-22  0.3333E-01
    -31.210  0.4321E-14  0.3333E-01
    -31.056  0.7396E-08  0.3333E-01
    -30.901  0.6229E-04  0.3334E-01
    -30.747 -0.2313E-02  0.3299E-01
    -30.593  0.6645E-01  0.4323E-01
    -30.439  0.9460E-01  0.5782E-01
    -30.285  0.6205E-01  0.6739E-01
    -30.130  0.1077E+00  0.8401E-01
    -29.976  0.4554E+00  0.1542E+00
    -29.822  0.3994E+00  0.2158E+00
    -29.668  0.1152E+00  0.2336E+00
    -29.514 -0.1758E-02  0.2333E+00
    -29.359  0.5194E-04  0.2333E+00
    -29.205  0.1738E-08  0.2333E+00
    -29.051  0.2912E-15  0.2333E+00
    -28.897  0.0000E+00  0.2333E+00
    -28.742  0.0000E+00  0.2333E+00
    -28.588  0.0000E+00  0.2333E+00
    -28.434  0.0000E+00  0.2333E+00
    -28.280  0.0000E+00  0.2333E+00
    -28.126  0.0000E+00  0.2333E+00
    -27.971  0.0000E+00  0.2333E+00
    -27.817  0.0000E+00  0.2333E+00
    -27.663  0.0000E+00  0.2333E+00
    -27.509  0.0000E+00  0.2333E+00
    -27.354  0.0000E+00  0.2333E+00
    -27.200  0.0000E+00  0.2333E+00
    -27.046  0.0000E+00  0.2333E+00
    -26.892  0.0000E+00  0.2333E+00
    -26.738  0.0000E+00  0.2333E+00
    -26.583  0.0000E+00  0.2333E+00
    -26.429  0.0000E+00  0.2333E+00
    -26.275  0.0000E+00  0.2333E+00
    -26.121  0.0000E+00  0.2333E+00
    -25.966  0.0000E+00  0.2333E+00
    -25.812  0.0000E+00  0.2333E+00
    -25.658  0.0000E+00  0.2333E+00
    -25.504  0.0000E+00  0.2333E+00
    -25.350  0.0000E+00  0.2333E+00
    -25.195  0.0000E+00  0.2333E+00
    -25.041  0.0000E+00  0.2333E+00
    -24.887  0.0000E+00  0.2333E+00
    -24.733  0.0000E+00  0.2333E+00
    -24.579  0.0000E+00  0.2333E+00
    -24.424  0.0000E+00  0.2333E+00
    -24.270  0.0000E+00  0.2333E+00
    -24.116  0.0000E+00  0.2333E+00
    -23.962  0.0000E+00  0.2333E+00
    -23.807  0.0000E+00  0.2333E+00
    -23.653  0.0000E+00  0.2333E+00
    -23.499  0.0000E+00  0.2333E+00
    -23.345  0.0000E+00  0.2333E+00
    -23.191  0.0000E+00  0.2333E+00
    -23.036  0.0000E+00  0.2333E+00
    -22.882  0.0000E+00  0.2333E+00
    -22.728  0.0000E+00  0.2333E+00
    -22.574  0.0000E+00  0.2333E+00
    -22.419  0.0000E+00  0.2333E+00
    -22.265  0.0000E+00  0.2333E+00
    -22.111  0.0000E+00  0.2333E+00
    -21.957  0.0000E+00  0.2333E+00
    -21.803  0.0000E+00  0.2333E+00
    -21.648  0.0000E+00  0.2333E+00
    -21.494  0.0000E+00  0.2333E+00
    -21.340  0.0000E+00  0.2333E+00
    -21.186  0.0000E+00  0.2333E+00
    -21.031  0.0000E+00  0.2333E+00
    -20.877  0.0000E+00  0.2333E+00
    -20.723  0.0000E+00  0.2333E+00
    -20.569  0.0000E+00  0.2333E+00
    -20.415  0.0000E+00  0.2333E+00
    -20.260  0.0000E+00  0.2333E+00
    -20.106  0.0000E+00  0.2333E+00
    -19.952  0.0000E+00  0.2333E+00
    -19.798  0.0000E+00  0.2333E+00
    -19.644  0.0000E+00  0.2333E+00
    -19.489  0.0000E+00  0.2333E+00
    -19.335  0.0000E+00  0.2333E+00
    -19.181  0.0000E+00  0.2333E+00
    -19.027  0.0000E+00  0.2333E+00
    -18.872  0.0000E+00  0.2333E+00
    -18.718  0.0000E+00  0.2333E+00
    -18.564  0.0000E+00  0.2333E+00
    -18.410  0.0000E+00  0.2333E+00
    -18.256  0.0000E+00  0.2333E+00
    -18.101  0.0000E+00  0.2333E+00
    -17.947  0.0000E+00  0.2333E+00
    -17.793  0.0000E+00  0.2333E+00
    -17.639  0.4490E-30  0.2333E+00
    -17.484  0.5820E-20  0.2333E+00
    -17.330  0.5509E-12  0.2333E+00
    -17.176  0.3264E-06  0.2333E+00
    -17.022  0.6541E-03  0.2334E+00
    -16.868 -0.8717E-02  0.2321E+00
    -16.713  0.2850E+00  0.2760E+00
    -16.559  0.3878E+00  0.3359E+00
    -16.405 -0.1700E-01  0.3332E+00
    -16.251  0.6304E-03  0.3333E+00
    -16.096  0.1761E-06  0.3333E+00
    -15.942  0.2029E-12  0.3333E+00
    -15.788  0.0000E+00  0.3333E+00
    -15.634  0.0000E+00  0.3333E+00
    -15.480  0.0000E+00  0.3333E+00
    -15.325  0.0000E+00  0.3333E+00
    -15.171  0.0000E+00  0.3333E+00
    -15.017  0.0000E+00  0.3333E+00
    -14.863  0.0000E+00  0.3333E+00
    -14.709  0.0000E+00  0.3333E+00
    -14.554  0.0000E+00  0.3333E+00
    -14.400  0.0000E+00  0.3333E+00
    -14.246  0.0000E+00  0.3333E+00
    -14.092  0.0000E+00  0.3333E+00
    -13.937  0.0000E+00  0.3333E+00
    -13.783  0.0000E+00  0.3333E+00
    -13.629  0.0000E+00  0.3333E+00
    -13.475  0.0000E+00  0.3333E+00
    -13.321  0.0000E+00  0.3333E+00
    -13.166  0.0000E+00  0.3333E+00
    -13.012  0.0000E+00  0.3333E+00
    -12.858  0.0000E+00  0.3333E+00
    -12.704  0.0000E+00  0.3333E+00
    -12.549  0.0000E+00  0.3333E+00
    -12.395  0.0000E+00  0.3333E+00
    -12.241  0.0000E+00  0.3333E+00
    -12.087  0.0000E+00  0.3333E+00
    -11.933  0.0000E+00  0.3333E+00
    -11.778  0.0000E+00  0.3333E+00
    -11.624  0.0000E+00  0.3333E+00
    -11.470  0.0000E+00  0.3333E+00
    -11.316  0.0000E+00  0.3333E+00
    -11.161  0.0000E+00  0.3333E+00
    -11.007  0.0000E+00  0.3333E+00
    -10.853  0.0000E+00  0.3333E+00
    -10.699  0.0000E+00  0.3333E+00
    -10.545  0.0000E+00  0.3333E+00
    -10.390  0.0000E+00  0.3333E+00
    -10.236  0.0000E+00  0.3333E+00
    -10.082  0.0000E+00  0.3333E+00
     -9.928  0.0000E+00  0.3333E+00
     -9.774  0.0000E+00  0.3333E+00
     -9.619  0.0000E+00  0.3333E+00
     -9.465  0.6568E-39  0.3333E+00
     -9.311  0.1139E-27  0.3333E+00
     -9.157  0.1483E-18  0.3333E+00
     -9.002  0.1327E-11  0.3333E+00
     -8.848  0.6516E-07  0.3333E+00
     -8.694  0.9860E-05  0.3333E+00
     -8.540 -0.7050E-04  0.3333E+00
     -8.386  0.6452E-02  0.3343E+00
     -8.231  0.1270E-01  0.3363E+00
     -8.077  0.1687E-01  0.3389E+00
     -7.923  0.2570E-01  0.3428E+00
     -7.769  0.3167E-01  0.3477E+00
     -7.614  0.5812E-01  0.3567E+00
     -7.460  0.5257E-01  0.3648E+00
     -7.306  0.1224E-01  0.3667E+00
     -7.152  0.4548E-02  0.3674E+00
     -6.998  0.1876E-01  0.3703E+00
     -6.843  0.3653E-01  0.3759E+00
     -6.689  0.5878E-01  0.3850E+00
     -6.535  0.6458E-01  0.3949E+00
     -6.381  0.4665E-01  0.4021E+00
     -6.226  0.7622E-01  0.4139E+00
     -6.072  0.7768E-01  0.4259E+00
     -5.918  0.5946E-01  0.4350E+00
     -5.764  0.8630E-01  0.4483E+00
     -5.610  0.1125E+00  0.4657E+00
     -5.455  0.1991E-01  0.4688E+00
     -5.301  0.4556E-01  0.4758E+00
     -5.147  0.5090E-01  0.4836E+00
     -4.993  0.7510E-01  0.4952E+00
     -4.839  0.3754E-01  0.5010E+00
     -4.684  0.1225E-01  0.5029E+00
     -4.530  0.2198E-01  0.5063E+00
     -4.376  0.2499E-01  0.5101E+00
     -4.222  0.2777E-01  0.5144E+00
     -4.067  0.3235E-01  0.5194E+00
     -3.913  0.6983E-01  0.5302E+00
     -3.759  0.1846E+00  0.5587E+00
     -3.605  0.1021E+00  0.5744E+00
     -3.451  0.1527E+00  0.5980E+00
     -3.296  0.6580E-01  0.6081E+00
     -3.142  0.9015E-01  0.6220E+00
     -2.988  0.1229E+00  0.6410E+00
     -2.834  0.1379E+00  0.6622E+00
     -2.679  0.9570E-01  0.6770E+00
     -2.525  0.1097E+00  0.6939E+00
     -2.371  0.1072E+00  0.7105E+00
     -2.217  0.1413E+00  0.7323E+00
     -2.063  0.3962E-01  0.7384E+00
     -1.908  0.1058E+00  0.7547E+00
     -1.754  0.1000E+00  0.7701E+00
     -1.600  0.7144E-01  0.7811E+00
     -1.446  0.1098E+00  0.7981E+00
     -1.291  0.1233E+00  0.8171E+00
     -1.137  0.8982E-01  0.8309E+00
     -0.983  0.2043E-01  0.8341E+00
     -0.829  0.5895E-01  0.8432E+00
     -0.675  0.1018E+00  0.8589E+00
     -0.520  0.4733E-01  0.8662E+00
     -0.366  0.3210E-02  0.8667E+00
     -0.212  0.5850E-04  0.8667E+00
     -0.058  0.1527E-05  0.8667E+00
      0.096  0.5066E-10  0.8667E+00
      0.251  0.1039E-16  0.8667E+00
      0.405  0.0000E+00  0.8667E+00
      0.559  0.0000E+00  0.8667E+00
      0.713  0.0000E+00  0.8667E+00
      0.868  0.0000E+00  0.8667E+00
      1.022  0.0000E+00  0.8667E+00
      1.176  0.4541E-33  0.8667E+00
      1.330  0.1161E-22  0.8667E+00
      1.484  0.2420E-14  0.8667E+00
      1.639  0.3857E-08  0.8667E+00
      1.793  0.3601E-04  0.8667E+00
      1.947 -0.1130E-02  0.8665E+00
      2.101  0.4683E-01  0.8737E+00
      2.256  0.1347E+00  0.8945E+00
      2.410  0.4090E-01  0.9008E+00
      2.564  0.1360E+00  0.9218E+00
      2.718  0.9119E-01  0.9358E+00
      2.872  0.1177E+00  0.9540E+00
      3.027  0.8642E-01  0.9673E+00
      3.181  0.1024E+00  0.9831E+00
      3.335  0.3998E-01  0.9893E+00
      3.489  0.4808E-01  0.9967E+00
      3.644  0.1967E-01  0.9997E+00
      3.798  0.2808E-02  0.1000E+01
      3.952  0.2357E-01  0.1004E+01
      4.106  0.9618E-01  0.1019E+01
      4.260  0.7953E-01  0.1031E+01
      4.415  0.3573E-01  0.1036E+01
      4.569  0.1135E+00  0.1054E+01
      4.723  0.9498E-01  0.1069E+01
      4.877  0.7475E-01  0.1080E+01
      5.031  0.1257E+00  0.1099E+01
      5.186  0.8877E-01  0.1113E+01
      5.340  0.8951E-01  0.1127E+01
      5.494  0.1099E+00  0.1144E+01
      5.648  0.1152E+00  0.1162E+01
      5.803  0.1023E+00  0.1177E+01
      5.957  0.1020E+00  0.1193E+01
      6.111  0.1050E+00  0.1209E+01
      6.265  0.1064E+00  0.1226E+01
      6.419  0.9223E-01  0.1240E+01
      6.574  0.1056E+00  0.1256E+01
      6.728  0.1050E+00  0.1273E+01
      6.882  0.1175E+00  0.1291E+01
      7.036  0.1247E+00  0.1310E+01
      7.191  0.1075E+00  0.1326E+01
      7.345  0.4160E-01  0.1333E+01
      7.499  0.3241E-02  0.1333E+01
      7.653 -0.4260E-04  0.1333E+01
      7.807  0.3243E-05  0.1333E+01
      7.962  0.5309E-09  0.1333E+01
      8.116  0.4793E-15  0.1333E+01
      8.270  0.0000E+00  0.1333E+01
      8.424  0.0000E+00  0.1333E+01
      8.579  0.0000E+00  0.1333E+01
      8.733  0.0000E+00  0.1333E+01
      8.887  0.0000E+00  0.1333E+01
      9.041  0.0000E+00  0.1333E+01
      9.195  0.0000E+00  0.1333E+01
      9.350  0.0000E+00  0.1333E+01
      9.504  0.0000E+00  0.1333E+01
