unknown system                          
           1
     4.991372   -0.016687    0.035139
    -0.080062    5.739926    0.002321
     0.015207   -0.084375    6.316951
   Sr   Nb   H 
   1   5  15
Direct configuration=     1
   0.54808400  0.80657100  0.85598200
   0.58364300  0.05137700  0.35794000
   0.08203100  0.29009900  0.62895100
   0.07885500  0.28513000  0.11116800
   0.59085800  0.53425200  0.36576200
   0.09320200  0.78896400  0.39233100
   0.60240000  0.78516800  0.18751800
   0.90860500  0.58315000  0.18038800
   0.29887900  0.57519100  0.15933700
   0.74738000  0.82948900  0.52617600
   0.89219000  0.56911800  0.58166800
   0.98103800  0.47737100  0.87674100
   0.31066500  0.29069200  0.37055800
   0.70046500  0.26664200  0.58542700
   0.94799000  0.10373700  0.86766600
   0.32990000  0.26448200  0.86941800
   0.30885500  0.57452600  0.58898200
   0.90361600  0.99157100  0.18458000
   0.67997400  0.29121000  0.14269700
   0.28381400  0.99380400  0.15825300
   0.28946800  0.00033400  0.58576500
unknown system                          
           1
     5.041022   -0.017162    0.035653
    -0.081226    5.791636    0.001533
     0.015609   -0.086023    6.374089
   Sr   Nb   H 
   1   5  15
Direct configuration=     2
   0.54806643  0.80673348  0.85598588
   0.58428014  0.05060285  0.35769451
   0.08192639  0.29042963  0.62944167
   0.07850759  0.28521569  0.11038807
   0.59103867  0.53534831  0.36532698
   0.09234450  0.78933856  0.39251109
   0.60243090  0.78501712  0.18766736
   0.90868445  0.58307032  0.18060694
   0.29869125  0.57516263  0.15946858
   0.74743537  0.82952847  0.52604357
   0.89237820  0.56875853  0.58175607
   0.98097597  0.47708457  0.87689066
   0.31059252  0.29071046  0.37059584
   0.70065655  0.26646261  0.58532537
   0.94811198  0.10379163  0.86771785
   0.32977418  0.26467854  0.86935703
   0.30876880  0.57424545  0.58901648
   0.90381414  0.99149407  0.18465697
   0.68010460  0.29122588  0.14283016
   0.28392258  0.99382695  0.15834996
   0.28940679  0.00015225  0.58567697
unknown system                          
           1
     5.038201   -0.017135    0.035624
    -0.081160    5.788698    0.001578
     0.015586   -0.085929    6.370842
   Sr   Nb   H 
   1   5  15
Direct configuration=     3
   0.54806742  0.80672433  0.85598566
   0.58424430  0.05064644  0.35770834
   0.08193227  0.29041101  0.62941404
   0.07852713  0.28521087  0.11043198
   0.59102850  0.53528657  0.36535147
   0.09239274  0.78931747  0.39250095
   0.60242916  0.78502562  0.18765895
   0.90867998  0.58307481  0.18059461
   0.29870181  0.57516423  0.15946117
   0.74743225  0.82952625  0.52605103
   0.89236761  0.56877877  0.58175111
   0.98097946  0.47710070  0.87688224
   0.31059660  0.29070942  0.37059371
   0.70064577  0.26647271  0.58533109
   0.94810512  0.10378855  0.86771493
   0.32978126  0.26466747  0.86936046
   0.30877365  0.57426125  0.58901454
   0.90380300  0.99149840  0.18465264
   0.68009725  0.29122498  0.14282266
   0.28391648  0.99382566  0.15834450
   0.28941023  0.00016249  0.58568193
