   23   23   60    1
  0.7317702E+01  0.3368733E-09  0.6366615E-09  0.8124466E-09  0.5000000E-15
  1.000000000000000E-004
  CAR 
 unknown system                          
     62    182     44
 
  0.3742002E-15  0.3742002E-15  0.3742002E-15  0.2777778E-02
    1      -33.040829   1.000000
    2      -29.596144   1.000000
    3      -29.340270   1.000000
    4      -29.232506   1.000000
    5      -29.218121   1.000000
    6      -29.115882   1.000000
    7      -29.090314   1.000000
    8      -28.713190   1.000000
    9      -28.668545   1.000000
   10      -28.524792   1.000000
   11      -15.181695   1.000000
   12      -15.140839   1.000000
   13      -14.752270   1.000000
   14       -7.714954   1.000000
   15       -5.686731   1.000000
   16       -5.091639   1.000000
   17       -5.050487   1.000000
   18       -4.810000   1.000000
   19       -3.788705   1.000000
   20       -3.336050   1.000000
   21       -3.075858   1.000000
   22       -2.279061   1.000000
   23       -1.866295   1.000000
   24       -1.565582   1.000000
   25       -1.264322   1.000000
   26       -0.922819   1.000000
   27       -0.487228   1.000000
   28        0.453393   1.000000
   29        0.506519   1.000000
   30        1.628175   1.000000
   31        2.509422   0.000001
   32        2.966205   0.000000
   33        3.269139   0.000000
   34        3.533823   0.000000
   35        3.748965   0.000000
   36        3.825160   0.000000
   37        4.413195   0.000000
   38        5.287585   0.000000
   39        5.569966   0.000000
   40        5.633210   0.000000
   41        6.287922   0.000000
   42        7.022328   0.000000
   43        7.642790   0.000000
   44        7.860277   0.000000
 
  0.8333333E-01  0.3747003E-15  0.3816392E-15  0.5555556E-02
    1      -33.034617   1.000000
    2      -29.594187   1.000000
    3      -29.337739   1.000000
    4      -29.236497   1.000000
    5      -29.229445   1.000000
    6      -29.133302   1.000000
    7      -29.089592   1.000000
    8      -28.712734   1.000000
    9      -28.684167   1.000000
   10      -28.523719   1.000000
   11      -15.171455   1.000000
   12      -15.129046   1.000000
   13      -14.824547   1.000000
   14       -7.609865   1.000000
   15       -5.652448   1.000000
   16       -5.006639   1.000000
   17       -4.970507   1.000000
   18       -4.688204   1.000000
   19       -3.772814   1.000000
   20       -3.310611   1.000000
   21       -3.050796   1.000000
   22       -2.308629   1.000000
   23       -1.881692   1.000000
   24       -1.626772   1.000000
   25       -1.265497   1.000000
   26       -0.941073   1.000000
   27       -0.547854   1.000000
   28        0.304446   1.000000
   29        0.420466   1.000000
   30        1.194560   1.000000
   31        2.328696   0.003831
   32        3.091565   0.000000
   33        3.325100   0.000000
   34        3.724840   0.000000
   35        3.834924   0.000000
   36        4.192780   0.000000
   37        4.341285   0.000000
   38        5.267722   0.000000
   39        5.671615   0.000000
   40        5.695333   0.000000
   41        6.239650   0.000000
   42        7.122654   0.000000
   43        7.507023   0.000000
   44        7.721541   0.000000
 
  0.1666667E+00  0.3747003E-15  0.3885781E-15  0.5555556E-02
    1      -33.017579   1.000000
    2      -29.588810   1.000000
    3      -29.331068   1.000000
    4      -29.285224   1.000000
    5      -29.222101   1.000000
    6      -29.180888   1.000000
    7      -29.086598   1.000000
    8      -28.737288   1.000000
    9      -28.700865   1.000000
   10      -28.520836   1.000000
   11      -15.143744   1.000000
   12      -15.097030   1.000000
   13      -15.015242   1.000000
   14       -7.307567   1.000000
   15       -5.556504   1.000000
   16       -4.829873   1.000000
   17       -4.692525   1.000000
   18       -4.344604   1.000000
   19       -3.755202   1.000000
   20       -3.251842   1.000000
   21       -2.964208   1.000000
   22       -2.406990   1.000000
   23       -1.949242   1.000000
   24       -1.785041   1.000000
   25       -1.279384   1.000000
   26       -1.028198   1.000000
   27       -0.665030   1.000000
   28       -0.075790   1.000000
   29        0.250143   1.000000
   30        0.564421   1.000000
   31        2.019627   1.045581
   32        3.217678   0.000000
   33        3.456183   0.000000
   34        3.534988   0.000000
   35        4.191321   0.000000
   36        4.399738   0.000000
   37        4.865122   0.000000
   38        5.239023   0.000000
   39        5.746846   0.000000
   40        5.900862   0.000000
   41        6.284875   0.000000
   42        7.149865   0.000000
   43        7.466021   0.000000
   44        7.622525   0.000000
 
  0.2500000E+00  0.3755676E-15  0.3469447E-15  0.5555556E-02
    1      -32.994140   1.000000
    2      -29.581618   1.000000
    3      -29.351675   1.000000
    4      -29.321474   1.000000
    5      -29.246310   1.000000
    6      -29.210768   1.000000
    7      -29.082072   1.000000
    8      -28.796876   1.000000
    9      -28.696631   1.000000
   10      -28.517190   1.000000
   11      -15.266090   1.000000
   12      -15.103071   1.000000
   13      -15.051969   1.000000
   14       -6.848034   1.000000
   15       -5.419753   1.000000
   16       -4.584896   1.000000
   17       -4.321472   1.000000
   18       -3.854174   1.000000
   19       -3.771054   1.000000
   20       -3.185626   1.000000
   21       -2.814648   1.000000
   22       -2.574497   1.000000
   23       -2.104789   1.000000
   24       -1.971333   1.000000
   25       -1.361775   1.000000
   26       -1.162719   1.000000
   27       -0.832960   1.000000
   28       -0.428583   1.000000
   29       -0.000237   1.000000
   30        0.263700   1.000000
   31        1.682606   1.000000
   32        3.175810   0.000000
   33        3.295445   0.000000
   34        3.747645   0.000000
   35        4.165183   0.000000
   36        4.695054   0.000000
   37        5.131361   0.000000
   38        5.257868   0.000000
   39        5.681859   0.000000
   40        6.206175   0.000000
   41        6.725779   0.000000
   42        7.055931   0.000000
   43        7.279875   0.000000
   44        7.676205   0.000000
 
  0.3333333E+00  0.3764350E-15  0.4024558E-15  0.5555556E-02
    1      -32.970523   1.000000
    2      -29.574784   1.000000
    3      -29.415889   1.000000
    4      -29.313541   1.000000
    5      -29.308997   1.000000
    6      -29.201076   1.000000
    7      -29.077515   1.000000
    8      -28.855279   1.000000
    9      -28.691559   1.000000
   10      -28.513742   1.000000
   11      -15.501998   1.000000
   12      -15.063679   1.000000
   13      -15.006464   1.000000
   14       -6.293230   1.000000
   15       -5.274630   1.000000
   16       -4.382007   1.000000
   17       -4.021843   1.000000
   18       -3.835680   1.000000
   19       -3.269766   1.000000
   20       -3.108723   1.000000
   21       -2.776424   1.000000
   22       -2.660105   1.000000
   23       -2.268339   1.000000
   24       -2.138601   1.000000
   25       -1.544218   1.000000
   26       -1.287153   1.000000
   27       -1.101170   1.000000
   28       -0.558206   1.000000
   29       -0.112808   1.000000
   30        0.124331   1.000000
   31        1.359293   1.000000
   32        2.947297   0.000000
   33        3.317698   0.000000
   34        3.969504   0.000000
   35        4.253031   0.000000
   36        4.716629   0.000000
   37        4.995095   0.000000
   38        5.447165   0.000000
   39        5.671754   0.000000
   40        6.522274   0.000000
   41        6.719771   0.000000
   42        6.998905   0.000000
   43        7.443582   0.000000
   44        7.636128   0.000000
 
  0.4166667E+00  0.3764350E-15  0.4024558E-15  0.5555556E-02
    1      -32.953116   1.000000
    2      -29.570362   1.000000
    3      -29.462134   1.000000
    4      -29.354635   1.000000
    5      -29.308231   1.000000
    6      -29.194086   1.000000
    7      -29.074323   1.000000
    8      -28.896067   1.000000
    9      -28.688059   1.000000
   10      -28.511451   1.000000
   11      -15.668040   1.000000
   12      -15.034270   1.000000
   13      -14.972573   1.000000
   14       -5.737674   1.000000
   15       -5.165239   1.000000
   16       -4.461403   1.000000
   17       -3.897992   1.000000
   18       -3.670439   1.000000
   19       -3.175997   1.000000
   20       -2.980175   1.000000
   21       -2.780277   1.000000
   22       -2.577400   1.000000
   23       -2.318763   1.000000
   24       -2.119465   1.000000
   25       -1.715957   1.000000
   26       -1.504209   1.000000
   27       -1.239104   1.000000
   28       -0.586402   1.000000
   29       -0.112872   1.000000
   30        0.000656   1.000000
   31        1.120212   1.000000
   32        2.802445   0.000000
   33        3.348829   0.000000
   34        4.050230   0.000000
   35        4.491332   0.000000
   36        4.787357   0.000000
   37        4.911737   0.000000
   38        5.498694   0.000000
   39        5.874132   0.000000
   40        6.224560   0.000000
   41        6.530887   0.000000
   42        7.035008   0.000000
   43        7.302172   0.000000
   44        7.525897   0.000000
 
  0.5000000E+00  0.3755676E-15  0.4163336E-15  0.2777778E-02
    1      -32.946724   1.000000
    2      -29.568967   1.000000
    3      -29.478836   1.000000
    4      -29.371108   1.000000
    5      -29.306651   1.000000
    6      -29.191641   1.000000
    7      -29.073238   1.000000
    8      -28.910458   1.000000
    9      -28.686941   1.000000
   10      -28.510659   1.000000
   11      -15.727516   1.000000
   12      -15.023454   1.000000
   13      -14.960196   1.000000
   14       -5.429351   1.000000
   15       -5.126885   1.000000
   16       -4.630816   1.000000
   17       -3.815436   1.000000
   18       -3.614970   1.000000
   19       -3.129697   1.000000
   20       -3.014502   1.000000
   21       -2.939092   1.000000
   22       -2.429473   1.000000
   23       -2.195478   1.000000
   24       -2.018562   1.000000
   25       -1.873922   1.000000
   26       -1.582680   1.000000
   27       -1.300866   1.000000
   28       -0.602375   1.000000
   29       -0.101760   1.000000
   30       -0.055194   1.000000
   31        1.031288   1.000000
   32        2.755684   0.000000
   33        3.362475   0.000000
   34        4.052478   0.000000
   35        4.682649   0.000000
   36        4.805568   0.000000
   37        4.917332   0.000000
   38        5.510127   0.000000
   39        5.960187   0.000000
   40        6.094647   0.000000
   41        6.452538   0.000000
   42        6.959124   0.000000
   43        7.246392   0.000000
   44        7.420259   0.000000
 
  0.3741582E-15  0.1666667E+00  0.3712308E-15  0.5555556E-02
    1      -33.040830   1.000000
    2      -29.571804   1.000000
    3      -29.337622   1.000000
    4      -29.235364   1.000000
    5      -29.217126   1.000000
    6      -29.123601   1.000000
    7      -29.112039   1.000000
    8      -28.711200   1.000000
    9      -28.668474   1.000000
   10      -28.525509   1.000000
   11      -15.183591   1.000000
   12      -15.140669   1.000000
   13      -14.752291   1.000000
   14       -7.595969   1.000000
   15       -5.705320   1.000000
   16       -5.324960   1.000000
   17       -5.062434   1.000000
   18       -4.750918   1.000000
   19       -3.739421   1.000000
   20       -3.345739   1.000000
   21       -2.969534   1.000000
   22       -2.250800   1.000000
   23       -1.906873   1.000000
   24       -1.535699   1.000000
   25       -1.230773   1.000000
   26       -0.905610   1.000000
   27       -0.546139   1.000000
   28        0.265428   1.000000
   29        0.591768   1.000000
   30        1.614119   1.000000
   31        2.417090   0.000152
   32        2.607136   0.000000
   33        3.348908   0.000000
   34        3.508103   0.000000
   35        3.846546   0.000000
   36        4.233520   0.000000
   37        4.334675   0.000000
   38        5.155523   0.000000
   39        5.403531   0.000000
   40        5.584495   0.000000
   41        6.513140   0.000000
   42        7.087038   0.000000
   43        7.562143   0.000000
   44        7.935863   0.000000
 
  0.8333333E-01  0.1666667E+00  0.3885781E-15  0.5555556E-02
    1      -33.034615   1.000000
    2      -29.569757   1.000000
    3      -29.335056   1.000000
    4      -29.235523   1.000000
    5      -29.232229   1.000000
    6      -29.136211   1.000000
    7      -29.116047   1.000000
    8      -28.711092   1.000000
    9      -28.683842   1.000000
   10      -28.524245   1.000000
   11      -15.173165   1.000000
   12      -15.128945   1.000000
   13      -14.824519   1.000000
   14       -7.482801   1.000000
   15       -5.694262   1.000000
   16       -5.219598   1.000000
   17       -4.991785   1.000000
   18       -4.637855   1.000000
   19       -3.692463   1.000000
   20       -3.344476   1.000000
   21       -2.909784   1.000000
   22       -2.263715   1.000000
   23       -1.950512   1.000000
   24       -1.605023   1.000000
   25       -1.231168   1.000000
   26       -0.940771   1.000000
   27       -0.602730   1.000000
   28        0.220081   1.000000
   29        0.438193   1.000000
   30        1.145892   1.000000
   31        2.198980  -0.051625
   32        2.902019   0.000000
   33        3.315121   0.000000
   34        3.687067   0.000000
   35        3.922347   0.000000
   36        4.222411   0.000000
   37        4.597242   0.000000
   38        5.113807   0.000000
   39        5.519176   0.000000
   40        5.666032   0.000000
   41        6.456853   0.000000
   42        7.227723   0.000000
   43        7.495594   0.000000
   44        7.758870   0.000000
 
  0.1666667E+00  0.1666667E+00  0.3747003E-15  0.5555556E-02
    1      -33.017572   1.000000
    2      -29.564421   1.000000
    3      -29.328315   1.000000
    4      -29.283863   1.000000
    5      -29.225312   1.000000
    6      -29.182731   1.000000
    7      -29.114059   1.000000
    8      -28.736984   1.000000
    9      -28.699292   1.000000
   10      -28.521250   1.000000
   11      -15.145178   1.000000
   12      -15.096936   1.000000
   13      -15.015196   1.000000
   14       -7.175645   1.000000
   15       -5.590652   1.000000
   16       -4.982156   1.000000
   17       -4.772352   1.000000
   18       -4.347430   1.000000
   19       -3.650198   1.000000
   20       -3.261177   1.000000
   21       -2.801681   1.000000
   22       -2.352930   1.000000
   23       -2.029460   1.000000
   24       -1.776547   1.000000
   25       -1.258855   1.000000
   26       -1.025703   1.000000
   27       -0.731806   1.000000
   28       -0.048442   1.000000
   29        0.165859   1.000000
   30        0.523462   1.000000
   31        1.924747   0.997491
   32        2.953635   0.000000
   33        3.345124   0.000000
   34        3.696715   0.000000
   35        4.101642   0.000000
   36        4.591944   0.000000
   37        4.949570   0.000000
   38        5.170255   0.000000
   39        5.674461   0.000000
   40        5.882975   0.000000
   41        6.430525   0.000000
   42        7.207874   0.000000
   43        7.478320   0.000000
   44        7.872624   0.000000
 
  0.2500000E+00  0.1666667E+00  0.3885781E-15  0.5555556E-02
    1      -32.994138   1.000000
    2      -29.557382   1.000000
    3      -29.349944   1.000000
    4      -29.318577   1.000000
    5      -29.248144   1.000000
    6      -29.214223   1.000000
    7      -29.109534   1.000000
    8      -28.796010   1.000000
    9      -28.695508   1.000000
   10      -28.517423   1.000000
   11      -15.265891   1.000000
   12      -15.104231   1.000000
   13      -15.051940   1.000000
   14       -6.713939   1.000000
   15       -5.430598   1.000000
   16       -4.683713   1.000000
   17       -4.427353   1.000000
   18       -3.990383   1.000000
   19       -3.635433   1.000000
   20       -3.115895   1.000000
   21       -2.654786   1.000000
   22       -2.513653   1.000000
   23       -2.180590   1.000000
   24       -1.981575   1.000000
   25       -1.364109   1.000000
   26       -1.167648   1.000000
   27       -0.886348   1.000000
   28       -0.417798   1.000000
   29       -0.067934   1.000000
   30        0.229333   1.000000
   31        1.614471   1.000000
   32        2.767180   0.000000
   33        3.330618   0.000000
   34        3.863252   0.000000
   35        4.205814   0.000000
   36        4.692650   0.000000
   37        5.150516   0.000000
   38        5.430270   0.000000
   39        5.663477   0.000000
   40        6.152112   0.000000
   41        6.696683   0.000000
   42        7.202167   0.000000
   43        7.402166   0.000000
   44        7.754257   0.000000
 
  0.3333333E+00  0.1666667E+00  0.3885781E-15  0.5555556E-02
    1      -32.970520   1.000000
    2      -29.550745   1.000000
    3      -29.413987   1.000000
    4      -29.311533   1.000000
    5      -29.309698   1.000000
    6      -29.204947   1.000000
    7      -29.105254   1.000000
    8      -28.853500   1.000000
    9      -28.690900   1.000000
   10      -28.513902   1.000000
   11      -15.501851   1.000000
   12      -15.064638   1.000000
   13      -15.006412   1.000000
   14       -6.161711   1.000000
   15       -5.254593   1.000000
   16       -4.414837   1.000000
   17       -4.129641   1.000000
   18       -3.826130   1.000000
   19       -3.452997   1.000000
   20       -3.002811   1.000000
   21       -2.729440   1.000000
   22       -2.489411   1.000000
   23       -2.321077   1.000000
   24       -2.112929   1.000000
   25       -1.550054   1.000000
   26       -1.403849   1.000000
   27       -1.042166   1.000000
   28       -0.549086   1.000000
   29       -0.199939   1.000000
   30        0.094017   1.000000
   31        1.319523   1.000000
   32        2.572623   0.000000
   33        3.367175   0.000000
   34        4.063596   0.000000
   35        4.394538   0.000000
   36        4.601628   0.000000
   37        5.097928   0.000000
   38        5.428751   0.000000
   39        5.761414   0.000000
   40        6.443103   0.000000
   41        6.832878   0.000000
   42        7.065926   0.000000
   43        7.532998   0.000000
   44        7.708199   0.000000
 
  0.4166667E+00  0.1666667E+00  0.4163336E-15  0.5555556E-02
    1      -32.953115   1.000000
    2      -29.546615   1.000000
    3      -29.460031   1.000000
    4      -29.356569   1.000000
    5      -29.304839   1.000000
    6      -29.198418   1.000000
    7      -29.102629   1.000000
    8      -28.893304   1.000000
    9      -28.687828   1.000000
   10      -28.511557   1.000000
   11      -15.667997   1.000000
   12      -15.035234   1.000000
   13      -14.972635   1.000000
   14       -5.612327   1.000000
   15       -5.111406   1.000000
   16       -4.426879   1.000000
   17       -3.974150   1.000000
   18       -3.660844   1.000000
   19       -3.323855   1.000000
   20       -3.008511   1.000000
   21       -2.897457   1.000000
   22       -2.512723   1.000000
   23       -2.220682   1.000000
   24       -1.993578   1.000000
   25       -1.815570   1.000000
   26       -1.546030   1.000000
   27       -1.184960   1.000000
   28       -0.590040   1.000000
   29       -0.213072   1.000000
   30       -0.018644   1.000000
   31        1.108022   1.000000
   32        2.484633   0.000003
   33        3.419772   0.000000
   34        4.126604   0.000000
   35        4.642462   0.000000
   36        4.700354   0.000000
   37        4.992856   0.000000
   38        5.464688   0.000000
   39        5.806590   0.000000
   40        6.211808   0.000000
   41        6.764429   0.000000
   42        6.943027   0.000000
   43        7.284316   0.000000
   44        7.507795   0.000000
 
  0.5000000E+00  0.1666667E+00  0.4440892E-15  0.5555556E-02
    1      -32.946718   1.000000
    2      -29.545324   1.000000
    3      -29.476577   1.000000
    4      -29.373027   1.000000
    5      -29.303061   1.000000
    6      -29.196113   1.000000
    7      -29.101725   1.000000
    8      -28.907141   1.000000
    9      -28.686752   1.000000
   10      -28.510707   1.000000
   11      -15.727390   1.000000
   12      -15.024305   1.000000
   13      -14.960171   1.000000
   14       -5.292922   1.000000
   15       -5.080812   1.000000
   16       -4.566468   1.000000
   17       -3.849955   1.000000
   18       -3.564184   1.000000
   19       -3.365595   1.000000
   20       -3.168354   1.000000
   21       -2.783682   1.000000
   22       -2.566434   1.000000
   23       -2.138713   1.000000
   24       -2.076647   1.000000
   25       -1.756749   1.000000
   26       -1.535539   1.000000
   27       -1.269044   1.000000
   28       -0.670509   1.000000
   29       -0.209312   1.000000
   30       -0.025914   1.000000
   31        1.035129   1.000000
   32        2.472331   0.000006
   33        3.433976   0.000000
   34        4.125647   0.000000
   35        4.693866   0.000000
   36        4.839770   0.000000
   37        4.932255   0.000000
   38        5.656256   0.000000
   39        5.722735   0.000000
   40        6.096919   0.000000
   41        6.629346   0.000000
   42        6.812278   0.000000
   43        7.176897   0.000000
   44        7.433501   0.000000
 
 -0.4166667E+00  0.1666667E+00  0.3747003E-15  0.5555556E-02
    1      -32.953112   1.000000
    2      -29.546461   1.000000
    3      -29.460201   1.000000
    4      -29.356394   1.000000
    5      -29.304735   1.000000
    6      -29.198347   1.000000
    7      -29.102529   1.000000
    8      -28.893199   1.000000
    9      -28.687747   1.000000
   10      -28.511508   1.000000
   11      -15.667849   1.000000
   12      -15.035122   1.000000
   13      -14.972579   1.000000
   14       -5.639406   1.000000
   15       -5.088096   1.000000
   16       -4.391324   1.000000
   17       -3.930992   1.000000
   18       -3.673314   1.000000
   19       -3.307595   1.000000
   20       -3.170083   1.000000
   21       -2.781100   1.000000
   22       -2.581495   1.000000
   23       -2.212212   1.000000
   24       -2.091603   1.000000
   25       -1.771960   1.000000
   26       -1.363156   1.000000
   27       -1.232417   1.000000
   28       -0.667061   1.000000
   29       -0.231167   1.000000
   30        0.046711   1.000000
   31        1.132314   1.000000
   32        2.510887   0.000000
   33        3.402911   0.000000
   34        4.094051   0.000000
   35        4.469405   0.000000
   36        4.770091   0.000000
   37        4.997626   0.000000
   38        5.525110   0.000000
   39        5.908500   0.000000
   40        6.177389   0.000000
   41        6.568443   0.000000
   42        6.904368   0.000000
   43        7.254871   0.000000
   44        7.532464   0.000000
 
 -0.3333333E+00  0.1666667E+00  0.3885781E-15  0.5555556E-02
    1      -32.970520   1.000000
    2      -29.550675   1.000000
    3      -29.414344   1.000000
    4      -29.311816   1.000000
    5      -29.309219   1.000000
    6      -29.204887   1.000000
    7      -29.105314   1.000000
    8      -28.853539   1.000000
    9      -28.690929   1.000000
   10      -28.513952   1.000000
   11      -15.501874   1.000000
   12      -15.064670   1.000000
   13      -15.006518   1.000000
   14       -6.206930   1.000000
   15       -5.175564   1.000000
   16       -4.345138   1.000000
   17       -4.119769   1.000000
   18       -3.908973   1.000000
   19       -3.469802   1.000000
   20       -3.031612   1.000000
   21       -2.772479   1.000000
   22       -2.581596   1.000000
   23       -2.237373   1.000000
   24       -2.108930   1.000000
   25       -1.639958   1.000000
   26       -1.216986   1.000000
   27       -1.043104   1.000000
   28       -0.583218   1.000000
   29       -0.256267   1.000000
   30        0.137816   1.000000
   31        1.378825   1.000000
   32        2.626174   0.000000
   33        3.348866   0.000000
   34        4.016342   0.000000
   35        4.161367   0.000000
   36        4.791623   0.000000
   37        5.061491   0.000000
   38        5.448199   0.000000
   39        5.789507   0.000000
   40        6.473657   0.000000
   41        6.779470   0.000000
   42        6.944757   0.000000
   43        7.351862   0.000000
   44        7.514551   0.000000
 
 -0.2500000E+00  0.1666667E+00  0.3955170E-15  0.5555556E-02
    1      -32.994138   1.000000
    2      -29.557304   1.000000
    3      -29.350337   1.000000
    4      -29.318529   1.000000
    5      -29.247756   1.000000
    6      -29.214063   1.000000
    7      -29.109682   1.000000
    8      -28.795985   1.000000
    9      -28.695472   1.000000
   10      -28.517453   1.000000
   11      -15.265966   1.000000
   12      -15.104240   1.000000
   13      -15.051862   1.000000
   14       -6.754929   1.000000
   15       -5.317775   1.000000
   16       -4.599622   1.000000
   17       -4.496895   1.000000
   18       -4.074255   1.000000
   19       -3.651664   1.000000
   20       -3.045806   1.000000
   21       -2.789690   1.000000
   22       -2.599908   1.000000
   23       -2.072583   1.000000
   24       -1.951445   1.000000
   25       -1.402207   1.000000
   26       -1.182131   1.000000
   27       -0.691497   1.000000
   28       -0.504863   1.000000
   29       -0.155672   1.000000
   30        0.263482   1.000000
   31        1.703209   0.999999
   32        2.822897   0.000000
   33        3.303820   0.000000
   34        3.852595   0.000000
   35        4.028654   0.000000
   36        4.859472   0.000000
   37        5.115437   0.000000
   38        5.413042   0.000000
   39        5.663736   0.000000
   40        6.326773   0.000000
   41        6.594095   0.000000
   42        7.038068   0.000000
   43        7.326452   0.000000
   44        7.650693   0.000000
 
 -0.1666667E+00  0.1666667E+00  0.3712308E-15  0.5555556E-02
    1      -33.017574   1.000000
    2      -29.564400   1.000000
    3      -29.328314   1.000000
    4      -29.284095   1.000000
    5      -29.225211   1.000000
    6      -29.182248   1.000000
    7      -29.114206   1.000000
    8      -28.736992   1.000000
    9      -28.699237   1.000000
   10      -28.521213   1.000000
   11      -15.145130   1.000000
   12      -15.096847   1.000000
   13      -15.015168   1.000000
   14       -7.204477   1.000000
   15       -5.470963   1.000000
   16       -4.982270   1.000000
   17       -4.804674   1.000000
   18       -4.382421   1.000000
   19       -3.708180   1.000000
   20       -3.154133   1.000000
   21       -2.938602   1.000000
   22       -2.421180   1.000000
   23       -1.910105   1.000000
   24       -1.767557   1.000000
   25       -1.234757   1.000000
   26       -1.070206   1.000000
   27       -0.651864   1.000000
   28       -0.111469   1.000000
   29        0.092214   1.000000
   30        0.568301   1.000000
   31        2.028535   1.031865
   32        2.986576   0.000000
   33        3.302733   0.000000
   34        3.668506   0.000000
   35        4.079506   0.000000
   36        4.593495   0.000000
   37        5.070023   0.000000
   38        5.174026   0.000000
   39        5.614426   0.000000
   40        5.974367   0.000000
   41        6.308119   0.000000
   42        7.119849   0.000000
   43        7.488600   0.000000
   44        7.642651   0.000000
 
 -0.8333333E-01  0.1666667E+00  0.3755676E-15  0.5555556E-02
    1      -33.034616   1.000000
    2      -29.569706   1.000000
    3      -29.335153   1.000000
    4      -29.235837   1.000000
    5      -29.232104   1.000000
    6      -29.135249   1.000000
    7      -29.116746   1.000000
    8      -28.711222   1.000000
    9      -28.683764   1.000000
   10      -28.524222   1.000000
   11      -15.173134   1.000000
   12      -15.128958   1.000000
   13      -14.824489   1.000000
   14       -7.497857   1.000000
   15       -5.613228   1.000000
   16       -5.253600   1.000000
   17       -4.993266   1.000000
   18       -4.653997   1.000000
   19       -3.740860   1.000000
   20       -3.271262   1.000000
   21       -2.988704   1.000000
   22       -2.300809   1.000000
   23       -1.880882   1.000000
   24       -1.596928   1.000000
   25       -1.227296   1.000000
   26       -0.924871   1.000000
   27       -0.604381   1.000000
   28        0.173230   1.000000
   29        0.411532   1.000000
   30        1.159628   1.000000
   31        2.307073   0.004924
   32        2.875199   0.000000
   33        3.288879   0.000000
   34        3.669869   0.000000
   35        3.937757   0.000000
   36        4.244873   0.000000
   37        4.634631   0.000000
   38        5.144973   0.000000
   39        5.522659   0.000000
   40        5.609629   0.000000
   41        6.436503   0.000000
   42        7.135324   0.000000
   43        7.386664   0.000000
   44        7.812969   0.000000
 
  0.3733992E-15  0.3333333E+00  0.3816392E-15  0.5555556E-02
    1      -33.040814   1.000000
    2      -29.510257   1.000000
    3      -29.332225   1.000000
    4      -29.241792   1.000000
    5      -29.215312   1.000000
    6      -29.187239   1.000000
    7      -29.117584   1.000000
    8      -28.707655   1.000000
    9      -28.668268   1.000000
   10      -28.526182   1.000000
   11      -15.186386   1.000000
   12      -15.140162   1.000000
   13      -14.752228   1.000000
   14       -7.257081   1.000000
   15       -6.059135   1.000000
   16       -5.494059   1.000000
   17       -5.062946   1.000000
   18       -4.643770   1.000000
   19       -3.650914   1.000000
   20       -3.351537   1.000000
   21       -2.895920   1.000000
   22       -2.106821   1.000000
   23       -1.944931   1.000000
   24       -1.466130   1.000000
   25       -1.224988   1.000000
   26       -0.862833   1.000000
   27       -0.605412   1.000000
   28       -0.159535   1.000000
   29        0.781893   1.000000