 running on   32 total cores
 distrk:  each k-point on   32 cores,    1 groups
 distr:  one band on    8 cores,    4 groups
 using from now: INCAR     
 vasp.5.4.4.18Apr17-6-g9f103f2a35 (build Nov 01 2019 12:17:22) complex          
  
 POSCAR found type information on POSCAR  Nb H  Nb H  Nb H  Sr
 POSCAR found :  7 types and      23 ions

 ----------------------------------------------------------------------------- 
|                                                                             |
|  ADVICE TO THIS USER RUNNING 'VASP/VAMP'   (HEAR YOUR MASTER'S VOICE ...):  |
|                                                                             |
|      You have a (more or less) 'large supercell' and for larger cells       |
|      it might be more efficient to use real space projection opertators     |
|      So try LREAL= Auto  in the INCAR   file.                               |
|      Mind:          For very  accurate calculation you might also keep the  |
|      reciprocal projection scheme          (i.e. LREAL=.FALSE.)             |
|                                                                             |
 ----------------------------------------------------------------------------- 

 LDA part: xc-table for Pade appr. of Perdew
 generate k-points for:   12    6    5
 POSCAR, INCAR and KPOINTS ok, starting setup
 FFT: planning ...
 WAVECAR not read
 entering main loop
       N       E                     dE             d eps       ncg     rms          rms(c)
DAV:   1     0.332537239919E+03    0.33254E+03   -0.20396E+04 16984   0.799E+02
DAV:   2    -0.789848154074E+02   -0.41152E+03   -0.39449E+03 19940   0.362E+02
DAV:   3    -0.102979407718E+03   -0.23995E+02   -0.23683E+02 24928   0.806E+01
DAV:   4    -0.103977394798E+03   -0.99799E+00   -0.99454E+00 27840   0.146E+01
DAV:   5    -0.104001348264E+03   -0.23953E-01   -0.23941E-01 26400   0.206E+00    0.548E+01
DAV:   6    -0.976226465208E+02    0.63787E+01   -0.15757E+01 23488   0.251E+01    0.201E+01
DAV:   7    -0.968694541287E+02    0.75319E+00   -0.27039E+00 20376   0.805E+00    0.920E+00
DAV:   8    -0.968016230485E+02    0.67831E-01   -0.55927E-01 24960   0.337E+00    0.259E+00
DAV:   9    -0.968057671832E+02   -0.41441E-02   -0.89359E-02 26104   0.171E+00    0.174E+00
DAV:  10    -0.968030573722E+02    0.27098E-02   -0.16771E-02 23624   0.855E-01    0.871E-01
DAV:  11    -0.968026610100E+02    0.39636E-03   -0.86817E-03 23176   0.566E-01    0.137E-01
DAV:  12    -0.968028610751E+02   -0.20007E-03   -0.19787E-03 23624   0.265E-01    0.122E-01
DAV:  13    -0.968029028463E+02   -0.41771E-04   -0.17085E-04 14064   0.102E-01
   1 F= -.96802903E+02 E0= -.96803731E+02  d E =-.968029E+02
 curvature:   0.00 expect dE= 0.000E+00 dE for cont linesearch  0.000E+00
 trial: gam= 0.00000 g(F)=  0.187E-02 g(S)=  0.118E-03 ort = 0.000E+00 (trialstep = 0.100E+01)
 search vector abs. value=  0.199E-02
 bond charge predicted
       N       E                     dE             d eps       ncg     rms          rms(c)
DAV:   1    -0.968028362846E+02    0.24791E-04   -0.56860E-02 18880   0.147E+00    0.132E-01
DAV:   2    -0.968032716864E+02   -0.43540E-03   -0.62056E-03 18944   0.418E-01    0.756E-02
DAV:   3    -0.968032260666E+02    0.45620E-04   -0.13680E-04 15768   0.864E-02
   2 F= -.96803226E+02 E0= -.96804062E+02  d E =-.323220E-03
 trial-energy change:   -0.000323  1 .order   -0.000343   -0.001992    0.001305
 step:   0.6041(harm=  0.6041)  dis= 0.00297  next Energy=   -96.803504 (dE=-0.602E-03)
 bond charge predicted
       N       E                     dE             d eps       ncg     rms          rms(c)
DAV:   1    -0.968034518966E+02   -0.18021E-03   -0.95749E-03 18664   0.602E-01    0.533E-02
DAV:   2    -0.968035505062E+02   -0.98610E-04   -0.11763E-03 18384   0.181E-01    0.205E-02
DAV:   3    -0.968035482394E+02    0.22669E-05   -0.21127E-05 10192   0.396E-02
   3 F= -.96803548E+02 E0= -.96804380E+02  d E =-.645393E-03
 curvature:  -0.30 expect dE=-0.477E-03 dE for cont linesearch -0.554E-05
 trial: gam= 0.88909 g(F)=  0.150E-02 g(S)=  0.761E-04 ort =-0.191E-03 (trialstep = 0.652E+00)
 search vector abs. value=  0.281E-02
 reached required accuracy - stopping structural energy minimisation
