unknown system                          
           1
     5.752173   -0.016435   -0.161164
     2.698195    6.115352   -0.485353
    -0.091944    0.455003    7.281340
   Sr   H    Sr   Nb   H    Sr   H 
   1   3   1   1   9   3   2
Direct configuration=     1
   0.19736159  0.57362573  0.47366841
   0.11826388  0.89427731  0.29619279
   0.24663388  0.20356554  0.47010837
   0.05336523  0.45793719  0.78237633
   0.12213132  0.73391117  0.98476143
   0.71076221  0.53501327  0.70792036
   0.81599562  0.28156979  0.84899448
   0.43684208  0.49084529  0.78856510
   0.40773927  0.78268087  0.65672970
   0.80342463  0.77951947  0.67584527
   0.74344865  0.57127083  0.46005279
   0.40798275  0.42094080  0.18367112
   0.65211096  0.31702420  0.56028077
   0.63598964  0.68558344  0.93785972
   0.92510057  0.62370936  0.21240840
   0.54134074  0.91871158  0.29137272
   0.44785882  0.12278425  0.79701820
   0.87432814  0.29096133  0.20098899
   0.73438641  0.03004336  0.05655186
   0.24030563  0.04554424  0.03917919
unknown system                          
           1
     5.751803   -0.016826   -0.161090
     2.697556    6.115872   -0.486926
    -0.091945    0.452997    7.279065
   Sr   H    Sr   Nb   H    Sr   H 
   1   3   1   1   9   3   2
Direct configuration=     2
   0.19749720  0.57351684  0.47365816
   0.11813638  0.89424327  0.29635333
   0.24681807  0.20353984  0.47005107
   0.05319931  0.45805390  0.78229002
   0.12220636  0.73392475  0.98469509
   0.71096991  0.53434265  0.70830836
   0.81588017  0.28185645  0.84896021
   0.43675393  0.49098642  0.78848487
   0.40764541  0.78282215  0.65670616
   0.80345405  0.77966154  0.67595862
   0.74348455  0.57129705  0.45989422
   0.40797247  0.42111520  0.18345797
   0.65219965  0.31719730  0.56016850
   0.63585298  0.68573769  0.93782041
   0.92518592  0.62349635  0.21239440
   0.54125469  0.91852385  0.29135762
   0.44783892  0.12281015  0.79700130
   0.87433835  0.29080794  0.20113303
   0.73443035  0.03005534  0.05660277
   0.24025331  0.04553032  0.03924988
unknown system                          
           1
     5.751810   -0.016818   -0.161092
     2.697569    6.115862   -0.486896
    -0.091945    0.453036    7.279109
   Sr   H    Sr   Nb   H    Sr   H 
   1   3   1   1   9   3   2
Direct configuration=     3
   0.19749456  0.57351897  0.47365836
   0.11813887  0.89424394  0.29635020
   0.24681448  0.20354034  0.47005219
   0.05320254  0.45805163  0.78229170
   0.12220490  0.73392448  0.98469638
   0.71096587  0.53435571  0.70830080
   0.81588242  0.28185087  0.84896087
   0.43675565  0.49098367  0.78848643
   0.40764724  0.78281940  0.65670662
   0.80345348  0.77965877  0.67595641
   0.74348385  0.57129654  0.45989731
   0.40797267  0.42111181  0.18346212
   0.65219792  0.31719393  0.56017069
   0.63585564  0.68573469  0.93782118
   0.92518426  0.62350050  0.21239468
   0.54125637  0.91852751  0.29135792
   0.44783931  0.12280964  0.79700163
   0.87433815  0.29081092  0.20113023
   0.73442949  0.03005511  0.05660178
   0.24025433  0.04553059  0.03924850
