  14  14   0   0
  0.1122726E+02  0.5044348E-09  0.5289009E-09  0.6842349E-09  0.5000000E-15
  1.000000000000000E-004
  CAR 
 unknown system                          
      9.87193625    -34.98165888  301      2.62092771      1.00000000
    -34.982  0.0000E+00  0.0000E+00
    -34.832  0.0000E+00  0.0000E+00
    -34.683  0.0000E+00  0.0000E+00
    -34.533  0.0000E+00  0.0000E+00
    -34.384  0.0000E+00  0.0000E+00
    -34.234  0.0000E+00  0.0000E+00
    -34.085  0.0000E+00  0.0000E+00
    -33.935  0.0000E+00  0.0000E+00
    -33.786  0.2772E-30  0.4145E-31
    -33.636  0.1810E-20  0.2706E-21
    -33.487  0.1230E-12  0.1839E-13
    -33.337  0.7974E-07  0.1192E-07
    -33.188  0.3538E-03  0.5291E-04
    -33.038 -0.1171E-01 -0.1698E-02
    -32.888  0.3019E+00  0.4344E-01
    -32.739  0.1575E+00  0.6700E-01
    -32.589 -0.1395E-02  0.6679E-01
    -32.440 -0.6688E-02  0.6579E-01
    -32.290  0.2371E+00  0.1012E+00
    -32.141 -0.9103E-02  0.9988E-01
    -31.991  0.8308E-03  0.1000E+00
    -31.842  0.8985E-06  0.1000E+00
    -31.692  0.3895E-11  0.1000E+00
    -31.543  0.0000E+00  0.1000E+00
    -31.393  0.0000E+00  0.1000E+00
    -31.244  0.0000E+00  0.1000E+00
    -31.094  0.0000E+00  0.1000E+00
    -30.945  0.0000E+00  0.1000E+00
    -30.795  0.0000E+00  0.1000E+00
    -30.646  0.0000E+00  0.1000E+00
    -30.496  0.0000E+00  0.1000E+00
    -30.347  0.0000E+00  0.1000E+00
    -30.197  0.0000E+00  0.1000E+00
    -30.048  0.0000E+00  0.1000E+00
    -29.898  0.0000E+00  0.1000E+00
    -29.749  0.0000E+00  0.1000E+00
    -29.599  0.0000E+00  0.1000E+00
    -29.450  0.1723E-34  0.1000E+00
    -29.300  0.7441E-24  0.1000E+00
    -29.151  0.3251E-15  0.1000E+00
    -29.001  0.1337E-08  0.1000E+00
    -28.852  0.4166E-04  0.1000E+00
    -28.702  0.1034E-02  0.1002E+00
    -28.553  0.8778E-01  0.1133E+00
    -28.403  0.5893E+00  0.2014E+00
    -28.254 -0.1092E-01  0.1998E+00
    -28.104  0.1604E-02  0.2000E+00
    -27.955  0.3607E-05  0.2000E+00
    -27.805  0.3104E-10  0.2000E+00
    -27.656  0.0000E+00  0.2000E+00
    -27.506  0.0000E+00  0.2000E+00
    -27.357  0.0000E+00  0.2000E+00
    -27.207  0.0000E+00  0.2000E+00
    -27.058  0.0000E+00  0.2000E+00
    -26.908  0.0000E+00  0.2000E+00
    -26.758  0.0000E+00  0.2000E+00
    -26.609  0.0000E+00  0.2000E+00
    -26.459  0.0000E+00  0.2000E+00
    -26.310  0.0000E+00  0.2000E+00
    -26.160  0.0000E+00  0.2000E+00
    -26.011  0.0000E+00  0.2000E+00
    -25.861  0.0000E+00  0.2000E+00
    -25.712  0.0000E+00  0.2000E+00
    -25.562  0.0000E+00  0.2000E+00
    -25.413  0.0000E+00  0.2000E+00
    -25.263  0.0000E+00  0.2000E+00
    -25.114  0.0000E+00  0.2000E+00
    -24.964  0.0000E+00  0.2000E+00
    -24.815  0.0000E+00  0.2000E+00
    -24.665  0.0000E+00  0.2000E+00
    -24.516  0.0000E+00  0.2000E+00
    -24.366  0.0000E+00  0.2000E+00
    -24.217  0.0000E+00  0.2000E+00
    -24.067  0.0000E+00  0.2000E+00
    -23.918  0.0000E+00  0.2000E+00
    -23.768  0.0000E+00  0.2000E+00
    -23.619  0.0000E+00  0.2000E+00
    -23.469  0.0000E+00  0.2000E+00
    -23.320  0.0000E+00  0.2000E+00
    -23.170  0.0000E+00  0.2000E+00
    -23.021  0.0000E+00  0.2000E+00
    -22.871  0.0000E+00  0.2000E+00
    -22.722  0.0000E+00  0.2000E+00
    -22.572  0.0000E+00  0.2000E+00
    -22.423  0.0000E+00  0.2000E+00
    -22.273  0.0000E+00  0.2000E+00
    -22.124  0.0000E+00  0.2000E+00
    -21.974  0.0000E+00  0.2000E+00
    -21.825  0.0000E+00  0.2000E+00
    -21.675  0.0000E+00  0.2000E+00
    -21.526  0.0000E+00  0.2000E+00
    -21.376  0.0000E+00  0.2000E+00
    -21.227  0.0000E+00  0.2000E+00
    -21.077  0.0000E+00  0.2000E+00
    -20.928  0.0000E+00  0.2000E+00
    -20.778  0.0000E+00  0.2000E+00
    -20.629  0.0000E+00  0.2000E+00
    -20.479  0.0000E+00  0.2000E+00
    -20.329  0.0000E+00  0.2000E+00
    -20.180  0.0000E+00  0.2000E+00
    -20.030  0.0000E+00  0.2000E+00
    -19.881  0.0000E+00  0.2000E+00
    -19.731  0.0000E+00  0.2000E+00
    -19.582  0.0000E+00  0.2000E+00
    -19.432  0.0000E+00  0.2000E+00
    -19.283  0.0000E+00  0.2000E+00
    -19.133  0.0000E+00  0.2000E+00
    -18.984  0.0000E+00  0.2000E+00
    -18.834  0.0000E+00  0.2000E+00
    -18.685  0.0000E+00  0.2000E+00
    -18.535  0.0000E+00  0.2000E+00
    -18.386  0.0000E+00  0.2000E+00
    -18.236  0.0000E+00  0.2000E+00
    -18.087  0.0000E+00  0.2000E+00
    -17.937  0.0000E+00  0.2000E+00
    -17.788  0.0000E+00  0.2000E+00
    -17.638  0.0000E+00  0.2000E+00
    -17.489  0.0000E+00  0.2000E+00
    -17.339  0.0000E+00  0.2000E+00
    -17.190  0.0000E+00  0.2000E+00
    -17.040  0.0000E+00  0.2000E+00
    -16.891  0.0000E+00  0.2000E+00
    -16.741  0.0000E+00  0.2000E+00
    -16.592  0.0000E+00  0.2000E+00
    -16.442  0.0000E+00  0.2000E+00
    -16.293  0.3365E-39  0.2000E+00
    -16.143  0.6978E-28  0.2000E+00
    -15.994  0.1031E-18  0.2000E+00
    -15.844  0.1572E-11  0.2000E+00
    -15.695  0.2263E-06  0.2000E+00
    -15.545  0.2138E-03  0.2000E+00
    -15.396 -0.3243E-02  0.1995E+00
    -15.246  0.1214E+00  0.2177E+00
    -15.097  0.2635E+00  0.2571E+00
    -14.947  0.4205E+00  0.3200E+00
    -14.798  0.4015E+00  0.3800E+00
    -14.648  0.1387E+00  0.4007E+00
    -14.499  0.1140E+00  0.4178E+00
    -14.349  0.5696E+00  0.5029E+00
    -14.199 -0.2101E-01  0.4998E+00
    -14.050  0.1309E-02  0.5000E+00
    -13.900  0.1398E-05  0.5000E+00
    -13.751  0.7823E-11  0.5000E+00
    -13.601  0.0000E+00  0.5000E+00
    -13.452  0.0000E+00  0.5000E+00
    -13.302  0.0000E+00  0.5000E+00
    -13.153  0.0000E+00  0.5000E+00
    -13.003  0.0000E+00  0.5000E+00
    -12.854  0.0000E+00  0.5000E+00
    -12.704  0.0000E+00  0.5000E+00
    -12.555  0.0000E+00  0.5000E+00
    -12.405  0.0000E+00  0.5000E+00
    -12.256  0.0000E+00  0.5000E+00
    -12.106  0.0000E+00  0.5000E+00
    -11.957  0.0000E+00  0.5000E+00
    -11.807  0.0000E+00  0.5000E+00
    -11.658  0.0000E+00  0.5000E+00
    -11.508  0.0000E+00  0.5000E+00
    -11.359  0.0000E+00  0.5000E+00
    -11.209  0.0000E+00  0.5000E+00
    -11.060  0.0000E+00  0.5000E+00
    -10.910  0.0000E+00  0.5000E+00
    -10.761  0.0000E+00  0.5000E+00
    -10.611  0.0000E+00  0.5000E+00
    -10.462  0.0000E+00  0.5000E+00
    -10.312  0.0000E+00  0.5000E+00
    -10.163  0.0000E+00  0.5000E+00
    -10.013  0.0000E+00  0.5000E+00
     -9.864  0.0000E+00  0.5000E+00
     -9.714  0.0000E+00  0.5000E+00
     -9.565  0.0000E+00  0.5000E+00
     -9.415  0.0000E+00  0.5000E+00
     -9.266  0.0000E+00  0.5000E+00
     -9.116  0.0000E+00  0.5000E+00
     -8.967  0.0000E+00  0.5000E+00
     -8.817  0.0000E+00  0.5000E+00
     -8.668  0.0000E+00  0.5000E+00
     -8.518  0.0000E+00  0.5000E+00
     -8.369  0.0000E+00  0.5000E+00
     -8.219  0.0000E+00  0.5000E+00
     -8.070  0.0000E+00  0.5000E+00
     -7.920  0.0000E+00  0.5000E+00
     -7.770  0.0000E+00  0.5000E+00
     -7.621  0.0000E+00  0.5000E+00
     -7.471  0.0000E+00  0.5000E+00
     -7.322  0.0000E+00  0.5000E+00
     -7.172  0.0000E+00  0.5000E+00
     -7.023  0.0000E+00  0.5000E+00
     -6.873  0.0000E+00  0.5000E+00
     -6.724  0.0000E+00  0.5000E+00
     -6.574  0.0000E+00  0.5000E+00
     -6.425  0.0000E+00  0.5000E+00
     -6.275  0.0000E+00  0.5000E+00
     -6.126  0.0000E+00  0.5000E+00
     -5.976  0.9341E-31  0.5000E+00
     -5.827  0.2752E-21  0.5000E+00
     -5.677  0.7775E-14  0.5000E+00
     -5.528  0.1794E-08  0.5000E+00
     -5.378  0.1842E-05  0.5000E+00
     -5.229  0.8130E-06  0.5000E+00
     -5.079  0.9163E-03  0.5001E+00
     -4.930  0.5797E-02  0.5010E+00
     -4.780  0.8353E-02  0.5023E+00
     -4.631  0.1224E-01  0.5041E+00
     -4.481  0.1368E-01  0.5061E+00
     -4.332  0.1956E-01  0.5091E+00
     -4.182  0.2359E-01  0.5126E+00
     -4.033  0.2931E-01  0.5170E+00
     -3.883  0.3484E-01  0.5222E+00
     -3.734  0.4319E-01  0.5286E+00
     -3.584  0.2953E-01  0.5330E+00
     -3.435  0.1904E-02  0.5333E+00
     -3.285  0.4934E-04  0.5333E+00
     -3.136  0.6262E-03  0.5334E+00
     -2.986  0.4107E-02  0.5340E+00
     -2.837  0.1504E-01  0.5363E+00
     -2.687  0.3044E-01  0.5408E+00
     -2.538  0.6277E-01  0.5502E+00
     -2.388  0.6832E-01  0.5604E+00
     -2.239  0.3876E-01  0.5662E+00
     -2.089  0.9010E-01  0.5797E+00
     -1.940  0.8939E-01  0.5931E+00
     -1.790  0.1016E+00  0.6083E+00
     -1.640  0.1298E+00  0.6277E+00
     -1.491  0.1556E+00  0.6509E+00
     -1.341  0.8696E-01  0.6639E+00
     -1.192  0.1385E+00  0.6846E+00
     -1.042  0.1158E+00  0.7019E+00
     -0.893  0.1364E+00  0.7223E+00
     -0.743  0.7781E-01  0.7340E+00
     -0.594  0.8109E-01  0.7461E+00
     -0.444  0.1136E+00  0.7631E+00
     -0.295  0.5324E-01  0.7710E+00
     -0.145  0.8456E-01  0.7837E+00
      0.004  0.7498E-01  0.7949E+00
      0.154  0.5186E-01  0.8026E+00
      0.303  0.7950E-01  0.8145E+00
      0.453  0.8176E-01  0.8268E+00
      0.602  0.4120E-01  0.8329E+00
      0.752  0.2770E-02  0.8333E+00
      0.901  0.2571E-04  0.8333E+00
      1.051  0.2213E-05  0.8333E+00
      1.200  0.1436E-09  0.8333E+00
      1.350  0.7229E-16  0.8333E+00
      1.499  0.1916E-29  0.8333E+00
      1.649  0.4735E-20  0.8333E+00
      1.798  0.1178E-12  0.8333E+00
      1.948  0.2626E-07  0.8333E+00
      2.097  0.3617E-04  0.8333E+00
      2.247 -0.5849E-03  0.8333E+00
      2.396  0.2271E-01  0.8366E+00
      2.546  0.6315E-01  0.8461E+00
      2.695  0.5224E-01  0.8539E+00
      2.845  0.5448E-01  0.8620E+00
      2.994  0.2750E-01  0.8662E+00
      3.144  0.3411E-02  0.8667E+00
      3.293  0.1232E-04  0.8667E+00
      3.443 -0.2480E-03  0.8666E+00
      3.592  0.8406E-02  0.8679E+00
      3.742  0.3635E-01  0.8733E+00
      3.891  0.7901E-01  0.8851E+00
      4.041  0.7168E-01  0.8959E+00
      4.190  0.4384E-01  0.9024E+00
      4.340  0.3508E-01  0.9077E+00
      4.490  0.6763E-01  0.9178E+00
      4.639  0.9912E-01  0.9326E+00
      4.789  0.8919E-01  0.9459E+00
      4.938  0.7325E-01  0.9569E+00
      5.088  0.6650E-01  0.9668E+00
      5.237  0.7320E-01  0.9778E+00
      5.387  0.7983E-01  0.9897E+00
      5.536  0.7801E-01  0.1001E+01
      5.686  0.9684E-01  0.1016E+01
      5.835  0.9914E-01  0.1031E+01
      5.985  0.5999E-01  0.1040E+01
      6.134  0.8714E-01  0.1053E+01
      6.284  0.1046E+00  0.1068E+01
      6.433  0.9447E-01  0.1082E+01
      6.583  0.1065E+00  0.1098E+01
      6.732  0.1227E+00  0.1117E+01
      6.882  0.9870E-01  0.1131E+01
      7.031  0.8878E-01  0.1145E+01
      7.181  0.1094E+00  0.1161E+01
      7.330  0.1186E+00  0.1179E+01
      7.480  0.8083E-01  0.1191E+01
      7.629  0.3538E-01  0.1196E+01
      7.779  0.2104E-01  0.1199E+01
      7.928  0.4560E-02  0.1200E+01
      8.078 -0.1248E-03  0.1200E+01
      8.227  0.6948E-05  0.1200E+01
      8.377  0.2515E-08  0.1200E+01
      8.526  0.5373E-14  0.1200E+01
      8.676  0.0000E+00  0.1200E+01
      8.825  0.0000E+00  0.1200E+01
      8.975  0.0000E+00  0.1200E+01
      9.124  0.0000E+00  0.1200E+01
      9.274  0.0000E+00  0.1200E+01
      9.423  0.0000E+00  0.1200E+01
      9.573  0.0000E+00  0.1200E+01
      9.722  0.0000E+00  0.1200E+01
      9.872  0.0000E+00  0.1200E+01
