unknown system                          
           1
     5.044325   -0.013460   -0.006973
     0.052256    5.288751    0.001864
     2.514988    2.410814    5.889019
   Sr   H    Nb   H    Sr
   1   9   1   1   2
Direct configuration=     1
   0.67018916  0.29978604  0.88128176
   0.85630619  0.46184383  0.47881576
   0.84068640  0.89143922  0.07709152
   0.17825152  0.41968050  0.87041380
   0.82640254  0.48215399  0.10315937
   0.28319919  0.49060849  0.10655729
   0.19474045  0.11601856  0.71438813
   0.02804602  0.74197535  0.67624988
   0.29297194  0.91285779  0.06045714
   0.45900578  0.08998928  0.29761606
   0.14499826  0.74265058  0.91038048
   0.50887914  0.76734552  0.67818017
   0.41072570  0.56884981  0.38913804
   0.93087372  0.06093305  0.35976462
unknown system                          
           1
     5.045448   -0.013530   -0.006769
     0.052193    5.288067    0.001598
     2.515751    2.410168    5.888135
   Sr   H    Nb   H    Sr
   1   9   1   1   2
Direct configuration=     2
   0.67018846  0.29979004  0.88130664
   0.85633879  0.46180652  0.47878919
   0.84077026  0.89141607  0.07707222
   0.17814777  0.41959699  0.87048933
   0.82627562  0.48219983  0.10319679
   0.28326435  0.49063143  0.10648837
   0.19486833  0.11597685  0.71442140
   0.02791470  0.74193016  0.67629876
   0.29300533  0.91272423  0.06039903
   0.45907237  0.09001637  0.29757342
   0.14503523  0.74285828  0.91040250
   0.50883836  0.76709162  0.67821972
   0.41076417  0.56900421  0.38907439
   0.93079226  0.06108941  0.35976223
unknown system                          
           1
     5.046873   -0.013618   -0.006509
     0.052112    5.287201    0.001260
     2.516718    2.409349    5.887012
   Sr   H    Nb   H    Sr
   1   9   1   1   2
Direct configuration=     3
   0.67018757  0.29979513  0.88133821
   0.85638014  0.46175918  0.47875549
   0.84087659  0.89138671  0.07704772
   0.17801619  0.41949105  0.87058514
   0.82611466  0.48225798  0.10324427
   0.28334700  0.49066053  0.10640095
   0.19503049  0.11592394  0.71446361
   0.02774817  0.74187283  0.67636078
   0.29304769  0.91255482  0.06032530
   0.45915682  0.09005074  0.29751933
   0.14508211  0.74312174  0.91043044
   0.50878664  0.76676955  0.67826989
   0.41081297  0.56920006  0.38899366
   0.93068897  0.06128774  0.35975921
