unknown system                          
           1
     5.319575   -0.214088   -0.023974
     0.221225    6.080279   -1.238090
     0.020366   -0.545639    4.457524
   H    Sr   H    Nb   Sr   H 
   4   1   1   1   1   4
Direct configuration=     1
   0.67281451  0.05744433  0.87126850
   0.67788145  0.42420945  0.80688793
   0.92909926  0.70158315  0.09305387
   0.92189846  0.80747057  0.24139884
   0.92640463  0.32386669  0.25821885
   0.19115922  0.06536342  0.39522579
   0.42658224  0.18653457  0.69657711
   0.42621041  0.77438370  0.01170048
   0.42523532  0.87665764  0.55454983
   0.17808382  0.05472360  0.87015112
   0.66550303  0.06279874  0.39676014
   0.17347964  0.42388913  0.80132853
unknown system                          
           1
     5.326287   -0.212418   -0.024584
     0.223923    6.089115   -1.235155
     0.019698   -0.545337    4.452171
   H    Sr   H    Nb   Sr   H 
   4   1   1   1   1   4
Direct configuration=     2
   0.67298038  0.05721661  0.87142106
   0.67824720  0.42433869  0.80677919
   0.92877940  0.70201561  0.09364737
   0.92219416  0.80705013  0.24082920
   0.92645684  0.32387677  0.25815808
   0.19080797  0.06515402  0.39507256
   0.42611942  0.18708455  0.69713414
   0.42631176  0.77405237  0.01073547
   0.42533637  0.87652636  0.55480334
   0.17814491  0.05489357  0.87010265
   0.66554486  0.06277529  0.39680036
   0.17342873  0.42394102  0.80163759
unknown system                          
           1
     5.327617   -0.212087   -0.024705
     0.224458    6.090867   -1.234573
     0.019565   -0.545277    4.451110
   H    Sr   H    Nb   Sr   H 
   4   1   1   1   1   4
Direct configuration=     3
   0.67301323  0.05717154  0.87145138
   0.67831958  0.42436424  0.80675758
   0.92871606  0.70210122  0.09376504
   0.92225271  0.80696691  0.24071626
   0.92646718  0.32387876  0.25814602
   0.19073846  0.06511261  0.39504219
   0.42602778  0.18719341  0.69724455
   0.42633183  0.77398679  0.01054405
   0.42535639  0.87650037  0.55485367
   0.17815698  0.05492720  0.87009300
   0.66555315  0.06277064  0.39680835
   0.17341866  0.42395130  0.80169890
unknown system                          
           1
     5.332004   -0.210707   -0.025509
     0.226667    6.097052   -1.231783
     0.018764   -0.544784    4.446032
   H    Sr   H    Nb   Sr   H 
   4   1   1   1   1   4
Direct configuration=     4
   0.67304008  0.05707346  0.87154309
   0.67854066  0.42443609  0.80665676
   0.92847921  0.70197205  0.09357742
   0.92246792  0.80710913  0.24093538
   0.92647089  0.32385293  0.25809591
   0.19051674  0.06500004  0.39501478
   0.42602101  0.18709512  0.69726068
   0.42640644  0.77378372  0.00988799
   0.42542652  0.87662177  0.55509171
   0.17819028  0.05510428  0.87009328
   0.66544714  0.06283760  0.39697565
   0.17334510  0.42403880  0.80198834
unknown system                          
           1
     5.337916   -0.208847   -0.026593
     0.229643    6.105387   -1.228023
     0.017685   -0.544120    4.439189
   H    Sr   H    Nb   Sr   H 
   4   1   1   1   1   4
Direct configuration=     5
   0.67307630  0.05694141  0.87166697
   0.67883832  0.42453274  0.80652066
   0.92816029  0.70179824  0.09332440
   0.92275770  0.80730052  0.24123088
   0.92647590  0.32381816  0.25802834
   0.19021821  0.06484857  0.39497791
   0.42601195  0.18696281  0.69728256
   0.42650688  0.77351030  0.00900305
   0.42552096  0.87678517  0.55541275
   0.17823503  0.05534266  0.87009343
   0.66530439  0.06292777  0.39720129
   0.17324606  0.42415664  0.80237876
unknown system                          
           1
     5.337783   -0.208483   -0.027698
     0.230312    6.105431   -1.227396
     0.016689   -0.544549    4.434615
   H    Sr   H    Nb   Sr   H 
   4   1   1   1   1   4
Direct configuration=     6
   0.67298770  0.05694972  0.87169805
   0.67878087  0.42442147  0.80637767
   0.92798943  0.70182577  0.09336054
   0.92292306  0.80728878  0.24123100
   0.92641932  0.32370710  0.25796854
   0.19020270  0.06481188  0.39509569
   0.42623349  0.18668469  0.69702100
   0.42654066  0.77339234  0.00882257
   0.42557376  0.87715242  0.55550461
   0.17828703  0.05550371  0.87011252
   0.66513063  0.06300254  0.39734115
   0.17328336  0.42418459  0.80258766
unknown system                          
           1
     5.337486   -0.207668   -0.030174
     0.231812    6.105529   -1.225992
     0.014457   -0.545511    4.424362
   H    Sr   H    Nb   Sr   H 
   4   1   1   1   1   4
Direct configuration=     7
   0.67278908  0.05696836  0.87176773
   0.67865206  0.42417198  0.80605679
   0.92760641  0.70188753  0.09344156
   0.92329375  0.80726245  0.24123135
   0.92629248  0.32345810  0.25783435
   0.19016798  0.06472968  0.39536000
   0.42673010  0.18606113  0.69643424
   0.42661636  0.77312786  0.00841760
   0.42569206  0.87797568  0.55571067
   0.17840356  0.05586472  0.87015534
   0.66474112  0.06317020  0.39765489
   0.17336704  0.42424731  0.80305648
