   23   23   60    1
  0.1249783E+02  0.6045078E-09  0.6299019E-09  0.7820938E-09  0.5000000E-15
  1.000000000000000E-004
  CAR 
 unknown system                          
     78    123     52
 
  0.3742002E-15  0.3742002E-15  0.3742002E-15  0.4081633E-02
    1      -33.778612   1.000000
    2      -33.667941   1.000000
    3      -33.597478   1.000000
    4      -33.441307   1.000000
    5      -33.407701   1.000000
    6      -29.306373   1.000000
    7      -29.259550   1.000000
    8      -29.210217   1.000000
    9      -16.061269   1.000000
   10      -15.894581   1.000000
   11      -15.880659   1.000000
   12      -15.851107   1.000000
   13      -15.809444   1.000000
   14      -15.753925   1.000000
   15      -15.718528   1.000000
   16      -15.685168   1.000000
   17      -15.618890   1.000000
   18      -15.557582   1.000000
   19      -15.521532   1.000000
   20      -15.496765   1.000000
   21      -15.398598   1.000000
   22      -15.390113   1.000000
   23      -15.318771   1.000000
   24       -6.665006   1.000000
   25       -5.291414   1.000000
   26       -3.086163   1.000000
   27       -2.691253   1.000000
   28       -2.554911   1.000000
   29       -2.200592   1.000000
   30       -2.031196   1.000000
   31       -1.953900   1.000000
   32       -1.942824   1.000000
   33       -1.344296   1.000000
   34       -1.167207   1.000000
   35       -1.094517   1.000000
   36       -0.959620   1.000000
   37       -0.770583   1.000000
   38       -0.516639   1.000000
   39       -0.288701   0.999312
   40        2.665811   0.000000
   41        3.449980   0.000000
   42        3.637551   0.000000
   43        3.829622   0.000000
   44        4.071895   0.000000
   45        4.249936   0.000000
   46        4.504196   0.000000
   47        4.658533   0.000000
   48        5.125719   0.000000
   49        5.212613   0.000000
   50        5.345988   0.000000
   51        5.788986   0.000000
   52        6.040811   0.000000
 
  0.1428571E+00  0.3724777E-15  0.3677614E-15  0.8163265E-02
    1      -33.778531   1.000000
    2      -33.666150   1.000000
    3      -33.599281   1.000000
    4      -33.441485   1.000000
    5      -33.407663   1.000000
    6      -29.306465   1.000000
    7      -29.259482   1.000000
    8      -29.210085   1.000000
    9      -16.053669   1.000000
   10      -15.912238   1.000000
   11      -15.884283   1.000000
   12      -15.847406   1.000000
   13      -15.798353   1.000000
   14      -15.754344   1.000000
   15      -15.726704   1.000000
   16      -15.679927   1.000000
   17      -15.624209   1.000000
   18      -15.549079   1.000000
   19      -15.519462   1.000000
   20      -15.493118   1.000000
   21      -15.405115   1.000000
   22      -15.391209   1.000000
   23      -15.322695   1.000000
   24       -6.629534   1.000000
   25       -5.230731   1.000000
   26       -3.048368   1.000000
   27       -2.816002   1.000000
   28       -2.532193   1.000000
   29       -2.229809   1.000000
   30       -2.077196   1.000000
   31       -1.949541   1.000000
   32       -1.846024   1.000000
   33       -1.375134   1.000000
   34       -1.215587   1.000000
   35       -1.105603   1.000000
   36       -0.984361   1.000000
   37       -0.774134   1.000000
   38       -0.545513   1.000000
   39       -0.302918   0.999626
   40        2.729316   0.000000
   41        3.400382   0.000000
   42        3.737686   0.000000
   43        3.811924   0.000000
   44        4.048325   0.000000
   45        4.116612   0.000000
   46        4.588994   0.000000
   47        4.666474   0.000000
   48        4.997394   0.000000
   49        5.280609   0.000000
   50        5.509664   0.000000
   51        5.653379   0.000000
   52        5.990950   0.000000
 
  0.2857143E+00  0.3718813E-15  0.3885781E-15  0.8163265E-02
    1      -33.778351   1.000000
    2      -33.661695   1.000000
    3      -33.603766   1.000000
    4      -33.441874   1.000000
    5      -33.407572   1.000000
    6      -29.306597   1.000000
    7      -29.259352   1.000000
    8      -29.209861   1.000000
    9      -16.035544   1.000000
   10      -15.932155   1.000000
   11      -15.887259   1.000000
   12      -15.845892   1.000000
   13      -15.811074   1.000000
   14      -15.768560   1.000000
   15      -15.700465   1.000000
   16      -15.671518   1.000000
   17      -15.635927   1.000000
   18      -15.536024   1.000000
   19      -15.521102   1.000000
   20      -15.488217   1.000000
   21      -15.422813   1.000000
   22      -15.386095   1.000000
   23      -15.329155   1.000000
   24       -6.548148   1.000000
   25       -5.072182   1.000000
   26       -3.122327   1.000000
   27       -2.914029   1.000000
   28       -2.522174   1.000000
   29       -2.247424   1.000000
   30       -2.108937   1.000000
   31       -1.973001   1.000000
   32       -1.699392   1.000000
   33       -1.457873   1.000000
   34       -1.312805   1.000000
   35       -1.132281   1.000000
   36       -1.041905   1.000000
   37       -0.818914   1.000000
   38       -0.565117   1.000000
   39       -0.340973   0.999945
   40        2.849354   0.000000
   41        3.389300   0.000000
   42        3.711120   0.000000
   43        3.848950   0.000000
   44        3.953202   0.000000
   45        4.049110   0.000000
   46        4.507772   0.000000
   47        4.749634   0.000000
   48        5.078871   0.000000
   49        5.239004   0.000000
   50        5.473330   0.000000
   51        5.678811   0.000000
   52        5.867478   0.000000
 
  0.4285714E+00  0.3626656E-15  0.4024558E-15  0.8163265E-02
    1      -33.778210   1.000000
    2      -33.657516   1.000000
    3      -33.607970   1.000000
    4      -33.442177   1.000000
    5      -33.407503   1.000000
    6      -29.306733   1.000000
    7      -29.259278   1.000000
    8      -29.209661   1.000000
    9      -16.021093   1.000000
   10      -15.931790   1.000000
   11      -15.896875   1.000000
   12      -15.841904   1.000000
   13      -15.825534   1.000000
   14      -15.791731   1.000000
   15      -15.675281   1.000000
   16      -15.652522   1.000000
   17      -15.646869   1.000000
   18      -15.538062   1.000000
   19      -15.527860   1.000000
   20      -15.486393   1.000000
   21      -15.432122   1.000000
   22      -15.379089   1.000000
   23      -15.332919   1.000000
   24       -6.482763   1.000000
   25       -4.909436   1.000000
   26       -3.369952   1.000000
   27       -2.806106   1.000000
   28       -2.498336   1.000000
   29       -2.318793   1.000000
   30       -2.109698   1.000000
   31       -1.950967   1.000000
   32       -1.695930   1.000000
   33       -1.484762   1.000000
   34       -1.344888   1.000000
   35       -1.158166   1.000000
   36       -1.083399   1.000000
   37       -0.913968   1.000000
   38       -0.536168   1.000000
   39       -0.383778   0.999996
   40        2.924448   0.000000
   41        3.360848   0.000000
   42        3.680787   0.000000
   43        3.787787   0.000000
   44        3.907654   0.000000
   45        4.183572   0.000000
   46        4.440159   0.000000
   47        4.689846   0.000000
   48        5.067957   0.000000
   49        5.371713   0.000000
   50        5.424285   0.000000
   51        5.599327   0.000000
   52        5.891269   0.000000
 
  0.3738329E-15  0.1428571E+00  0.3816392E-15  0.8163265E-02
    1      -33.778522   1.000000
    2      -33.667979   1.000000
    3      -33.597466   1.000000
    4      -33.440477   1.000000
    5      -33.408637   1.000000
    6      -29.306434   1.000000
    7      -29.259493   1.000000
    8      -29.210200   1.000000
    9      -16.054250   1.000000
   10      -15.898680   1.000000
   11      -15.879203   1.000000
   12      -15.854427   1.000000
   13      -15.815906   1.000000
   14      -15.759411   1.000000
   15      -15.705584   1.000000
   16      -15.683951   1.000000
   17      -15.628290   1.000000
   18      -15.555148   1.000000
   19      -15.520764   1.000000
   20      -15.491880   1.000000
   21      -15.409919   1.000000
   22      -15.380798   1.000000
   23      -15.321739   1.000000
   24       -6.634814   1.000000
   25       -5.270018   1.000000
   26       -3.069613   1.000000
   27       -2.640765   1.000000
   28       -2.574769   1.000000
   29       -2.254194   1.000000
   30       -2.140625   1.000000
   31       -1.990238   1.000000
   32       -1.837430   1.000000
   33       -1.419899   1.000000
   34       -1.179329   1.000000
   35       -1.147684   1.000000
   36       -0.919094   1.000000
   37       -0.711514   1.000000
   38       -0.562230   1.000000
   39       -0.267868   0.998496
   40        2.735816   0.000000
   41        3.342557   0.000000
   42        3.678422   0.000000
   43        3.923308   0.000000
   44        4.071064   0.000000
   45        4.220814   0.000000
   46        4.485674   0.000000
   47        4.715963   0.000000
   48        5.057825   0.000000
   49        5.239239   0.000000
   50        5.431391   0.000000
   51        5.699715   0.000000
   52        5.867772   0.000000
 
  0.1428571E+00  0.1428571E+00  0.3747003E-15  0.8163265E-02
    1      -33.778395   1.000000
    2      -33.666254   1.000000
    3      -33.599244   1.000000
    4      -33.440531   1.000000
    5      -33.408703   1.000000
    6      -29.306428   1.000000
    7      -29.259401   1.000000
    8      -29.209999   1.000000
    9      -16.039249   1.000000
   10      -15.917758   1.000000
   11      -15.883598   1.000000
   12      -15.852476   1.000000
   13      -15.806814   1.000000
   14      -15.762305   1.000000
   15      -15.715995   1.000000
   16      -15.676885   1.000000
   17      -15.624950   1.000000
   18      -15.548836   1.000000
   19      -15.516746   1.000000
   20      -15.494935   1.000000
   21      -15.409794   1.000000
   22      -15.391815   1.000000
   23      -15.321967   1.000000
   24       -6.597202   1.000000
   25       -5.199076   1.000000
   26       -3.031000   1.000000
   27       -2.785408   1.000000
   28       -2.570984   1.000000
   29       -2.311445   1.000000
   30       -2.180084   1.000000
   31       -1.863759   1.000000
   32       -1.824480   1.000000
   33       -1.419240   1.000000
   34       -1.237043   1.000000
   35       -1.139522   1.000000
   36       -0.953816   1.000000
   37       -0.690047   1.000000
   38       -0.603417   1.000000
   39       -0.299645   0.999567
   40        2.804884   0.000000
   41        3.318853   0.000000
   42        3.702133   0.000000
   43        3.885775   0.000000
   44        4.051943   0.000000
   45        4.138099   0.000000
   46        4.549980   0.000000
   47        4.759559   0.000000
   48        4.934622   0.000000
   49        5.359475   0.000000
   50        5.491146   0.000000
   51        5.644995   0.000000
   52        5.961422   0.000000
 
  0.2857143E+00  0.1428571E+00  0.3608225E-15  0.8163265E-02
    1      -33.778236   1.000000
    2      -33.661777   1.000000
    3      -33.603736   1.000000
    4      -33.440834   1.000000
    5      -33.408681   1.000000
    6      -29.306566   1.000000
    7      -29.259267   1.000000
    8      -29.209760   1.000000
    9      -16.028156   1.000000
   10      -15.929132   1.000000
   11      -15.885239   1.000000
   12      -15.862509   1.000000
   13      -15.809962   1.000000
   14      -15.766267   1.000000
   15      -15.701613   1.000000
   16      -15.671727   1.000000
   17      -15.632534   1.000000
   18      -15.535809   1.000000
   19      -15.521418   1.000000
   20      -15.491253   1.000000
   21      -15.419578   1.000000
   22      -15.390668   1.000000
   23      -15.327253   1.000000
   24       -6.520749   1.000000
   25       -5.029631   1.000000
   26       -3.134383   1.000000
   27       -2.860391   1.000000
   28       -2.564909   1.000000
   29       -2.369097   1.000000
   30       -2.133843   1.000000
   31       -1.884541   1.000000
   32       -1.733512   1.000000
   33       -1.489372   1.000000
   34       -1.321807   1.000000
   35       -1.224153   1.000000
   36       -0.977980   1.000000
   37       -0.750261   1.000000
   38       -0.584869   1.000000
   39       -0.329474   0.999897
   40        2.895468   0.000000
   41        3.393955   0.000000
   42        3.723219   0.000000
   43        3.782218   0.000000
   44        3.987398   0.000000
   45        4.105539   0.000000
   46        4.480326   0.000000
   47        4.792942   0.000000
   48        4.960883   0.000000
   49        5.366701   0.000000
   50        5.507575   0.000000
   51        5.727950   0.000000
   52        5.836247   0.000000
 
  0.4285714E+00  0.1428571E+00  0.3608225E-15  0.8163265E-02
    1      -33.778171   1.000000
    2      -33.657494   1.000000
    3      -33.607997   1.000000
    4      -33.441166   1.000000
    5      -33.408592   1.000000
    6      -29.306744   1.000000
    7      -29.259236   1.000000
    8      -29.209646   1.000000
    9      -16.025241   1.000000
   10      -15.933234   1.000000
   11      -15.898575   1.000000
   12      -15.860890   1.000000
   13      -15.810096   1.000000
   14      -15.778234   1.000000
   15      -15.682486   1.000000
   16      -15.658735   1.000000
   17      -15.640198   1.000000
   18      -15.539551   1.000000
   19      -15.526556   1.000000
   20      -15.483968   1.000000
   21      -15.431309   1.000000
   22      -15.379639   1.000000
   23      -15.332746   1.000000
   24       -6.463937   1.000000
   25       -4.871073   1.000000
   26       -3.342368   1.000000
   27       -2.797350   1.000000
   28       -2.539531   1.000000
   29       -2.373122   1.000000
   30       -2.110380   1.000000
   31       -1.948235   1.000000
   32       -1.747827   1.000000
   33       -1.523579   1.000000
   34       -1.334718   1.000000
   35       -1.272312   1.000000
   36       -1.048032   1.000000
   37       -0.841801   1.000000
   38       -0.539955   1.000000
   39       -0.333575   0.999917
   40        2.969922   0.000000
   41        3.359354   0.000000
   42        3.710159   0.000000
   43        3.804955   0.000000
   44        3.970232   0.000000
   45        4.172291   0.000000
   46        4.427289   0.000000
   47        4.701806   0.000000
   48        4.991973   0.000000
   49        5.376524   0.000000
   50        5.427575   0.000000
   51        5.635214   0.000000
   52        5.796664   0.000000
 
 -0.4285714E+00  0.1428571E+00  0.3469447E-15  0.8163265E-02
    1      -33.778231   1.000000
    2      -33.657375   1.000000
    3      -33.608042   1.000000
    4      -33.441260   1.000000
    5      -33.408492   1.000000
    6      -29.306727   1.000000
    7      -29.259142   1.000000
    8      -29.209602   1.000000
    9      -16.030633   1.000000
   10      -15.947512   1.000000
   11      -15.898246   1.000000
   12      -15.849755   1.000000
   13      -15.805404   1.000000
   14      -15.774797   1.000000
   15      -15.683617   1.000000
   16      -15.657425   1.000000
   17      -15.643754   1.000000
   18      -15.536865   1.000000
   19      -15.525950   1.000000
   20      -15.477640   1.000000
   21      -15.439004   1.000000
   22      -15.372767   1.000000
   23      -15.336109   1.000000
   24       -6.466402   1.000000
   25       -4.888847   1.000000
   26       -3.289504   1.000000
   27       -2.841608   1.000000
   28       -2.524189   1.000000
   29       -2.283545   1.000000
   30       -2.149288   1.000000
   31       -2.002023   1.000000
   32       -1.732653   1.000000
   33       -1.487878   1.000000
   34       -1.425361   1.000000
   35       -1.223149   1.000000
   36       -1.069432   1.000000
   37       -0.861524   1.000000
   38       -0.536054   1.000000
   39       -0.299075   0.999556
   40        2.983372   0.000000
   41        3.365773   0.000000
   42        3.705921   0.000000
   43        3.832296   0.000000
   44        3.914288   0.000000
   45        4.273998   0.000000
   46        4.435191   0.000000
   47        4.635088   0.000000
   48        5.079275   0.000000
   49        5.302487   0.000000
   50        5.333031   0.000000
   51        5.558437   0.000000
   52        5.700975   0.000000
 
 -0.2857143E+00  0.1428571E+00  0.3677614E-15  0.8163265E-02
    1      -33.778382   1.000000
    2      -33.661537   1.000000
    3      -33.603828   1.000000
    4      -33.441065   1.000000
    5      -33.408463   1.000000
    6      -29.306577   1.000000
    7      -29.259283   1.000000
    8      -29.209792   1.000000
    9      -16.047993   1.000000
   10      -15.940999   1.000000
   11      -15.890437   1.000000
   12      -15.838381   1.000000
   13      -15.804905   1.000000
   14      -15.757645   1.000000
   15      -15.702843   1.000000
   16      -15.666780   1.000000
   17      -15.649003   1.000000
   18      -15.532546   1.000000
   19      -15.521639   1.000000
   20      -15.475472   1.000000
   21      -15.434720   1.000000
   22      -15.372563   1.000000
   23      -15.335616   1.000000
   24       -6.530579   1.000000
   25       -5.058310   1.000000
   26       -3.010614   1.000000
   27       -2.951641   1.000000
   28       -2.529476   1.000000
   29       -2.267212   1.000000
   30       -2.097181   1.000000
   31       -2.031168   1.000000
   32       -1.706777   1.000000
   33       -1.541121   1.000000
   34       -1.400061   1.000000
   35       -1.187732   1.000000
   36       -0.992186   1.000000
   37       -0.794552   1.000000
   38       -0.559899   1.000000
   39       -0.262501   0.998204
   40        2.894026   0.000000
   41        3.427064   0.000000
   42        3.713543   0.000000
   43        3.871227   0.000000
   44        3.957764   0.000000
   45        4.172598   0.000000
   46        4.493639   0.000000
   47        4.678543   0.000000
   48        4.991170   0.000000
   49        5.314020   0.000000
   50        5.432700   0.000000
   51        5.493220   0.000000
   52        5.772763   0.000000
 
 -0.1428571E+00  0.1428571E+00  0.3812055E-15  0.8163265E-02
    1      -33.778513   1.000000
    2      -33.666073   1.000000
    3      -33.599307   1.000000
    4      -33.440718   1.000000
    5      -33.408529   1.000000
    6      -29.306479   1.000000
    7      -29.259431   1.000000
    8      -29.210052   1.000000
    9      -16.059110   1.000000
   10      -15.915299   1.000000
   11      -15.885585   1.000000
   12      -15.841404   1.000000
   13      -15.795146   1.000000
   14      -15.768336   1.000000
   15      -15.708938   1.000000
   16      -15.679248   1.000000
   17      -15.638940   1.000000
   18      -15.545595   1.000000
   19      -15.520718   1.000000
   20      -15.482886   1.000000
   21      -15.417989   1.000000
   22      -15.374549   1.000000
   23      -15.329130   1.000000
   24       -6.604883   1.000000
   25       -5.214976   1.000000
   26       -3.043795   1.000000
   27       -2.736161   1.000000
   28       -2.547887   1.000000
   29       -2.240267   1.000000
   30       -2.144510   1.000000
   31       -1.926284   1.000000
   32       -1.878470   1.000000
   33       -1.475527   1.000000
   34       -1.264565   1.000000
   35       -1.163879   1.000000
   36       -0.921486   1.000000
   37       -0.744637   1.000000
   38       -0.554451   1.000000
   39       -0.253509   0.997640
   40        2.776596   0.000000
   41        3.417661   0.000000
   42        3.680038   0.000000
   43        3.903870   0.000000
   44        4.056856   0.000000
   45        4.194802   0.000000
   46        4.486314   0.000000
   47        4.679703   0.000000
   48        4.957197   0.000000
   49        5.334441   0.000000
   50        5.506204   0.000000
   51        5.625574   0.000000
   52        5.834617   0.000000
 
  0.3738329E-15  0.2857143E+00  0.4024558E-15  0.8163265E-02
    1      -33.778318   1.000000
    2      -33.668063   1.000000
    3      -33.597437   1.000000
    4      -33.438405   1.000000
    5      -33.410945   1.000000
    6      -29.306509   1.000000
    7      -29.259380   1.000000
    8      -29.210111   1.000000
    9      -16.036139   1.000000
   10      -15.910798   1.000000
   11      -15.879539   1.000000
   12      -15.861889   1.000000
   13      -15.822138   1.000000
   14      -15.763323   1.000000
   15      -15.699795   1.000000
   16      -15.670747   1.000000
   17      -15.644600   1.000000
   18      -15.549056   1.000000
   19      -15.523910   1.000000
   20      -15.483947   1.000000
   21      -15.422187   1.000000
   22      -15.371020   1.000000
   23      -15.327714   1.000000
   24       -6.567418   1.000000
   25       -5.212475   1.000000
   26       -3.023973   1.000000
   27       -2.648524   1.000000
   28       -2.531148   1.000000
   29       -2.444428   1.000000
   30       -2.175750   1.000000
   31       -2.040950   1.000000
   32       -1.731722   1.000000
   33       -1.549398   1.000000
   34       -1.291873   1.000000
   35       -1.170476   1.000000
   36       -0.855294   1.000000
   37       -0.710452   1.000000
   38       -0.574637   1.000000
   39       -0.218648   0.995266
   40        2.851419   0.000000
   41        3.273323   0.000000
   42        3.666050   0.000000
   43        3.922266   0.000000
   44        4.084376   0.000000
   45        4.262302   0.000000
   46        4.552920   0.000000
   47        4.828253   0.000000
   48        4.999977   0.000000
   49        5.205526   0.000000
   50        5.462437   0.000000
   51        5.628339   0.000000
   52        5.876214   0.000000
 
  0.1428571E+00  0.2857143E+00  0.3747003E-15  0.8163265E-02
    1      -33.778212   1.000000
    2      -33.666312   1.000000
    3      -33.599231   1.000000
    4      -33.438343   1.000000
    5      -33.411106   1.000000
    6      -29.306494   1.000000
    7      -29.259280   1.000000
    8      -29.209935   1.000000
    9      -16.025609   1.000000
   10      -15.927499   1.000000
   11      -15.885504   1.000000
   12      -15.852717   1.000000
   13      -15.818996   1.000000
   14      -15.764399   1.000000
   15      -15.707635   1.000000
   16      -15.673111   1.000000
   17      -15.631633   1.000000
   18      -15.544567   1.000000
   19      -15.521671   1.000000
   20      -15.487147   1.000000
   21      -15.423785   1.000000
   22      -15.379534   1.000000
   23      -15.325907   1.000000
   24       -6.534463   1.000000
   25       -5.133417   1.000000
   26       -2.982002   1.000000
   27       -2.708517   1.000000
   28       -2.645129   1.000000
   29       -2.513909   1.000000
   30       -2.180871   1.000000
   31       -1.897774   1.000000
   32       -1.731213   1.000000
   33       -1.529600   1.000000
   34       -1.367838   1.000000
   35       -1.191255   1.000000
   36       -0.880073   1.000000
   37       -0.711375   1.000000
   38       -0.574546   1.000000
   39       -0.236231   0.996378
   40        2.889617   0.000000
   41        3.300816   0.000000
   42        3.664692   0.000000
   43        3.833480   0.000000
   44        4.153968   0.000000
   45        4.250055   0.000000
   46        4.539521   0.000000
   47        4.770332   0.000000
   48        4.946709   0.000000
   49        5.320922   0.000000
   50        5.566443   0.000000
   51        5.669057   0.000000
   52        5.835082   0.000000
 
  0.2857143E+00  0.2857143E+00  0.3885781E-15  0.8163265E-02
    1      -33.778139   1.000000
    2      -33.661737   1.000000
    3      -33.603778   1.000000
    4      -33.438480   1.000000
    5      -33.411231   1.000000
    6      -29.306661   1.000000
    7      -29.259206   1.000000
    8      -29.209718   1.000000
    9      -16.033475   1.000000
   10      -15.932468   1.000000
   11      -15.887959   1.000000
   12      -15.872548   1.000000
   13      -15.801152   1.000000
   14      -15.757191   1.000000
   15      -15.703288   1.000000
   16      -15.675366   1.000000
   17      -15.632418   1.000000
   18      -15.534333   1.000000
   19      -15.524089   1.000000
   20      -15.483934   1.000000
   21      -15.428684   1.000000
   22      -15.381007   1.000000
   23      -15.329848   1.000000
   24       -6.471455   1.000000
   25       -4.952656   1.000000
   26       -3.055972   1.000000
   27       -2.845963   1.000000
   28       -2.635560   1.000000
   29       -2.511751   1.000000
   30       -2.149408   1.000000
   31       -1.835123   1.000000
   32       -1.785409   1.000000
   33       -1.578495   1.000000
   34       -1.458352   1.000000
   35       -1.293631   1.000000
   36       -0.922068   1.000000
   37       -0.722586   1.000000
   38       -0.575024   1.000000
   39       -0.218715   0.995269
   40        2.950157   0.000000
   41        3.416901   0.000000
   42        3.694765   0.000000
   43        3.832795   0.000000
   44        4.023651   0.000000
   45        4.304124   0.000000
   46        4.459704   0.000000
   47        4.692772   0.000000
   48        4.867613   0.000000
   49        5.383218   0.000000
   50        5.506894   0.000000
   51        5.743215   0.000000
   52        5.880174   0.000000
 
  0.4285714E+00  0.2857143E+00  0.3608225E-15  0.8163265E-02
    1      -33.778141   1.000000
    2      -33.657329   1.000000
    3      -33.608099   1.000000
    4      -33.438706   1.000000
    5      -33.411209   1.000000
    6      -29.306745   1.000000
    7      -29.259094   1.000000
    8      -29.209571   1.000000
    9      -16.038289   1.000000
   10      -15.950996   1.000000
   11      -15.901849   1.000000
   12      -15.873712   1.000000
   13      -15.780930   1.000000
   14      -15.756158   1.000000
   15      -15.691395   1.000000
   16      -15.669078   1.000000
   17      -15.635433   1.000000
   18      -15.540355   1.000000
   19      -15.524178   1.000000
   20      -15.474541   1.000000
   21      -15.437786   1.000000
   22      -15.372610   1.000000
   23      -15.335490   1.000000
   24       -6.424472   1.000000
   25       -4.792068   1.000000
   26       -3.223496   1.000000
   27       -2.852264   1.000000
   28       -2.605806   1.000000
   29       -2.402075   1.000000
   30       -2.172205   1.000000
   31       -1.976713   1.000000
   32       -1.841423   1.000000
   33       -1.580496   1.000000
   34       -1.412974   1.000000
   35       -1.354584   1.000000
   36       -1.043425   1.000000
   37       -0.762634   1.000000
   38       -0.537624   1.000000
   39       -0.182121   0.998606
   40        3.034303   0.000000
   41        3.385818   0.000000
   42        3.721392   0.000000
   43        3.897215   0.000000
   44        4.052417   0.000000
   45        4.338554   0.000000
   46        4.399902   0.000000
   47        4.638832   0.000000
   48        4.782912   0.000000
   49        5.338048   0.000000
   50        5.386902   0.000000
   51        5.651524   0.000000
   52        5.796037   0.000000
 
 -0.4285714E+00  0.2857143E+00  0.4302114E-15  0.8163265E-02
    1      -33.778219   1.000000
    2      -33.657183   1.000000
    3      -33.608162   1.000000
    4      -33.438853   1.000000
    5      -33.411066   1.000000
    6      -29.306756   1.000000
    7      -29.259131   1.000000
    8      -29.209524   1.000000
    9      -16.044267   1.000000
   10      -15.964930   1.000000
   11      -15.901628   1.000000
   12      -15.866197   1.000000
   13      -15.774038   1.000000
   14      -15.750698   1.000000
   15      -15.693592   1.000000
   16      -15.669126   1.000000
   17      -15.637484   1.000000
   18      -15.537738   1.000000
   19      -15.522459   1.000000
   20      -15.465170   1.000000
   21      -15.449545   1.000000
   22      -15.363459   1.000000
   23      -15.341380   1.000000
   24       -6.428096   1.000000
   25       -4.818678   1.000000
   26       -3.145707   1.000000
   27       -2.887693   1.000000
   28       -2.575963   1.000000
   29       -2.327157   1.000000
   30       -2.197001   1.000000
   31       -2.099573   1.000000
   32       -1.821645   1.000000
   33       -1.528440   1.000000
   34       -1.446128   1.000000
   35       -1.365733   1.000000
   36       -1.078274   1.000000
   37       -0.766739   1.000000
   38       -0.532737   1.000000
   39       -0.149760   1.017339
   40        3.053053   0.000000
   41        3.405900   0.000000
   42        3.750833   0.000000
   43        3.871043   0.000000
   44        4.068536   0.000000
   45        4.314017   0.000000
   46        4.469816   0.000000
   47        4.602161   0.000000
   48        4.836854   0.000000
   49        5.222442   0.000000
   50        5.312963   0.000000
   51        5.505301   0.000000
   52        5.757930   0.000000
 
 -0.2857143E+00  0.2857143E+00  0.4172010E-15  0.8163265E-02
    1      -33.778319   1.000000
    2      -33.661438   1.000000
    3      -33.603892   1.000000
    4      -33.438811   1.000000
    5      -33.410912   1.000000
    6      -29.306693   1.000000
    7      -29.259238   1.000000
    8      -29.209763   1.000000
    9      -16.055740   1.000000
   10      -15.949236   1.000000
   11      -15.893563   1.000000
   12      -15.850880   1.000000
   13      -15.782855   1.000000
   14      -15.752168   1.000000
   15      -15.704534   1.000000
   16      -15.671340   1.000000
   17      -15.649157   1.000000
   18      -15.530195   1.000000
   19      -15.521273   1.000000
   20      -15.465768   1.000000
   21      -15.445900   1.000000
   22      -15.358888   1.000000
   23      -15.344329   1.000000
   24       -6.483257   1.000000
   25       -4.995891   1.000000
   26       -2.982965   1.000000
   27       -2.833369   1.000000
   28       -2.580330   1.000000
   29       -2.345810   1.000000
   30       -2.269528   1.000000
   31       -1.981746   1.000000
   32       -1.740207   1.000000
   33       -1.667815   1.000000
   34       -1.425899   1.000000
   35       -1.322048   1.000000
   36       -0.963286   1.000000
   37       -0.726914   1.000000
   38       -0.563880   1.000000