  24  24   1   0
  0.7350612E+01  0.5261519E-09  0.5546574E-09  0.6276179E-09  0.5000000E-15
  1.000000000000000E-004
  CAR 
 unknown system                          
     10.95626983    -37.13918189  301      1.16209169      1.00000000
    -37.139  0.0000E+00  0.0000E+00  0.0000E+00  0.0000E+00
    -36.979  0.0000E+00  0.0000E+00  0.0000E+00  0.0000E+00
    -36.819  0.0000E+00  0.0000E+00  0.0000E+00  0.0000E+00
    -36.658  0.0000E+00  0.0000E+00  0.0000E+00  0.0000E+00
    -36.498  0.0000E+00  0.0000E+00  0.0000E+00  0.0000E+00
    -36.338  0.0000E+00  0.0000E+00  0.0000E+00  0.0000E+00
    -36.177  0.0000E+00  0.0000E+00  0.0000E+00  0.0000E+00
    -36.017  0.0000E+00  0.0000E+00  0.0000E+00  0.0000E+00
    -35.857  0.0000E+00  0.0000E+00  0.0000E+00  0.0000E+00
    -35.696  0.0000E+00  0.0000E+00  0.0000E+00  0.0000E+00
    -35.536  0.0000E+00  0.0000E+00  0.0000E+00  0.0000E+00
    -35.376  0.0000E+00  0.0000E+00  0.0000E+00  0.0000E+00
    -35.215  0.0000E+00  0.0000E+00  0.0000E+00  0.0000E+00
    -35.055  0.0000E+00  0.0000E+00  0.0000E+00  0.0000E+00
    -34.895  0.0000E+00  0.0000E+00  0.1010E-01  0.1010E-01
    -34.734  0.0000E+00  0.0000E+00  0.1010E-01  0.1010E-01
    -34.574  0.0000E+00  0.0000E+00  0.1010E-01  0.1010E-01
    -34.414  0.0000E+00  0.0000E+00  0.1010E-01  0.1010E-01
    -34.253  0.0000E+00  0.0000E+00  0.1010E-01  0.1010E-01
    -34.093  0.0000E+00  0.0000E+00  0.1010E-01  0.1010E-01
    -33.933  0.0000E+00  0.0000E+00  0.1010E-01  0.1010E-01
    -33.773  0.0000E+00  0.0000E+00  0.1010E-01  0.1010E-01
    -33.612  0.0000E+00  0.0000E+00  0.1010E-01  0.1010E-01
    -33.452  0.0000E+00  0.0000E+00  0.1010E-01  0.1010E-01
    -33.292  0.0000E+00  0.0000E+00  0.1010E-01  0.1010E-01
    -33.131  0.0000E+00  0.0000E+00  0.1010E-01  0.1010E-01
    -32.971  0.0000E+00  0.0000E+00  0.1010E-01  0.1010E-01
    -32.811  0.0000E+00  0.0000E+00  0.1010E-01  0.1010E-01
    -32.650  0.0000E+00  0.0000E+00  0.1010E-01  0.1010E-01
    -32.490  0.0000E+00  0.0000E+00  0.1010E-01  0.1010E-01
    -32.330  0.0000E+00  0.0000E+00  0.1010E-01  0.1010E-01
    -32.169  0.0000E+00  0.0000E+00  0.1010E-01  0.1010E-01
    -32.009  0.0000E+00  0.0000E+00  0.1010E-01  0.1010E-01
    -31.849  0.0000E+00  0.0000E+00  0.1010E-01  0.1010E-01
    -31.688  0.0000E+00  0.0000E+00  0.1010E-01  0.1010E-01
    -31.528  0.0000E+00  0.0000E+00  0.1010E-01  0.1010E-01
    -31.368  0.0000E+00  0.0000E+00  0.1010E-01  0.1010E-01
    -31.207  0.0000E+00  0.0000E+00  0.1010E-01  0.1010E-01
    -31.047  0.0000E+00  0.0000E+00  0.1010E-01  0.1010E-01
    -30.887  0.0000E+00  0.0000E+00  0.1010E-01  0.1010E-01
    -30.726  0.0000E+00  0.0000E+00  0.2020E-01  0.2020E-01
    -30.566  0.0000E+00  0.0000E+00  0.3030E-01  0.3030E-01
    -30.406  0.0000E+00  0.0000E+00  0.5051E-01  0.5051E-01
    -30.246  0.0000E+00  0.0000E+00  0.6061E-01  0.6061E-01
    -30.085  0.0000E+00  0.0000E+00  0.7071E-01  0.7071E-01
    -29.925  0.0000E+00  0.0000E+00  0.7071E-01  0.7071E-01
    -29.765  0.0000E+00  0.0000E+00  0.7071E-01  0.7071E-01
    -29.604  0.0000E+00  0.0000E+00  0.7071E-01  0.7071E-01
    -29.444  0.0000E+00  0.0000E+00  0.7071E-01  0.7071E-01
    -29.284  0.0000E+00  0.0000E+00  0.7071E-01  0.7071E-01
    -29.123  0.0000E+00  0.0000E+00  0.7071E-01  0.7071E-01
    -28.963  0.0000E+00  0.0000E+00  0.7071E-01  0.7071E-01
    -28.803  0.0000E+00  0.0000E+00  0.7071E-01  0.7071E-01
    -28.642  0.0000E+00  0.0000E+00  0.7071E-01  0.7071E-01
    -28.482  0.0000E+00  0.0000E+00  0.7071E-01  0.7071E-01
    -28.322  0.0000E+00  0.0000E+00  0.7071E-01  0.7071E-01
    -28.161  0.0000E+00  0.0000E+00  0.7071E-01  0.7071E-01
    -28.001  0.0000E+00  0.0000E+00  0.7071E-01  0.7071E-01
    -27.841  0.0000E+00  0.0000E+00  0.7071E-01  0.7071E-01
    -27.680  0.0000E+00  0.0000E+00  0.7071E-01  0.7071E-01
    -27.520  0.0000E+00  0.0000E+00  0.7071E-01  0.7071E-01
    -27.360  0.0000E+00  0.0000E+00  0.7071E-01  0.7071E-01
    -27.199  0.0000E+00  0.0000E+00  0.7071E-01  0.7071E-01
    -27.039  0.0000E+00  0.0000E+00  0.7071E-01  0.7071E-01
    -26.879  0.0000E+00  0.0000E+00  0.7071E-01  0.7071E-01
    -26.719  0.0000E+00  0.0000E+00  0.7071E-01  0.7071E-01
    -26.558  0.0000E+00  0.0000E+00  0.7071E-01  0.7071E-01
    -26.398  0.0000E+00  0.0000E+00  0.7071E-01  0.7071E-01
    -26.238  0.0000E+00  0.0000E+00  0.7071E-01  0.7071E-01
    -26.077  0.0000E+00  0.0000E+00  0.7071E-01  0.7071E-01
    -25.917  0.0000E+00  0.0000E+00  0.7071E-01  0.7071E-01
    -25.757  0.0000E+00  0.0000E+00  0.7071E-01  0.7071E-01
    -25.596  0.0000E+00  0.0000E+00  0.7071E-01  0.7071E-01
    -25.436  0.0000E+00  0.0000E+00  0.7071E-01  0.7071E-01
    -25.276  0.0000E+00  0.0000E+00  0.7071E-01  0.7071E-01
    -25.115  0.0000E+00  0.0000E+00  0.7071E-01  0.7071E-01
    -24.955  0.0000E+00  0.0000E+00  0.7071E-01  0.7071E-01
    -24.795  0.0000E+00  0.0000E+00  0.7071E-01  0.7071E-01
    -24.634  0.0000E+00  0.0000E+00  0.7071E-01  0.7071E-01
    -24.474  0.0000E+00  0.0000E+00  0.7071E-01  0.7071E-01
    -24.314  0.0000E+00  0.0000E+00  0.7071E-01  0.7071E-01
    -24.153  0.0000E+00  0.0000E+00  0.7071E-01  0.7071E-01
    -23.993  0.0000E+00  0.0000E+00  0.7071E-01  0.7071E-01
    -23.833  0.0000E+00  0.0000E+00  0.7071E-01  0.7071E-01
    -23.672  0.0000E+00  0.0000E+00  0.7071E-01  0.7071E-01
    -23.512  0.0000E+00  0.0000E+00  0.7071E-01  0.7071E-01
    -23.352  0.0000E+00  0.0000E+00  0.7071E-01  0.7071E-01
    -23.192  0.0000E+00  0.0000E+00  0.7071E-01  0.7071E-01
    -23.031  0.0000E+00  0.0000E+00  0.7071E-01  0.7071E-01
    -22.871  0.0000E+00  0.0000E+00  0.7071E-01  0.7071E-01
    -22.711  0.0000E+00  0.0000E+00  0.7071E-01  0.7071E-01
    -22.550  0.0000E+00  0.0000E+00  0.7071E-01  0.7071E-01
    -22.390  0.0000E+00  0.0000E+00  0.7071E-01  0.7071E-01
    -22.230  0.0000E+00  0.0000E+00  0.7071E-01  0.7071E-01
    -22.069  0.0000E+00  0.0000E+00  0.7071E-01  0.7071E-01
    -21.909  0.0000E+00  0.0000E+00  0.7071E-01  0.7071E-01
    -21.749  0.0000E+00  0.0000E+00  0.7071E-01  0.7071E-01
    -21.588  0.0000E+00  0.0000E+00  0.7071E-01  0.7071E-01
    -21.428  0.0000E+00  0.0000E+00  0.7071E-01  0.7071E-01
    -21.268  0.0000E+00  0.0000E+00  0.7071E-01  0.7071E-01
    -21.107  0.0000E+00  0.0000E+00  0.7071E-01  0.7071E-01
    -20.947  0.0000E+00  0.0000E+00  0.7071E-01  0.7071E-01
    -20.787  0.0000E+00  0.0000E+00  0.7071E-01  0.7071E-01
    -20.626  0.0000E+00  0.0000E+00  0.7071E-01  0.7071E-01
    -20.466  0.0000E+00  0.0000E+00  0.7071E-01  0.7071E-01
    -20.306  0.0000E+00  0.0000E+00  0.7071E-01  0.7071E-01
    -20.145  0.0000E+00  0.0000E+00  0.7071E-01  0.7071E-01
    -19.985  0.0000E+00  0.0000E+00  0.7071E-01  0.7071E-01
    -19.825  0.0000E+00  0.0000E+00  0.7071E-01  0.7071E-01
    -19.665  0.0000E+00  0.0000E+00  0.7071E-01  0.7071E-01
    -19.504  0.0000E+00  0.0000E+00  0.7071E-01  0.7071E-01
    -19.344  0.0000E+00  0.0000E+00  0.7071E-01  0.7071E-01
    -19.184  0.0000E+00  0.0000E+00  0.7071E-01  0.7071E-01
    -19.023  0.0000E+00  0.0000E+00  0.7071E-01  0.7071E-01
    -18.863  0.0000E+00  0.0000E+00  0.7071E-01  0.7071E-01
    -18.703  0.0000E+00  0.0000E+00  0.7071E-01  0.7071E-01
    -18.542  0.0000E+00  0.0000E+00  0.7071E-01  0.7071E-01
    -18.382  0.0000E+00  0.0000E+00  0.7071E-01  0.7071E-01
    -18.222  0.0000E+00  0.0000E+00  0.7071E-01  0.7071E-01
    -18.061  0.0000E+00  0.0000E+00  0.7071E-01  0.7071E-01
    -17.901  0.0000E+00  0.0000E+00  0.7071E-01  0.7071E-01
    -17.741  0.0000E+00  0.0000E+00  0.7071E-01  0.7071E-01
    -17.580  0.0000E+00  0.0000E+00  0.7071E-01  0.7071E-01
    -17.420  0.0000E+00  0.0000E+00  0.7071E-01  0.7071E-01
    -17.260  0.0000E+00  0.0000E+00  0.7071E-01  0.7071E-01
    -17.099  0.0000E+00  0.0000E+00  0.7071E-01  0.7071E-01
    -16.939  0.0000E+00  0.0000E+00  0.9091E-01  0.9091E-01
    -16.779  0.0000E+00  0.0000E+00  0.1010E+00  0.1010E+00
    -16.618  0.0000E+00  0.0000E+00  0.1010E+00  0.1010E+00
    -16.458  0.0000E+00  0.0000E+00  0.1010E+00  0.1010E+00
    -16.298  0.0000E+00  0.0000E+00  0.1010E+00  0.1010E+00
    -16.138  0.0000E+00  0.0000E+00  0.1010E+00  0.1010E+00
    -15.977  0.0000E+00  0.0000E+00  0.1010E+00  0.1010E+00
    -15.817  0.0000E+00  0.0000E+00  0.1010E+00  0.1010E+00
    -15.657  0.0000E+00  0.0000E+00  0.1010E+00  0.1010E+00
    -15.496  0.0000E+00  0.0000E+00  0.1010E+00  0.1010E+00
    -15.336  0.0000E+00  0.0000E+00  0.1010E+00  0.1010E+00
    -15.176  0.0000E+00  0.0000E+00  0.1010E+00  0.1010E+00
    -15.015  0.0000E+00  0.0000E+00  0.1010E+00  0.1010E+00
    -14.855  0.0000E+00  0.0000E+00  0.1010E+00  0.1010E+00
    -14.695  0.0000E+00  0.0000E+00  0.1010E+00  0.1010E+00
    -14.534  0.0000E+00  0.0000E+00  0.1010E+00  0.1010E+00
    -14.374  0.0000E+00  0.0000E+00  0.1010E+00  0.1010E+00
    -14.214  0.0000E+00  0.0000E+00  0.1010E+00  0.1010E+00
    -14.053  0.0000E+00  0.0000E+00  0.1010E+00  0.1010E+00
    -13.893  0.0000E+00  0.0000E+00  0.1010E+00  0.1010E+00
    -13.733  0.0000E+00  0.0000E+00  0.1010E+00  0.1010E+00
    -13.572  0.0000E+00  0.0000E+00  0.1010E+00  0.1010E+00
    -13.412  0.0000E+00  0.0000E+00  0.1010E+00  0.1010E+00
    -13.252  0.0000E+00  0.0000E+00  0.1010E+00  0.1010E+00
    -13.091  0.0000E+00  0.0000E+00  0.1010E+00  0.1010E+00
    -12.931  0.0000E+00  0.0000E+00  0.1010E+00  0.1010E+00
    -12.771  0.0000E+00  0.0000E+00  0.1010E+00  0.1010E+00
    -12.611  0.0000E+00  0.0000E+00  0.1010E+00  0.1010E+00
    -12.450  0.0000E+00  0.0000E+00  0.1010E+00  0.1010E+00
    -12.290  0.0000E+00  0.0000E+00  0.1010E+00  0.1010E+00
    -12.130  0.0000E+00  0.0000E+00  0.1010E+00  0.1010E+00
    -11.969  0.0000E+00  0.0000E+00  0.1010E+00  0.1010E+00
    -11.809  0.0000E+00  0.0000E+00  0.1010E+00  0.1010E+00
    -11.649  0.0000E+00  0.0000E+00  0.1010E+00  0.1010E+00
    -11.488  0.0000E+00  0.0000E+00  0.1010E+00  0.1010E+00
    -11.328  0.0000E+00  0.0000E+00  0.1010E+00  0.1010E+00
    -11.168  0.0000E+00  0.0000E+00  0.1010E+00  0.1010E+00
    -11.007  0.0000E+00  0.0000E+00  0.1010E+00  0.1010E+00
    -10.847  0.0000E+00  0.0000E+00  0.1010E+00  0.1010E+00
    -10.687  0.0000E+00  0.0000E+00  0.1010E+00  0.1010E+00
    -10.526  0.0000E+00  0.0000E+00  0.1010E+00  0.1010E+00
    -10.366  0.0000E+00  0.0000E+00  0.1010E+00  0.1010E+00
    -10.206  0.0000E+00  0.0000E+00  0.1010E+00  0.1010E+00
    -10.045  0.0000E+00  0.0000E+00  0.1010E+00  0.1010E+00
     -9.885  0.0000E+00  0.0000E+00  0.1010E+00  0.1010E+00
     -9.725  0.0000E+00  0.0000E+00  0.1010E+00  0.1010E+00
     -9.564  0.0000E+00  0.0000E+00  0.1010E+00  0.1010E+00
     -9.404  0.0000E+00  0.0000E+00  0.1010E+00  0.1010E+00
     -9.244  0.5845E-02  0.5845E-02  0.1012E+00  0.1012E+00
     -9.084  0.1702E-01  0.1702E-01  0.1026E+00  0.1026E+00
     -8.923  0.2091E-01  0.2091E-01  0.1056E+00  0.1056E+00
     -8.763  0.2265E-01  0.2265E-01  0.1089E+00  0.1089E+00
     -8.603  0.0000E+00  0.0000E+00  0.1111E+00  0.1111E+00
     -8.442  0.0000E+00  0.0000E+00  0.1111E+00  0.1111E+00
     -8.282  0.0000E+00  0.0000E+00  0.1111E+00  0.1111E+00
     -8.122  0.2212E-01  0.2212E-01  0.1122E+00  0.1122E+00
     -7.961  0.3543E-01  0.3543E-01  0.1172E+00  0.1172E+00
     -7.801  0.0000E+00  0.0000E+00  0.1212E+00  0.1212E+00
     -7.641  0.9073E-01  0.9073E-01  0.1251E+00  0.1251E+00
     -7.480  0.0000E+00  0.0000E+00  0.1313E+00  0.1313E+00
     -7.320  0.1474E-01  0.1474E-01  0.1318E+00  0.1318E+00
     -7.160  0.3596E-01  0.3596E-01  0.1364E+00  0.1364E+00
     -6.999  0.1723E-01  0.1723E-01  0.1404E+00  0.1404E+00
     -6.839  0.0000E+00  0.0000E+00  0.1414E+00  0.1414E+00
     -6.679  0.0000E+00  0.0000E+00  0.1414E+00  0.1414E+00
     -6.518  0.0000E+00  0.0000E+00  0.1414E+00  0.1414E+00
     -6.358  0.0000E+00  0.0000E+00  0.1414E+00  0.1414E+00
     -6.198  0.4305E-01  0.4305E-01  0.1444E+00  0.1444E+00
     -6.037  0.1382E-01  0.1382E-01  0.1507E+00  0.1507E+00
     -5.877  0.0000E+00  0.0000E+00  0.1515E+00  0.1515E+00
     -5.717  0.0000E+00  0.0000E+00  0.1515E+00  0.1515E+00
     -5.557  0.2595E-01  0.2595E-01  0.1531E+00  0.1531E+00
     -5.396  0.1868E-01  0.1868E-01  0.1569E+00  0.1569E+00
     -5.236  0.1673E-01  0.1673E-01  0.1613E+00  0.1613E+00
     -5.076  0.0000E+00  0.0000E+00  0.1616E+00  0.1616E+00
     -4.915  0.0000E+00  0.0000E+00  0.1616E+00  0.1616E+00
     -4.755  0.0000E+00  0.0000E+00  0.1616E+00  0.1616E+00
     -4.595  0.5363E-02  0.5363E-02  0.1617E+00  0.1617E+00
     -4.434  0.2066E-01  0.2066E-01  0.1647E+00  0.1647E+00
     -4.274  0.1233E-01  0.1233E-01  0.1668E+00  0.1668E+00
     -4.114  0.2813E-01  0.2813E-01  0.1693E+00  0.1693E+00
     -3.953  0.0000E+00  0.0000E+00  0.1717E+00  0.1717E+00
     -3.793  0.3523E-01  0.3523E-01  0.1756E+00  0.1756E+00
     -3.633  0.3727E-01  0.3727E-01  0.1815E+00  0.1815E+00
     -3.472  0.6257E-01  0.6257E-01  0.1902E+00  0.1902E+00
     -3.312  0.1542E-01  0.1542E-01  0.1922E+00  0.1922E+00
     -3.152  0.3602E-01  0.3602E-01  0.1978E+00  0.1978E+00
     -2.991  0.7752E-01  0.7752E-01  0.2049E+00  0.2049E+00
     -2.831  0.8163E-02  0.8163E-02  0.2119E+00  0.2119E+00
     -2.671  0.8088E-01  0.8088E-01  0.2189E+00  0.2189E+00
     -2.510  0.7771E-01  0.7771E-01  0.2261E+00  0.2261E+00
     -2.350  0.4531E-01  0.4531E-01  0.2339E+00  0.2339E+00
     -2.190  0.2867E-02  0.2867E-02  0.2424E+00  0.2424E+00
     -2.030  0.3304E-01  0.3304E-01  0.2458E+00  0.2458E+00
     -1.869  0.4329E-01  0.4328E-01  0.2519E+00  0.2519E+00
     -1.709  0.1593E-01  0.1593E-01  0.2542E+00  0.2542E+00
     -1.549  0.1706E-01  0.1706E-01  0.2573E+00  0.2573E+00
     -1.388  0.1417E-01  0.1417E-01  0.2601E+00  0.2601E+00
     -1.228  0.9795E-02  0.9795E-02  0.2620E+00  0.2620E+00
     -1.068  0.0000E+00  0.0000E+00  0.2626E+00  0.2626E+00
     -0.907  0.0000E+00  0.0000E+00  0.2626E+00  0.2626E+00
     -0.747  0.0000E+00  0.0000E+00  0.2626E+00  0.2626E+00
     -0.587  0.0000E+00  0.0000E+00  0.2626E+00  0.2626E+00
     -0.426  0.0000E+00  0.0000E+00  0.2626E+00  0.2626E+00
     -0.266  0.0000E+00  0.0000E+00  0.2626E+00  0.2626E+00
     -0.106  0.0000E+00  0.0000E+00  0.2626E+00  0.2626E+00
      0.055  0.0000E+00  0.0000E+00  0.2626E+00  0.2626E+00
      0.215  0.0000E+00  0.0000E+00  0.2626E+00  0.2626E+00
      0.375  0.0000E+00  0.0000E+00  0.2626E+00  0.2626E+00
      0.536  0.0000E+00  0.0000E+00  0.2626E+00  0.2626E+00
      0.696  0.2754E-01  0.2753E-01  0.2651E+00  0.2651E+00
      0.856  0.5067E-02  0.5067E-02  0.2661E+00  0.2661E+00
      1.017  0.5068E-02  0.5068E-02  0.2669E+00  0.2669E+00
      1.177  0.5069E-02  0.5069E-02  0.2678E+00  0.2678E+00
      1.337  0.5069E-02  0.5069E-02  0.2686E+00  0.2686E+00
      1.497  0.1693E-01  0.1693E-01  0.2728E+00  0.2728E+00
      1.658  0.6689E-01  0.6689E-01  0.2768E+00  0.2768E+00
      1.818  0.2900E-01  0.2900E-01  0.2806E+00  0.2806E+00
      1.978  0.0000E+00  0.0000E+00  0.2828E+00  0.2828E+00
      2.139  0.0000E+00  0.0000E+00  0.2828E+00  0.2828E+00
      2.299  0.0000E+00  0.0000E+00  0.2828E+00  0.2828E+00
      2.459  0.0000E+00  0.0000E+00  0.2828E+00  0.2828E+00
      2.620  0.0000E+00  0.0000E+00  0.2828E+00  0.2828E+00
      2.780  0.0000E+00  0.0000E+00  0.2828E+00  0.2828E+00
      2.940  0.3959E-01  0.3959E-01  0.2913E+00  0.2913E+00
      3.101  0.4313E-01  0.4313E-01  0.2957E+00  0.2957E+00
      3.261  0.1234E-01  0.1234E-01  0.3028E+00  0.3028E+00
      3.421  0.4814E-01  0.4814E-01  0.3079E+00  0.3079E+00
      3.582  0.3540E-02  0.3541E-02  0.3131E+00  0.3131E+00
      3.742  0.5107E-01  0.5107E-01  0.3207E+00  0.3207E+00
      3.902  0.4231E-01  0.4230E-01  0.3242E+00  0.3242E+00
      4.063  0.2116E-01  0.2116E-01  0.3324E+00  0.3324E+00
      4.223  0.3057E-01  0.3057E-01  0.3366E+00  0.3366E+00
      4.383  0.3148E-01  0.3148E-01  0.3430E+00  0.3430E+00
      4.544  0.3353E-01  0.3353E-01  0.3495E+00  0.3495E+00
      4.704  0.3270E-01  0.3270E-01  0.3564E+00  0.3564E+00
      4.864  0.2328E-01  0.2328E-01  0.3606E+00  0.3606E+00
      5.024  0.3891E-01  0.3891E-01  0.3654E+00  0.3654E+00
      5.185  0.3260E-01  0.3260E-01  0.3704E+00  0.3704E+00
      5.345  0.4189E-01  0.4189E-01  0.3770E+00  0.3770E+00
      5.505  0.2324E-01  0.2324E-01  0.3818E+00  0.3818E+00
      5.666  0.3033E-01  0.3033E-01  0.3860E+00  0.3860E+00
      5.826  0.2996E-01  0.2996E-01  0.3910E+00  0.3910E+00
      5.986  0.3478E-01  0.3478E-01  0.3959E+00  0.3959E+00
      6.147  0.4232E-01  0.4232E-01  0.4019E+00  0.4019E+00
      6.307  0.4281E-01  0.4281E-01  0.4079E+00  0.4079E+00
      6.467  0.2556E-01  0.2556E-01  0.4141E+00  0.4141E+00
      6.628  0.5067E-01  0.5067E-01  0.4208E+00  0.4208E+00
      6.788  0.4664E-01  0.4664E-01  0.4261E+00  0.4261E+00
      6.948  0.2183E-01  0.2183E-01  0.4337E+00  0.4337E+00
      7.109  0.5610E-01  0.5610E-01  0.4404E+00  0.4404E+00
      7.269  0.2727E-01  0.2727E-01  0.4454E+00  0.4454E+00
      7.429  0.3402E-01  0.3402E-01  0.4530E+00  0.4530E+00
      7.590  0.1227E-01  0.1227E-01  0.4548E+00  0.4548E+00
      7.750  0.5134E-01  0.5133E-01  0.4610E+00  0.4610E+00
      7.910  0.2128E-01  0.2128E-01  0.4656E+00  0.4656E+00
      8.071  0.2864E-01  0.2864E-01  0.4693E+00  0.4693E+00
      8.231  0.2874E-01  0.2874E-01  0.4745E+00  0.4745E+00
      8.391  0.3899E-01  0.3899E-01  0.4799E+00  0.4799E+00
      8.551  0.1063E-01  0.1063E-01  0.4838E+00  0.4838E+00
      8.712  0.2995E-02  0.2995E-02  0.4848E+00  0.4848E+00
      8.872  0.0000E+00  0.0000E+00  0.4848E+00  0.4848E+00
      9.032  0.0000E+00  0.0000E+00  0.4848E+00  0.4848E+00
      9.193  0.0000E+00  0.0000E+00  0.4848E+00  0.4848E+00
      9.353  0.0000E+00  0.0000E+00  0.4848E+00  0.4848E+00
      9.513  0.0000E+00  0.0000E+00  0.4848E+00  0.4848E+00
      9.674  0.0000E+00  0.0000E+00  0.4848E+00  0.4848E+00
      9.834  0.0000E+00  0.0000E+00  0.4848E+00  0.4848E+00
      9.994  0.0000E+00  0.0000E+00  0.4848E+00  0.4848E+00
     10.155  0.0000E+00  0.0000E+00  0.4848E+00  0.4848E+00
     10.315  0.0000E+00  0.0000E+00  0.4848E+00  0.4848E+00
     10.475  0.0000E+00  0.0000E+00  0.4848E+00  0.4848E+00
     10.636  0.0000E+00  0.0000E+00  0.4848E+00  0.4848E+00
     10.796  0.0000E+00  0.0000E+00  0.4848E+00  0.4848E+00
     10.956  0.0000E+00  0.0000E+00  0.4848E+00  0.4848E+00
     10.95626983    -37.13918189  301      1.16209169      1.00000000
    -37.139  0.0000E+00  0.0000E+00  0.0000E+00  0.0000E+00  0.0000E+00  0.0000E+00  0.0000E+00  0.0000E+00  0.0000E+00  0.0000E+00  0.0000E+00  0.0000E+00  0.0000E+00  0.0000E+00  0.0000E+00  0.0000E+00  0.0000E+00  0.0000E+00
    -36.979  0.0000E+00  0.0000E+00  0.0000E+00  0.0000E+00  0.0000E+00  0.0000E+00  0.0000E+00  0.0000E+00  0.0000E+00  0.0000E+00  0.0000E+00  0.0000E+00  0.0000E+00  0.0000E+00  0.0000E+00  0.0000E+00  0.0000E+00  0.0000E+00
    -36.819  0.0000E+00  0.0000E+00  0.0000E+00  0.0000E+00  0.0000E+00  0.0000E+00  0.0000E+00  0.0000E+00  0.0000E+00  0.0000E+00  0.0000E+00  0.0000E+00  0.0000E+00  0.0000E+00  0.0000E+00  0.0000E+00  0.0000E+00  0.0000E+00
    -36.658  0.0000E+00  0.0000E+00  0.0000E+00  0.0000E+00  0.0000E+00  0.0000E+00  0.0000E+00  0.0000E+00  0.0000E+00  0.0000E+00  0.0000E+00  0.0000E+00  0.0000E+00  0.0000E+00  0.0000E+00  0.0000E+00  0.0000E+00  0.0000E+00
    -36.498  0.0000E+00  0.0000E+00  0.0000E+00  0.0000E+00  0.0000E+00  0.0000E+00  0.0000E+00  0.0000E+00  0.0000E+00  0.0000E+00  0.0000E+00  0.0000E+00  0.0000E+00  0.0000E+00  0.0000E+00  0.0000E+00  0.0000E+00  0.0000E+00
    -36.338  0.0000E+00  0.0000E+00  0.0000E+00  0.0000E+00  0.0000E+00  0.0000E+00  0.0000E+00  0.0000E+00  0.0000E+00  0.0000E+00  0.0000E+00  0.0000E+00  0.0000E+00  0.0000E+00  0.0000E+00  0.0000E+00  0.0000E+00  0.0000E+00
    -36.177  0.0000E+00  0.0000E+00  0.0000E+00  0.0000E+00  0.0000E+00  0.0000E+00  0.0000E+00  0.0000E+00  0.0000E+00  0.0000E+00  0.0000E+00  0.0000E+00  0.0000E+00  0.0000E+00  0.0000E+00  0.0000E+00  0.0000E+00  0.0000E+00
    -36.017  0.0000E+00  0.0000E+00  0.0000E+00  0.0000E+00  0.0000E+00  0.0000E+00  0.0000E+00  0.0000E+00  0.0000E+00  0.0000E+00  0.0000E+00  0.0000E+00  0.0000E+00  0.0000E+00  0.0000E+00  0.0000E+00  0.0000E+00  0.0000E+00
    -35.857  0.0000E+00  0.0000E+00  0.0000E+00  0.0000E+00  0.0000E+00  0.0000E+00  0.0000E+00  0.0000E+00  0.0000E+00  0.0000E+00  0.0000E+00  0.0000E+00  0.0000E+00  0.0000E+00  0.0000E+00  0.0000E+00  0.0000E+00  0.0000E+00
    -35.696  0.0000E+00  0.0000E+00  0.0000E+00  0.0000E+00  0.0000E+00  0.0000E+00  0.0000E+00  0.0000E+00  0.0000E+00  0.0000E+00  0.0000E+00  0.0000E+00  0.0000E+00  0.0000E+00  0.0000E+00  0.0000E+00  0.0000E+00  0.0000E+00
    -35.536  0.0000E+00  0.0000E+00  0.0000E+00  0.0000E+00  0.0000E+00  0.0000E+00  0.0000E+00  0.0000E+00  0.0000E+00  0.0000E+00  0.0000E+00  0.0000E+00  0.0000E+00  0.0000E+00  0.0000E+00  0.0000E+00  0.0000E+00  0.0000E+00
    -35.376  0.0000E+00  0.0000E+00  0.0000E+00  0.0000E+00  0.0000E+00  0.0000E+00  0.0000E+00  0.0000E+00  0.0000E+00  0.0000E+00  0.0000E+00  0.0000E+00  0.0000E+00  0.0000E+00  0.0000E+00  0.0000E+00  0.0000E+00  0.0000E+00
    -35.215  0.0000E+00  0.0000E+00  0.0000E+00  0.0000E+00  0.0000E+00  0.0000E+00  0.0000E+00  0.0000E+00  0.0000E+00  0.0000E+00  0.0000E+00  0.0000E+00  0.0000E+00  0.0000E+00  0.0000E+00  0.0000E+00  0.0000E+00  0.0000E+00
    -35.055  0.0000E+00  0.0000E+00  0.0000E+00  0.0000E+00  0.0000E+00  0.0000E+00  0.0000E+00  0.0000E+00  0.0000E+00  0.0000E+00  0.0000E+00  0.0000E+00  0.0000E+00  0.0000E+00  0.0000E+00  0.0000E+00  0.0000E+00  0.0000E+00
    -34.895  0.0000E+00  0.0000E+00  0.0000E+00  0.0000E+00  0.0000E+00  0.0000E+00  0.0000E+00  0.0000E+00  0.0000E+00  0.0000E+00  0.0000E+00  0.0000E+00  0.0000E+00  0.0000E+00  0.0000E+00  0.0000E+00  0.0000E+00  0.0000E+00
    -34.734  0.0000E+00  0.0000E+00  0.0000E+00  0.0000E+00  0.0000E+00  0.0000E+00  0.0000E+00  0.0000E+00  0.0000E+00  0.0000E+00  0.0000E+00  0.0000E+00  0.0000E+00  0.0000E+00  0.0000E+00  0.0000E+00  0.0000E+00  0.0000E+00
    -34.574  0.0000E+00  0.0000E+00  0.0000E+00  0.0000E+00  0.0000E+00  0.0000E+00  0.0000E+00  0.0000E+00  0.0000E+00  0.0000E+00  0.0000E+00  0.0000E+00  0.0000E+00  0.0000E+00  0.0000E+00  0.0000E+00  0.0000E+00  0.0000E+00
    -34.414  0.0000E+00  0.0000E+00  0.0000E+00  0.0000E+00  0.0000E+00  0.0000E+00  0.0000E+00  0.0000E+00  0.0000E+00  0.0000E+00  0.0000E+00  0.0000E+00  0.0000E+00  0.0000E+00  0.0000E+00  0.0000E+00  0.0000E+00  0.0000E+00
    -34.253  0.0000E+00  0.0000E+00  0.0000E+00  0.0000E+00  0.0000E+00  0.0000E+00  0.0000E+00  0.0000E+00  0.0000E+00  0.0000E+00  0.0000E+00  0.0000E+00  0.0000E+00  0.0000E+00  0.0000E+00  0.0000E+00  0.0000E+00  0.0000E+00
    -34.093  0.0000E+00  0.0000E+00  0.0000E+00  0.0000E+00  0.0000E+00  0.0000E+00  0.0000E+00  0.0000E+00  0.0000E+00  0.0000E+00  0.0000E+00  0.0000E+00  0.0000E+00  0.0000E+00  0.0000E+00  0.0000E+00  0.0000E+00  0.0000E+00
    -33.933  0.0000E+00  0.0000E+00  0.0000E+00  0.0000E+00  0.0000E+00  0.0000E+00  0.0000E+00  0.0000E+00  0.0000E+00  0.0000E+00  0.0000E+00  0.0000E+00  0.0000E+00  0.0000E+00  0.0000E+00  0.0000E+00  0.0000E+00  0.0000E+00
    -33.773  0.0000E+00  0.0000E+00  0.0000E+00  0.0000E+00  0.0000E+00  0.0000E+00  0.0000E+00  0.0000E+00  0.0000E+00  0.0000E+00  0.0000E+00  0.0000E+00  0.0000E+00  0.0000E+00  0.0000E+00  0.0000E+00  0.0000E+00  0.0000E+00
    -33.612  0.0000E+00  0.0000E+00  0.0000E+00  0.0000E+00  0.0000E+00  0.0000E+00  0.0000E+00  0.0000E+00  0.0000E+00  0.0000E+00  0.0000E+00  0.0000E+00  0.0000E+00  0.0000E+00  0.0000E+00  0.0000E+00  0.0000E+00  0.0000E+00
    -33.452  0.0000E+00  0.0000E+00  0.0000E+00  0.0000E+00  0.0000E+00  0.0000E+00  0.0000E+00  0.0000E+00  0.0000E+00  0.0000E+00  0.0000E+00  0.0000E+00  0.0000E+00  0.0000E+00  0.0000E+00  0.0000E+00  0.0000E+00  0.0000E+00
    -33.292  0.0000E+00  0.0000E+00  0.0000E+00  0.0000E+00  0.0000E+00  0.0000E+00  0.0000E+00  0.0000E+00  0.0000E+00  0.0000E+00  0.0000E+00  0.0000E+00  0.0000E+00  0.0000E+00  0.0000E+00  0.0000E+00  0.0000E+00  0.0000E+00
    -33.131  0.0000E+00  0.0000E+00  0.0000E+00  0.0000E+00  0.0000E+00  0.0000E+00  0.0000E+00  0.0000E+00  0.0000E+00  0.0000E+00  0.0000E+00  0.0000E+00  0.0000E+00  0.0000E+00  0.0000E+00  0.0000E+00  0.0000E+00  0.0000E+00
    -32.971  0.0000E+00  0.0000E+00  0.0000E+00  0.0000E+00  0.0000E+00  0.0000E+00  0.0000E+00  0.0000E+00  0.0000E+00  0.0000E+00  0.0000E+00  0.0000E+00  0.0000E+00  0.0000E+00  0.0000E+00  0.0000E+00  0.0000E+00  0.0000E+00
    -32.811  0.0000E+00  0.0000E+00  0.0000E+00  0.0000E+00  0.0000E+00  0.0000E+00  0.0000E+00  0.0000E+00  0.0000E+00  0.0000E+00  0.0000E+00  0.0000E+00  0.0000E+00  0.0000E+00  0.0000E+00  0.0000E+00  0.0000E+00  0.0000E+00
    -32.650  0.0000E+00  0.0000E+00  0.0000E+00  0.0000E+00  0.0000E+00  0.0000E+00  0.0000E+00  0.0000E+00  0.0000E+00  0.0000E+00  0.0000E+00  0.0000E+00  0.0000E+00  0.0000E+00  0.0000E+00  0.0000E+00  0.0000E+00  0.0000E+00
    -32.490  0.0000E+00  0.0000E+00  0.0000E+00  0.0000E+00  0.0000E+00  0.0000E+00  0.0000E+00  0.0000E+00  0.0000E+00  0.0000E+00  0.0000E+00  0.0000E+00  0.0000E+00  0.0000E+00  0.0000E+00  0.0000E+00  0.0000E+00  0.0000E+00
    -32.330  0.0000E+00  0.0000E+00  0.0000E+00  0.0000E+00  0.0000E+00  0.0000E+00  0.0000E+00  0.0000E+00  0.0000E+00  0.0000E+00  0.0000E+00  0.0000E+00  0.0000E+00  0.0000E+00  0.0000E+00  0.0000E+00  0.0000E+00  0.0000E+00
    -32.169  0.0000E+00  0.0000E+00  0.0000E+00  0.0000E+00  0.0000E+00  0.0000E+00  0.0000E+00  0.0000E+00  0.0000E+00  0.0000E+00  0.0000E+00  0.0000E+00  0.0000E+00  0.0000E+00  0.0000E+00  0.0000E+00  0.0000E+00  0.0000E+00
    -32.009  0.0000E+00  0.0000E+00  0.0000E+00  0.0000E+00  0.0000E+00  0.0000E+00  0.0000E+00  0.0000E+00  0.0000E+00  0.0000E+00  0.0000E+00  0.0000E+00  0.0000E+00  0.0000E+00  0.0000E+00  0.0000E+00  0.0000E+00  0.0000E+00
    -31.849  0.0000E+00  0.0000E+00  0.0000E+00  0.0000E+00  0.0000E+00  0.0000E+00  0.0000E+00  0.0000E+00  0.0000E+00  0.0000E+00  0.0000E+00  0.0000E+00  0.0000E+00  0.0000E+00  0.0000E+00  0.0000E+00  0.0000E+00  0.0000E+00
    -31.688  0.0000E+00  0.0000E+00  0.0000E+00  0.0000E+00  0.0000E+00  0.0000E+00  0.0000E+00  0.0000E+00  0.0000E+00  0.0000E+00  0.0000E+00  0.0000E+00  0.0000E+00  0.0000E+00  0.0000E+00  0.0000E+00  0.0000E+00  0.0000E+00
    -31.528  0.0000E+00  0.0000E+00  0.0000E+00  0.0000E+00  0.0000E+00  0.0000E+00  0.0000E+00  0.0000E+00  0.0000E+00  0.0000E+00  0.0000E+00  0.0000E+00  0.0000E+00  0.0000E+00  0.0000E+00  0.0000E+00  0.0000E+00  0.0000E+00
    -31.368  0.0000E+00  0.0000E+00  0.0000E+00  0.0000E+00  0.0000E+00  0.0000E+00  0.0000E+00  0.0000E+00  0.0000E+00  0.0000E+00  0.0000E+00  0.0000E+00  0.0000E+00  0.0000E+00  0.0000E+00  0.0000E+00  0.0000E+00  0.0000E+00
    -31.207  0.0000E+00  0.0000E+00  0.0000E+00  0.0000E+00  0.0000E+00  0.0000E+00  0.0000E+00  0.0000E+00  0.0000E+00  0.0000E+00  0.0000E+00  0.0000E+00  0.0000E+00  0.0000E+00  0.0000E+00  0.0000E+00  0.0000E+00  0.0000E+00
    -31.047  0.0000E+00  0.0000E+00  0.0000E+00  0.0000E+00  0.0000E+00  0.0000E+00  0.0000E+00  0.0000E+00  0.0000E+00  0.0000E+00  0.0000E+00  0.0000E+00  0.0000E+00  0.0000E+00  0.0000E+00  0.0000E+00  0.0000E+00  0.0000E+00
    -30.887  0.0000E+00  0.0000E+00  0.0000E+00  0.0000E+00  0.0000E+00  0.0000E+00  0.0000E+00  0.0000E+00  0.0000E+00  0.0000E+00  0.0000E+00  0.0000E+00  0.0000E+00  0.0000E+00  0.0000E+00  0.0000E+00  0.0000E+00  0.0000E+00
    -30.726  0.0000E+00  0.0000E+00  0.0000E+00  0.0000E+00  0.0000E+00  0.0000E+00  0.0000E+00  0.0000E+00  0.0000E+00  0.0000E+00  0.0000E+00  0.0000E+00  0.0000E+00  0.0000E+00  0.0000E+00  0.0000E+00  0.0000E+00  0.0000E+00
    -30.566  0.0000E+00  0.0000E+00  0.0000E+00  0.0000E+00  0.0000E+00  0.0000E+00  0.0000E+00  0.0000E+00  0.0000E+00  0.0000E+00  0.0000E+00  0.0000E+00  0.0000E+00  0.0000E+00  0.0000E+00  0.0000E+00  0.0000E+00  0.0000E+00
    -30.406  0.0000E+00  0.0000E+00  0.0000E+00  0.0000E+00  0.0000E+00  0.0000E+00  0.0000E+00  0.0000E+00  0.0000E+00  0.0000E+00  0.0000E+00  0.0000E+00  0.0000E+00  0.0000E+00  0.0000E+00  0.0000E+00  0.0000E+00  0.0000E+00
    -30.246  0.0000E+00  0.0000E+00  0.0000E+00  0.0000E+00  0.0000E+00  0.0000E+00  0.0000E+00  0.0000E+00  0.0000E+00  0.0000E+00  0.0000E+00  0.0000E+00  0.0000E+00  0.0000E+00  0.0000E+00  0.0000E+00  0.0000E+00  0.0000E+00
    -30.085  0.0000E+00  0.0000E+00  0.0000E+00  0.0000E+00  0.0000E+00  0.0000E+00  0.0000E+00  0.0000E+00  0.0000E+00  0.0000E+00  0.0000E+00  0.0000E+00  0.0000E+00  0.0000E+00  0.0000E+00  0.0000E+00  0.0000E+00  0.0000E+00
    -29.925  0.0000E+00  0.0000E+00  0.0000E+00  0.0000E+00  0.0000E+00  0.0000E+00  0.0000E+00  0.0000E+00  0.0000E+00  0.0000E+00  0.0000E+00  0.0000E+00  0.0000E+00  0.0000E+00  0.0000E+00  0.0000E+00  0.0000E+00  0.0000E+00
    -29.765  0.0000E+00  0.0000E+00  0.0000E+00  0.0000E+00  0.0000E+00  0.0000E+00  0.0000E+00  0.0000E+00  0.0000E+00  0.0000E+00  0.0000E+00  0.0000E+00  0.0000E+00  0.0000E+00  0.0000E+00  0.0000E+00  0.0000E+00  0.0000E+00
    -29.604  0.0000E+00  0.0000E+00  0.0000E+00  0.0000E+00  0.0000E+00  0.0000E+00  0.0000E+00  0.0000E+00  0.0000E+00  0.0000E+00  0.0000E+00  0.0000E+00  0.0000E+00  0.0000E+00  0.0000E+00  0.0000E+00  0.0000E+00  0.0000E+00
    -29.444  0.0000E+00  0.0000E+00  0.0000E+00  0.0000E+00  0.0000E+00  0.0000E+00  0.0000E+00  0.0000E+00  0.0000E+00  0.0000E+00  0.0000E+00  0.0000E+00  0.0000E+00  0.0000E+00  0.0000E+00  0.0000E+00  0.0000E+00  0.0000E+00
    -29.284  0.0000E+00  0.0000E+00  0.0000E+00  0.0000E+00  0.0000E+00  0.0000E+00  0.0000E+00  0.0000E+00  0.0000E+00  0.0000E+00  0.0000E+00  0.0000E+00  0.0000E+00  0.0000E+00  0.0000E+00  0.0000E+00  0.0000E+00  0.0000E+00
    -29.123  0.0000E+00  0.0000E+00  0.0000E+00  0.0000E+00  0.0000E+00  0.0000E+00  0.0000E+00  0.0000E+00  0.0000E+00  0.0000E+00  0.0000E+00  0.0000E+00  0.0000E+00  0.0000E+00  0.0000E+00  0.0000E+00  0.0000E+00  0.0000E+00