unknown system                          
           1
     3.437069   -0.364656   -0.432170
     0.621287    6.173899    0.290761
    -0.607898    1.152593    7.168741
   H    Nb   H    Nb   H    Sr   H 
  11   1   4   1   2   1   1
Direct configuration=     1
   0.27184830  0.16610663  0.63361234
   0.39512335  0.08906321  0.90826497
   0.50834037  0.23179206  0.11980234
   0.54287319  0.27374397  0.21408142
   0.43763572  0.65376148  0.90914151
   0.41851091  0.51333647  0.90161681
   0.53728564  0.75333079  0.21108291
   0.52162160  0.84119232  0.11891448
   0.05515564  0.48688241  0.23886705
   0.10317896  0.46811445  0.34754080
   0.91373623  0.35954057  0.91910840
   0.75435130  0.62185467  0.72904623
   0.70504633  0.91255972  0.61100293
   0.69784195  0.18729812  0.49132511
   0.72590674  0.39360084  0.59497676
   0.64683273  0.68642520  0.47024228
   0.78435607  0.12863712  0.77087635
   0.91903420  0.80129492  0.91111173
   0.95661239  0.04719973  0.03457049
   0.11483232  0.99153379  0.36854003
   0.22104106  0.64117653  0.60604804
unknown system                          
           1
     3.435491   -0.364824   -0.433646
     0.620832    6.173517    0.293133
    -0.610316    1.155516    7.169747
   H    Nb   H    Nb   H    Sr   H 
  11   1   4   1   2   1   1
Direct configuration=     2
   0.27183316  0.16612679  0.63362370
   0.39528855  0.08902143  0.90826855
   0.50782515  0.23151808  0.11905387
   0.54312827  0.27412796  0.21480033
   0.43759841  0.65395861  0.90908553
   0.41856533  0.51320592  0.90152423
   0.53709671  0.75358547  0.21078779
   0.52142223  0.84087848  0.11917231
   0.05524306  0.48686619  0.23903180
   0.10315222  0.46814191  0.34729124
   0.91375802  0.35959542  0.91911839
   0.75486730  0.62184592  0.72914934
   0.70520077  0.91245832  0.61105056
   0.69760362  0.18732277  0.49136335
   0.72587592  0.39362794  0.59504551
   0.64649479  0.68647048  0.47024426
   0.78453588  0.12861290  0.77085036
   0.91907416  0.80128340  0.91113992
   0.95697431  0.04722334  0.03452676
   0.11467350  0.99150280  0.36861299
   0.22095362  0.64107089  0.60603223
unknown system                          
           1
     3.436238   -0.364744   -0.432947
     0.621047    6.173698    0.292010
    -0.609171    1.154132    7.169271
   H    Nb   H    Nb   H    Sr   H 
  11   1   4   1   2   1   1
Direct configuration=     3
   0.27184033  0.16611724  0.63361833
   0.39521028  0.08904122  0.90826683
   0.50806955  0.23164770  0.11940833
   0.54300714  0.27394622  0.21445992
   0.43761610  0.65386523  0.90911207
   0.41853958  0.51326773  0.90156804
   0.53718633  0.75346479  0.21092761
   0.52151661  0.84102718  0.11905018
   0.05520157  0.48687390  0.23895377
   0.10316498  0.46812885  0.34740942
   0.91374769  0.35956944  0.91911366
   0.75462277  0.62185008  0.72910046
   0.70512758  0.91250636  0.61102797
   0.69771653  0.18731110  0.49134527
   0.72589050  0.39361512  0.59501296
   0.64665491  0.68644903  0.47024337
   0.78445069  0.12862436  0.77086264
   0.91905522  0.80128886  0.91112657
   0.95680284  0.04721215  0.03454743
   0.11474873  0.99151749  0.36857845
   0.22099506  0.64112092  0.60603971
