  10  10   0   0
  0.1087748E+02  0.3628821E-09  0.3600714E-09  0.1006560E-08  0.5000000E-15
  1.000000000000000E-004
  CAR 
 unknown system                          
     11.19618420    -34.01477879  301      2.82218372      1.00000000
    -34.015  0.0000E+00  0.0000E+00
    -33.864  0.0000E+00  0.0000E+00
    -33.713  0.0000E+00  0.0000E+00
    -33.563  0.0000E+00  0.0000E+00
    -33.412  0.0000E+00  0.0000E+00
    -33.261  0.0000E+00  0.0000E+00
    -33.111  0.0000E+00  0.0000E+00
    -32.960  0.0000E+00  0.0000E+00
    -32.809  0.3505E-31  0.5283E-32
    -32.658  0.3238E-21  0.4880E-22
    -32.508  0.2899E-13  0.4368E-14
    -32.357  0.2331E-07  0.3513E-08
    -32.206  0.1275E-03  0.1922E-04
    -32.056 -0.3651E-02 -0.5310E-03
    -31.905  0.1215E+00  0.1777E-01
    -31.754  0.3154E+00  0.6531E-01
    -31.604  0.8142E-02  0.6653E-01
    -31.453  0.8860E-03  0.6667E-01
    -31.302  0.5137E-05  0.6667E-01
    -31.151  0.8662E-10  0.6667E-01
    -31.001  0.1030E-16  0.6667E-01
    -30.850  0.0000E+00  0.6667E-01
    -30.699  0.0000E+00  0.6667E-01
    -30.549  0.0000E+00  0.6667E-01
    -30.398  0.0000E+00  0.6667E-01
    -30.247  0.0000E+00  0.6667E-01
    -30.096  0.0000E+00  0.6667E-01
    -29.946  0.0000E+00  0.6667E-01
    -29.795  0.3671E-34  0.6667E-01
    -29.644  0.1455E-23  0.6667E-01
    -29.494  0.5699E-15  0.6667E-01
    -29.343  0.2055E-08  0.6667E-01
    -29.192  0.5393E-04  0.6667E-01
    -29.042 -0.7988E-04  0.6666E-01
    -28.891  0.1161E+00  0.8416E-01
    -28.740  0.5304E+00  0.1641E+00
    -28.589  0.1601E-01  0.1665E+00
    -28.439  0.1067E-02  0.1667E+00
    -28.288  0.1072E-04  0.1667E+00
    -28.137  0.2229E-09  0.1667E+00
    -27.987  0.3393E-16  0.1667E+00
    -27.836  0.0000E+00  0.1667E+00
    -27.685  0.0000E+00  0.1667E+00
    -27.535  0.0000E+00  0.1667E+00
    -27.384  0.0000E+00  0.1667E+00
    -27.233  0.0000E+00  0.1667E+00
    -27.082  0.0000E+00  0.1667E+00
    -26.932  0.0000E+00  0.1667E+00
    -26.781  0.0000E+00  0.1667E+00
    -26.630  0.0000E+00  0.1667E+00
    -26.480  0.0000E+00  0.1667E+00
    -26.329  0.0000E+00  0.1667E+00
    -26.178  0.0000E+00  0.1667E+00
    -26.028  0.0000E+00  0.1667E+00
    -25.877  0.0000E+00  0.1667E+00
    -25.726  0.0000E+00  0.1667E+00
    -25.575  0.0000E+00  0.1667E+00
    -25.425  0.0000E+00  0.1667E+00
    -25.274  0.0000E+00  0.1667E+00
    -25.123  0.0000E+00  0.1667E+00
    -24.973  0.0000E+00  0.1667E+00
    -24.822  0.0000E+00  0.1667E+00
    -24.671  0.0000E+00  0.1667E+00
    -24.520  0.0000E+00  0.1667E+00
    -24.370  0.0000E+00  0.1667E+00
    -24.219  0.0000E+00  0.1667E+00
    -24.068  0.0000E+00  0.1667E+00
    -23.918  0.0000E+00  0.1667E+00
    -23.767  0.0000E+00  0.1667E+00
    -23.616  0.0000E+00  0.1667E+00
    -23.466  0.0000E+00  0.1667E+00
    -23.315  0.0000E+00  0.1667E+00
    -23.164  0.0000E+00  0.1667E+00
    -23.013  0.0000E+00  0.1667E+00
    -22.863  0.0000E+00  0.1667E+00
    -22.712  0.0000E+00  0.1667E+00
    -22.561  0.0000E+00  0.1667E+00
    -22.411  0.0000E+00  0.1667E+00
    -22.260  0.0000E+00  0.1667E+00
    -22.109  0.0000E+00  0.1667E+00
    -21.959  0.0000E+00  0.1667E+00
    -21.808  0.0000E+00  0.1667E+00
    -21.657  0.0000E+00  0.1667E+00
    -21.506  0.0000E+00  0.1667E+00
    -21.356  0.0000E+00  0.1667E+00
    -21.205  0.0000E+00  0.1667E+00
    -21.054  0.0000E+00  0.1667E+00
    -20.904  0.0000E+00  0.1667E+00
    -20.753  0.0000E+00  0.1667E+00
    -20.602  0.0000E+00  0.1667E+00
    -20.451  0.0000E+00  0.1667E+00
    -20.301  0.0000E+00  0.1667E+00
    -20.150  0.0000E+00  0.1667E+00
    -19.999  0.0000E+00  0.1667E+00
    -19.849  0.0000E+00  0.1667E+00
    -19.698  0.0000E+00  0.1667E+00
    -19.547  0.0000E+00  0.1667E+00
    -19.397  0.0000E+00  0.1667E+00
    -19.246  0.0000E+00  0.1667E+00
    -19.095  0.0000E+00  0.1667E+00
    -18.944  0.0000E+00  0.1667E+00
    -18.794  0.0000E+00  0.1667E+00
    -18.643  0.0000E+00  0.1667E+00
    -18.492  0.0000E+00  0.1667E+00
    -18.342  0.0000E+00  0.1667E+00
    -18.191  0.0000E+00  0.1667E+00
    -18.040  0.0000E+00  0.1667E+00
    -17.890  0.0000E+00  0.1667E+00
    -17.739  0.0000E+00  0.1667E+00
    -17.588  0.0000E+00  0.1667E+00
    -17.437  0.0000E+00  0.1667E+00
    -17.287  0.0000E+00  0.1667E+00
    -17.136  0.0000E+00  0.1667E+00
    -16.985  0.0000E+00  0.1667E+00
    -16.835  0.0000E+00  0.1667E+00
    -16.684  0.0000E+00  0.1667E+00
    -16.533  0.0000E+00  0.1667E+00
    -16.383  0.0000E+00  0.1667E+00
    -16.232  0.0000E+00  0.1667E+00
    -16.081  0.0000E+00  0.1667E+00
    -15.930  0.0000E+00  0.1667E+00
    -15.780  0.0000E+00  0.1667E+00
    -15.629  0.0000E+00  0.1667E+00
    -15.478  0.0000E+00  0.1667E+00
    -15.328  0.4516E-30  0.1667E+00
    -15.177  0.2038E-20  0.1667E+00
    -15.026  0.8731E-13  0.1667E+00
    -14.875  0.3212E-07  0.1667E+00
    -14.725  0.7115E-04  0.1667E+00
    -14.574 -0.1153E-02  0.1665E+00
    -14.423  0.4787E-01  0.1737E+00
    -14.273  0.1969E+00  0.2034E+00
    -14.122  0.2140E+00  0.2356E+00
    -13.971  0.2030E+00  0.2662E+00
    -13.821  0.4317E+00  0.3313E+00
    -13.670  0.2336E+00  0.3665E+00
    -13.519  0.6995E-03  0.3666E+00
    -13.368  0.4513E-03  0.3667E+00
    -13.218  0.2007E-05  0.3667E+00
    -13.067  0.3393E-10  0.3667E+00
    -12.916  0.4808E-17  0.3667E+00
    -12.766  0.0000E+00  0.3667E+00
    -12.615  0.0000E+00  0.3667E+00
    -12.464  0.0000E+00  0.3667E+00
    -12.314  0.0000E+00  0.3667E+00
    -12.163  0.0000E+00  0.3667E+00
    -12.012  0.0000E+00  0.3667E+00
    -11.861  0.0000E+00  0.3667E+00
    -11.711  0.0000E+00  0.3667E+00
    -11.560  0.0000E+00  0.3667E+00
    -11.409  0.0000E+00  0.3667E+00
    -11.259  0.0000E+00  0.3667E+00
    -11.108  0.0000E+00  0.3667E+00
    -10.957  0.0000E+00  0.3667E+00
    -10.806  0.0000E+00  0.3667E+00
    -10.656  0.0000E+00  0.3667E+00
    -10.505  0.0000E+00  0.3667E+00
    -10.354  0.0000E+00  0.3667E+00
    -10.204  0.0000E+00  0.3667E+00
    -10.053  0.0000E+00  0.3667E+00
     -9.902  0.0000E+00  0.3667E+00
     -9.752  0.0000E+00  0.3667E+00
     -9.601  0.0000E+00  0.3667E+00
     -9.450  0.0000E+00  0.3667E+00
     -9.299  0.0000E+00  0.3667E+00
     -9.149  0.0000E+00  0.3667E+00
     -8.998  0.0000E+00  0.3667E+00
     -8.847  0.0000E+00  0.3667E+00
     -8.697  0.0000E+00  0.3667E+00
     -8.546  0.0000E+00  0.3667E+00
     -8.395  0.0000E+00  0.3667E+00
     -8.245  0.0000E+00  0.3667E+00
     -8.094  0.0000E+00  0.3667E+00
     -7.943  0.0000E+00  0.3667E+00
     -7.792  0.0000E+00  0.3667E+00
     -7.642  0.0000E+00  0.3667E+00
     -7.491  0.0000E+00  0.3667E+00
     -7.340  0.0000E+00  0.3667E+00
     -7.190  0.0000E+00  0.3667E+00
     -7.039  0.0000E+00  0.3667E+00
     -6.888  0.0000E+00  0.3667E+00
     -6.737  0.0000E+00  0.3667E+00
     -6.587  0.4304E-39  0.3667E+00
     -6.436  0.4355E-28  0.3667E+00
     -6.285  0.4134E-19  0.3667E+00
     -6.135  0.3418E-12  0.3667E+00
     -5.984  0.2054E-07  0.3667E+00
     -5.833  0.4497E-05  0.3667E+00
     -5.683 -0.3281E-05  0.3667E+00
     -5.532  0.2498E-02  0.3670E+00
     -5.381  0.8685E-02  0.3684E+00
     -5.230  0.7385E-02  0.3695E+00
     -5.080  0.1263E-01  0.3714E+00
     -4.929  0.6339E-02  0.3723E+00
     -4.778  0.1482E-01  0.3746E+00
     -4.628  0.7623E-02  0.3757E+00
     -4.477  0.1979E-01  0.3787E+00
     -4.326  0.1083E-01  0.3803E+00
     -4.176  0.2898E-01  0.3847E+00
     -4.025  0.1482E-01  0.3869E+00
     -3.874  0.1191E-01  0.3887E+00
     -3.723  0.1887E-01  0.3916E+00
     -3.573  0.2420E-02  0.3919E+00
     -3.422  0.1061E-01  0.3935E+00
     -3.271  0.1232E-01  0.3954E+00
     -3.121  0.9486E-02  0.3968E+00
     -2.970  0.3626E-01  0.4023E+00
     -2.819  0.3653E-01  0.4078E+00
     -2.669  0.5259E-01  0.4157E+00
     -2.518  0.4823E-01  0.4230E+00
     -2.367  0.6348E-01  0.4325E+00
     -2.216  0.5533E-01  0.4409E+00
     -2.066  0.6953E-01  0.4514E+00
     -1.915  0.6176E-01  0.4607E+00
     -1.764  0.4521E-01  0.4675E+00
     -1.614  0.5591E-01  0.4759E+00
     -1.463  0.5043E-01  0.4835E+00
     -1.312  0.6696E-01  0.4936E+00
     -1.161  0.4391E-01  0.5002E+00
     -1.011  0.4415E-01  0.5069E+00
     -0.860  0.2033E-01  0.5099E+00
     -0.709  0.5835E-01  0.5187E+00
     -0.559  0.6091E-01  0.5279E+00
     -0.408  0.5459E-01  0.5361E+00
     -0.257  0.4179E-01  0.5424E+00
     -0.107  0.4714E-01  0.5495E+00
      0.044  0.3911E-01  0.5554E+00
      0.195  0.5664E-01  0.5640E+00
      0.346  0.5811E-01  0.5727E+00
      0.496  0.5919E-01  0.5816E+00
      0.647  0.3994E-01  0.5877E+00
      0.798  0.3195E-01  0.5925E+00
      0.948  0.2387E-01  0.5961E+00
      1.099  0.2065E-01  0.5992E+00
      1.250  0.1202E-01  0.6010E+00
      1.400  0.1108E-01  0.6027E+00
      1.551  0.8559E-02  0.6040E+00
      1.702  0.1544E-01  0.6063E+00
      1.853  0.8830E-02  0.6076E+00
      2.003  0.8711E-02  0.6089E+00
      2.154  0.1324E-01  0.6109E+00
      2.305  0.8669E-02  0.6122E+00
      2.455  0.1999E-01  0.6152E+00
      2.606  0.2049E-01  0.6183E+00
      2.757  0.5970E-01  0.6273E+00
      2.908  0.1161E+00  0.6448E+00
      3.058  0.8725E-01  0.6580E+00
      3.209  0.1268E-01  0.6599E+00
      3.360  0.1684E-01  0.6624E+00
      3.510  0.1194E-01  0.6642E+00
      3.661  0.1722E-01  0.6668E+00
      3.812  0.1639E-01  0.6693E+00
      3.962  0.2500E-01  0.6730E+00
      4.113  0.1711E-01  0.6756E+00
      4.264  0.1464E-01  0.6778E+00
      4.415  0.3240E-01  0.6827E+00
      4.565  0.5643E-01  0.6912E+00
      4.716  0.9251E-01  0.7052E+00
      4.867  0.8267E-01  0.7176E+00
      5.017  0.8360E-01  0.7302E+00
      5.168  0.2647E-01  0.7342E+00
      5.319  0.2151E-01  0.7374E+00
      5.469  0.3204E-01  0.7423E+00
      5.620  0.5401E-01  0.7504E+00
      5.771  0.3507E-01  0.7557E+00
      5.922  0.4841E-01  0.7630E+00
      6.072  0.5196E-01  0.7708E+00
      6.223  0.5353E-01  0.7789E+00
      6.374  0.5851E-01  0.7877E+00
      6.524  0.4700E-01  0.7948E+00
      6.675  0.3920E-01  0.8007E+00
      6.826  0.5492E-01  0.8090E+00
      6.976  0.5074E-01  0.8166E+00
      7.127  0.6698E-01  0.8267E+00
      7.278  0.7073E-01  0.8374E+00
      7.429  0.9331E-01  0.8514E+00
      7.579  0.1047E+00  0.8672E+00
      7.730  0.6792E-01  0.8775E+00
      7.881  0.3988E-01  0.8835E+00
      8.031  0.6046E-01  0.8926E+00
      8.182  0.6232E-01  0.9020E+00
      8.333  0.5149E-01  0.9097E+00
      8.484  0.4400E-01  0.9164E+00
      8.634  0.4640E-01  0.9234E+00
      8.785  0.4576E-01  0.9303E+00
      8.936  0.1913E-01  0.9331E+00
      9.086  0.8062E-04  0.9332E+00
      9.237  0.1264E-02  0.9333E+00
      9.388 -0.6600E-04  0.9333E+00
      9.538  0.2771E-05  0.9333E+00
      9.689  0.1133E-08  0.9333E+00
      9.840  0.2123E-14  0.9333E+00
      9.991  0.0000E+00  0.9333E+00
     10.141  0.0000E+00  0.9333E+00
     10.292  0.0000E+00  0.9333E+00
     10.443  0.0000E+00  0.9333E+00
     10.593  0.0000E+00  0.9333E+00
     10.744  0.0000E+00  0.9333E+00
     10.895  0.0000E+00  0.9333E+00
     11.045  0.0000E+00  0.9333E+00
     11.196  0.0000E+00  0.9333E+00
