Automatically generated mesh
     358
Reciprocal lattice
    0.00000000000000    0.00000000000000    0.00000000000000             1
    0.09090909090909    0.00000000000000    0.00000000000000             2
    0.18181818181818    0.00000000000000    0.00000000000000             2
    0.27272727272727    0.00000000000000    0.00000000000000             2
    0.36363636363636    0.00000000000000    0.00000000000000             2
    0.45454545454546    0.00000000000000    0.00000000000000             2
    0.00000000000000    0.07692307692308    0.00000000000000             2
    0.09090909090909    0.07692307692308    0.00000000000000             2
    0.18181818181818    0.07692307692308    0.00000000000000             2
    0.27272727272727    0.07692307692308    0.00000000000000             2
    0.36363636363636    0.07692307692308    0.00000000000000             2
    0.45454545454546    0.07692307692308    0.00000000000000             2
   -0.45454545454545    0.07692307692308    0.00000000000000             2
   -0.36363636363636    0.07692307692308    0.00000000000000             2
   -0.27272727272727    0.07692307692308    0.00000000000000             2
   -0.18181818181818    0.07692307692308    0.00000000000000             2
   -0.09090909090909    0.07692307692308    0.00000000000000             2
    0.00000000000000    0.15384615384615    0.00000000000000             2
    0.09090909090909    0.15384615384615    0.00000000000000             2
    0.18181818181818    0.15384615384615    0.00000000000000             2
    0.27272727272727    0.15384615384615    0.00000000000000             2
    0.36363636363636    0.15384615384615    0.00000000000000             2
    0.45454545454546    0.15384615384615    0.00000000000000             2
   -0.45454545454545    0.15384615384615    0.00000000000000             2
   -0.36363636363636    0.15384615384615    0.00000000000000             2
   -0.27272727272727    0.15384615384615    0.00000000000000             2
   -0.18181818181818    0.15384615384615    0.00000000000000             2
   -0.09090909090909    0.15384615384615    0.00000000000000             2
    0.00000000000000    0.23076923076923    0.00000000000000             2
    0.09090909090909    0.23076923076923    0.00000000000000             2
    0.18181818181818    0.23076923076923    0.00000000000000             2
    0.27272727272727    0.23076923076923    0.00000000000000             2
    0.36363636363636    0.23076923076923    0.00000000000000             2
    0.45454545454545    0.23076923076923    0.00000000000000             2
   -0.45454545454545    0.23076923076923    0.00000000000000             2
   -0.36363636363636    0.23076923076923    0.00000000000000             2
   -0.27272727272727    0.23076923076923    0.00000000000000             2
   -0.18181818181818    0.23076923076923    0.00000000000000             2
   -0.09090909090909    0.23076923076923    0.00000000000000             2
    0.00000000000000    0.30769230769231    0.00000000000000             2
    0.09090909090909    0.30769230769231    0.00000000000000             2
    0.18181818181818    0.30769230769231    0.00000000000000             2
    0.27272727272727    0.30769230769231    0.00000000000000             2
    0.36363636363636    0.30769230769231    0.00000000000000             2
    0.45454545454546    0.30769230769231    0.00000000000000             2
   -0.45454545454545    0.30769230769231    0.00000000000000             2
   -0.36363636363636    0.30769230769231    0.00000000000000             2
   -0.27272727272727    0.30769230769231    0.00000000000000             2
   -0.18181818181818    0.30769230769231    0.00000000000000             2
   -0.09090909090909    0.30769230769231    0.00000000000000             2
    0.00000000000000    0.38461538461539    0.00000000000000             2
    0.09090909090909    0.38461538461539    0.00000000000000             2
    0.18181818181818    0.38461538461539    0.00000000000000             2
    0.27272727272727    0.38461538461539    0.00000000000000             2
    0.36363636363636    0.38461538461539    0.00000000000000             2
    0.45454545454546    0.38461538461539    0.00000000000000             2
   -0.45454545454545    0.38461538461539    0.00000000000000             2
   -0.36363636363636    0.38461538461539    0.00000000000000             2
   -0.27272727272727    0.38461538461539    0.00000000000000             2
   -0.18181818181818    0.38461538461539    0.00000000000000             2
   -0.09090909090909    0.38461538461539    0.00000000000000             2
    0.00000000000000    0.46153846153846    0.00000000000000             2
    0.09090909090909    0.46153846153846    0.00000000000000             2
    0.18181818181818    0.46153846153846    0.00000000000000             2
    0.27272727272727    0.46153846153846    0.00000000000000             2
    0.36363636363636    0.46153846153846    0.00000000000000             2
    0.45454545454546    0.46153846153846    0.00000000000000             2
   -0.45454545454545    0.46153846153846    0.00000000000000             2
   -0.36363636363636    0.46153846153846    0.00000000000000             2
   -0.27272727272727    0.46153846153846    0.00000000000000             2
   -0.18181818181818    0.46153846153846    0.00000000000000             2
   -0.09090909090909    0.46153846153846    0.00000000000000             2
    0.00000000000000    0.00000000000000    0.20000000000000             2
    0.09090909090909    0.00000000000000    0.20000000000000             2
    0.18181818181818    0.00000000000000    0.20000000000000             2
    0.27272727272727    0.00000000000000    0.20000000000000             2
    0.36363636363636    0.00000000000000    0.20000000000000             2
    0.45454545454545    0.00000000000000    0.20000000000000             2
   -0.45454545454545    0.00000000000000    0.20000000000000             2
   -0.36363636363636    0.00000000000000    0.20000000000000             2
   -0.27272727272727    0.00000000000000    0.20000000000000             2
   -0.18181818181818    0.00000000000000    0.20000000000000             2
   -0.09090909090909    0.00000000000000    0.20000000000000             2
    0.00000000000000    0.07692307692308    0.20000000000000             2
    0.09090909090909    0.07692307692308    0.20000000000000             2
    0.18181818181818    0.07692307692308    0.20000000000000             2
    0.27272727272727    0.07692307692308    0.20000000000000             2
    0.36363636363636    0.07692307692308    0.20000000000000             2
    0.45454545454546    0.07692307692308    0.20000000000000             2
   -0.45454545454545    0.07692307692308    0.20000000000000             2
   -0.36363636363636    0.07692307692308    0.20000000000000             2
   -0.27272727272727    0.07692307692308    0.20000000000000             2
   -0.18181818181818    0.07692307692308    0.20000000000000             2
   -0.09090909090909    0.07692307692308    0.20000000000000             2
    0.00000000000000    0.15384615384615    0.20000000000000             2
    0.09090909090909    0.15384615384615    0.20000000000000             2
    0.18181818181818    0.15384615384615    0.20000000000000             2
    0.27272727272727    0.15384615384615    0.20000000000000             2
    0.36363636363636    0.15384615384615    0.20000000000000             2
    0.45454545454546    0.15384615384615    0.20000000000000             2
   -0.45454545454545    0.15384615384615    0.20000000000000             2
   -0.36363636363636    0.15384615384615    0.20000000000000             2
   -0.27272727272727    0.15384615384615    0.20000000000000             2
   -0.18181818181818    0.15384615384615    0.20000000000000             2
   -0.09090909090909    0.15384615384615    0.20000000000000             2
    0.00000000000000    0.23076923076923    0.20000000000000             2
    0.09090909090909    0.23076923076923    0.20000000000000             2
    0.18181818181818    0.23076923076923    0.20000000000000             2
    0.27272727272727    0.23076923076923    0.20000000000000             2
    0.36363636363636    0.23076923076923    0.20000000000000             2
    0.45454545454546    0.23076923076923    0.20000000000000             2
   -0.45454545454545    0.23076923076923    0.20000000000000             2
   -0.36363636363636    0.23076923076923    0.20000000000000             2
   -0.27272727272727    0.23076923076923    0.20000000000000             2
   -0.18181818181818    0.23076923076923    0.20000000000000             2
   -0.09090909090909    0.23076923076923    0.20000000000000             2
    0.00000000000000    0.30769230769231    0.20000000000000             2
    0.09090909090909    0.30769230769231    0.20000000000000             2
    0.18181818181818    0.30769230769231    0.20000000000000             2
    0.27272727272727    0.30769230769231    0.20000000000000             2
    0.36363636363636    0.30769230769231    0.20000000000000             2
    0.45454545454546    0.30769230769231    0.20000000000000             2
   -0.45454545454545    0.30769230769231    0.20000000000000             2
   -0.36363636363636    0.30769230769231    0.20000000000000             2
   -0.27272727272727    0.30769230769231    0.20000000000000             2
   -0.18181818181818    0.30769230769231    0.20000000000000             2
   -0.09090909090909    0.30769230769231    0.20000000000000             2
    0.00000000000000    0.38461538461539    0.20000000000000             2
    0.09090909090909    0.38461538461539    0.20000000000000             2
    0.18181818181818    0.38461538461539    0.20000000000000             2
    0.27272727272727    0.38461538461539    0.20000000000000             2
    0.36363636363636    0.38461538461539    0.20000000000000             2
    0.45454545454546    0.38461538461539    0.20000000000000             2
   -0.45454545454545    0.38461538461539    0.20000000000000             2
   -0.36363636363636    0.38461538461539    0.20000000000000             2
   -0.27272727272727    0.38461538461539    0.20000000000000             2
   -0.18181818181818    0.38461538461539    0.20000000000000             2
   -0.09090909090909    0.38461538461539    0.20000000000000             2
    0.00000000000000    0.46153846153846    0.20000000000000             2
    0.09090909090909    0.46153846153846    0.20000000000000             2
    0.18181818181818    0.46153846153846    0.20000000000000             2
    0.27272727272727    0.46153846153846    0.20000000000000             2
    0.36363636363636    0.46153846153846    0.20000000000000             2
    0.45454545454546    0.46153846153846    0.20000000000000             2
   -0.45454545454545    0.46153846153846    0.20000000000000             2
   -0.36363636363636    0.46153846153846    0.20000000000000             2
   -0.27272727272727    0.46153846153846    0.20000000000000             2
   -0.18181818181818    0.46153846153846    0.20000000000000             2
   -0.09090909090909    0.46153846153846    0.20000000000000             2
    0.00000000000000   -0.46153846153846    0.20000000000000             2
    0.09090909090909   -0.46153846153846    0.20000000000000             2
    0.18181818181818   -0.46153846153846    0.20000000000000             2
    0.27272727272727   -0.46153846153846    0.20000000000000             2
    0.36363636363636   -0.46153846153846    0.20000000000000             2
    0.45454545454546   -0.46153846153846    0.20000000000000             2
   -0.45454545454545   -0.46153846153846    0.20000000000000             2
   -0.36363636363636   -0.46153846153846    0.20000000000000             2
   -0.27272727272727   -0.46153846153846    0.20000000000000             2
   -0.18181818181818   -0.46153846153846    0.20000000000000             2
   -0.09090909090909   -0.46153846153846    0.20000000000000             2
    0.00000000000000   -0.38461538461538    0.20000000000000             2
    0.09090909090909   -0.38461538461538    0.20000000000000             2
    0.18181818181818   -0.38461538461538    0.20000000000000             2
    0.27272727272727   -0.38461538461538    0.20000000000000             2
    0.36363636363636   -0.38461538461538    0.20000000000000             2
    0.45454545454546   -0.38461538461538    0.20000000000000             2
   -0.45454545454545   -0.38461538461538    0.20000000000000             2
   -0.36363636363636   -0.38461538461538    0.20000000000000             2
   -0.27272727272727   -0.38461538461538    0.20000000000000             2
   -0.18181818181818   -0.38461538461538    0.20000000000000             2
   -0.09090909090909   -0.38461538461538    0.20000000000000             2
    0.00000000000000   -0.30769230769231    0.20000000000000             2
    0.09090909090909   -0.30769230769231    0.20000000000000             2
    0.18181818181818   -0.30769230769231    0.20000000000000             2
    0.27272727272727   -0.30769230769231    0.20000000000000             2
    0.36363636363636   -0.30769230769231    0.20000000000000             2
    0.45454545454546   -0.30769230769231    0.20000000000000             2
   -0.45454545454545   -0.30769230769231    0.20000000000000             2
   -0.36363636363636   -0.30769230769231    0.20000000000000             2
   -0.27272727272727   -0.30769230769231    0.20000000000000             2
   -0.18181818181818   -0.30769230769231    0.20000000000000             2
   -0.09090909090909   -0.30769230769231    0.20000000000000             2
    0.00000000000000   -0.23076923076923    0.20000000000000             2
    0.09090909090909   -0.23076923076923    0.20000000000000             2
    0.18181818181818   -0.23076923076923    0.20000000000000             2
    0.27272727272727   -0.23076923076923    0.20000000000000             2
    0.36363636363636   -0.23076923076923    0.20000000000000             2
    0.45454545454546   -0.23076923076923    0.20000000000000             2
   -0.45454545454545   -0.23076923076923    0.20000000000000             2
   -0.36363636363636   -0.23076923076923    0.20000000000000             2
   -0.27272727272727   -0.23076923076923    0.20000000000000             2
   -0.18181818181818   -0.23076923076923    0.20000000000000             2
   -0.09090909090909   -0.23076923076923    0.20000000000000             2
    0.00000000000000   -0.15384615384615    0.20000000000000             2
    0.09090909090909   -0.15384615384615    0.20000000000000             2
    0.18181818181818   -0.15384615384615    0.20000000000000             2
    0.27272727272727   -0.15384615384615    0.20000000000000             2
    0.36363636363636   -0.15384615384615    0.20000000000000             2
    0.45454545454546   -0.15384615384615    0.20000000000000             2
   -0.45454545454545   -0.15384615384615    0.20000000000000             2
   -0.36363636363636   -0.15384615384615    0.20000000000000             2
   -0.27272727272727   -0.15384615384615    0.20000000000000             2
   -0.18181818181818   -0.15384615384615    0.20000000000000             2
   -0.09090909090909   -0.15384615384615    0.20000000000000             2
    0.00000000000000   -0.07692307692308    0.20000000000000             2
    0.09090909090909   -0.07692307692308    0.20000000000000             2
    0.18181818181818   -0.07692307692308    0.20000000000000             2
    0.27272727272727   -0.07692307692308    0.20000000000000             2
    0.36363636363636   -0.07692307692308    0.20000000000000             2
    0.45454545454545   -0.07692307692308    0.20000000000000             2
   -0.45454545454545   -0.07692307692308    0.20000000000000             2
   -0.36363636363636   -0.07692307692308    0.20000000000000             2
   -0.27272727272727   -0.07692307692308    0.20000000000000             2
   -0.18181818181818   -0.07692307692308    0.20000000000000             2
   -0.09090909090909   -0.07692307692308    0.20000000000000             2
    0.00000000000000    0.00000000000000    0.40000000000000             2
    0.09090909090909    0.00000000000000    0.40000000000000             2
    0.18181818181818    0.00000000000000    0.40000000000000             2
    0.27272727272727    0.00000000000000    0.40000000000000             2
    0.36363636363636    0.00000000000000    0.40000000000000             2
    0.45454545454546    0.00000000000000    0.40000000000000             2
   -0.45454545454545    0.00000000000000    0.40000000000000             2
   -0.36363636363636    0.00000000000000    0.40000000000000             2
   -0.27272727272727    0.00000000000000    0.40000000000000             2
   -0.18181818181818    0.00000000000000    0.40000000000000             2
   -0.09090909090909    0.00000000000000    0.40000000000000             2
    0.00000000000000    0.07692307692308    0.40000000000000             2
    0.09090909090909    0.07692307692308    0.40000000000000             2
    0.18181818181818    0.07692307692308    0.40000000000000             2
    0.27272727272727    0.07692307692308    0.40000000000000             2
    0.36363636363636    0.07692307692308    0.40000000000000             2
    0.45454545454546    0.07692307692308    0.40000000000000             2
   -0.45454545454545    0.07692307692308    0.40000000000000             2
   -0.36363636363636    0.07692307692308    0.40000000000000             2
   -0.27272727272727    0.07692307692308    0.40000000000000             2
   -0.18181818181818    0.07692307692308    0.40000000000000             2
   -0.09090909090909    0.07692307692308    0.40000000000000             2
    0.00000000000000    0.15384615384615    0.40000000000000             2
    0.09090909090909    0.15384615384615    0.40000000000000             2
    0.18181818181818    0.15384615384615    0.40000000000000             2
    0.27272727272727    0.15384615384615    0.40000000000000             2
    0.36363636363636    0.15384615384615    0.40000000000000             2
    0.45454545454546    0.15384615384615    0.40000000000000             2
   -0.45454545454545    0.15384615384615    0.40000000000000             2
   -0.36363636363636    0.15384615384615    0.40000000000000             2
   -0.27272727272727    0.15384615384615    0.40000000000000             2
   -0.18181818181818    0.15384615384615    0.40000000000000             2
   -0.09090909090909    0.15384615384615    0.40000000000000             2
    0.00000000000000    0.23076923076923    0.40000000000000             2
    0.09090909090909    0.23076923076923    0.40000000000000             2
    0.18181818181818    0.23076923076923    0.40000000000000             2
    0.27272727272727    0.23076923076923    0.40000000000000             2
    0.36363636363636    0.23076923076923    0.40000000000000             2
    0.45454545454546    0.23076923076923    0.40000000000000             2
   -0.45454545454545    0.23076923076923    0.40000000000000             2
   -0.36363636363636    0.23076923076923    0.40000000000000             2
   -0.27272727272727    0.23076923076923    0.40000000000000             2
   -0.18181818181818    0.23076923076923    0.40000000000000             2
   -0.09090909090909    0.23076923076923    0.40000000000000             2
    0.00000000000000    0.30769230769231    0.40000000000000             2
    0.09090909090909    0.30769230769231    0.40000000000000             2
    0.18181818181818    0.30769230769231    0.40000000000000             2
    0.27272727272727    0.30769230769231    0.40000000000000             2
    0.36363636363636    0.30769230769231    0.40000000000000             2
    0.45454545454546    0.30769230769231    0.40000000000000             2
   -0.45454545454545    0.30769230769231    0.40000000000000             2
   -0.36363636363636    0.30769230769231    0.40000000000000             2
   -0.27272727272727    0.30769230769231    0.40000000000000             2
   -0.18181818181818    0.30769230769231    0.40000000000000             2
   -0.09090909090909    0.30769230769231    0.40000000000000             2
    0.00000000000000    0.38461538461539    0.40000000000000             2
    0.09090909090909    0.38461538461539    0.40000000000000             2
    0.18181818181818    0.38461538461539    0.40000000000000             2
    0.27272727272727    0.38461538461539    0.40000000000000             2
    0.36363636363636    0.38461538461539    0.40000000000000             2
    0.45454545454545    0.38461538461539    0.40000000000000             2
   -0.45454545454545    0.38461538461539    0.40000000000000             2
   -0.36363636363636    0.38461538461539    0.40000000000000             2
   -0.27272727272727    0.38461538461539    0.40000000000000             2
   -0.18181818181818    0.38461538461539    0.40000000000000             2
   -0.09090909090909    0.38461538461539    0.40000000000000             2
    0.00000000000000    0.46153846153846    0.40000000000000             2
    0.09090909090909    0.46153846153846    0.40000000000000             2
    0.18181818181818    0.46153846153846    0.40000000000000             2
    0.27272727272727    0.46153846153846    0.40000000000000             2
    0.36363636363636    0.46153846153846    0.40000000000000             2
    0.45454545454546    0.46153846153846    0.40000000000000             2
   -0.45454545454545    0.46153846153846    0.40000000000000             2
   -0.36363636363636    0.46153846153846    0.40000000000000             2
   -0.27272727272727    0.46153846153846    0.40000000000000             2
   -0.18181818181818    0.46153846153846    0.40000000000000             2
   -0.09090909090909    0.46153846153846    0.40000000000000             2
    0.00000000000000   -0.46153846153846    0.40000000000000             2
    0.09090909090909   -0.46153846153846    0.40000000000000             2
    0.18181818181818   -0.46153846153846    0.40000000000000             2
    0.27272727272727   -0.46153846153846    0.40000000000000             2
    0.36363636363636   -0.46153846153846    0.40000000000000             2
    0.45454545454546   -0.46153846153846    0.40000000000000             2
   -0.45454545454545   -0.46153846153846    0.40000000000000             2
   -0.36363636363636   -0.46153846153846    0.40000000000000             2
   -0.27272727272727   -0.46153846153846    0.40000000000000             2
   -0.18181818181818   -0.46153846153846    0.40000000000000             2
   -0.09090909090909   -0.46153846153846    0.40000000000000             2
    0.00000000000000   -0.38461538461538    0.40000000000000             2
    0.09090909090909   -0.38461538461538    0.40000000000000             2
    0.18181818181818   -0.38461538461538    0.40000000000000             2
    0.27272727272727   -0.38461538461538    0.40000000000000             2
    0.36363636363636   -0.38461538461538    0.40000000000000             2
    0.45454545454546   -0.38461538461538    0.40000000000000             2
   -0.45454545454545   -0.38461538461538    0.40000000000000             2
   -0.36363636363636   -0.38461538461538    0.40000000000000             2
   -0.27272727272727   -0.38461538461538    0.40000000000000             2
   -0.18181818181818   -0.38461538461538    0.40000000000000             2
   -0.09090909090909   -0.38461538461538    0.40000000000000             2
    0.00000000000000   -0.30769230769231    0.40000000000000             2
    0.09090909090909   -0.30769230769231    0.40000000000000             2
    0.18181818181818   -0.30769230769231    0.40000000000000             2
    0.27272727272727   -0.30769230769231    0.40000000000000             2
    0.36363636363636   -0.30769230769231    0.40000000000000             2
    0.45454545454545   -0.30769230769231    0.40000000000000             2
   -0.45454545454545   -0.30769230769231    0.40000000000000             2
   -0.36363636363636   -0.30769230769231    0.40000000000000             2
   -0.27272727272727   -0.30769230769231    0.40000000000000             2
   -0.18181818181818   -0.30769230769231    0.40000000000000             2
   -0.09090909090909   -0.30769230769231    0.40000000000000             2
    0.00000000000000   -0.23076923076923    0.40000000000000             2
    0.09090909090909   -0.23076923076923    0.40000000000000             2
    0.18181818181818   -0.23076923076923    0.40000000000000             2
    0.27272727272727   -0.23076923076923    0.40000000000000             2
    0.36363636363636   -0.23076923076923    0.40000000000000             2
    0.45454545454546   -0.23076923076923    0.40000000000000             2
   -0.45454545454545   -0.23076923076923    0.40000000000000             2
   -0.36363636363636   -0.23076923076923    0.40000000000000             2
   -0.27272727272727   -0.23076923076923    0.40000000000000             2
   -0.18181818181818   -0.23076923076923    0.40000000000000             2
   -0.09090909090909   -0.23076923076923    0.40000000000000             2
    0.00000000000000   -0.15384615384615    0.40000000000000             2
    0.09090909090909   -0.15384615384615    0.40000000000000             2
    0.18181818181818   -0.15384615384615    0.40000000000000             2
    0.27272727272727   -0.15384615384615    0.40000000000000             2
    0.36363636363636   -0.15384615384615    0.40000000000000             2
    0.45454545454545   -0.15384615384615    0.40000000000000             2
   -0.45454545454545   -0.15384615384615    0.40000000000000             2
   -0.36363636363636   -0.15384615384615    0.40000000000000             2
   -0.27272727272727   -0.15384615384615    0.40000000000000             2
   -0.18181818181818   -0.15384615384615    0.40000000000000             2
   -0.09090909090909   -0.15384615384615    0.40000000000000             2
    0.00000000000000   -0.07692307692308    0.40000000000000             2
    0.09090909090909   -0.07692307692308    0.40000000000000             2
    0.18181818181818   -0.07692307692308    0.40000000000000             2
    0.27272727272727   -0.07692307692308    0.40000000000000             2
    0.36363636363636   -0.07692307692308    0.40000000000000             2
    0.45454545454546   -0.07692307692308    0.40000000000000             2
   -0.45454545454545   -0.07692307692308    0.40000000000000             2
   -0.36363636363636   -0.07692307692308    0.40000000000000             2
   -0.27272727272727   -0.07692307692308    0.40000000000000             2
   -0.18181818181818   -0.07692307692308    0.40000000000000             2
   -0.09090909090909   -0.07692307692308    0.40000000000000             2
