  13  13   1   0
  0.1074221E+02  0.6265264E-09  0.5649025E-09  0.5772564E-09  0.5000000E-15
  1.000000000000000E-004
  CAR 
 unknown system                          
      9.50091864    -36.66646579  301      1.38315355      1.00000000
    -36.666  0.0000E+00  0.0000E+00  0.0000E+00  0.0000E+00
    -36.513  0.0000E+00  0.0000E+00  0.0000E+00  0.0000E+00
    -36.359  0.0000E+00  0.0000E+00  0.0000E+00  0.0000E+00
    -36.205  0.0000E+00  0.0000E+00  0.0000E+00  0.0000E+00
    -36.051  0.0000E+00  0.0000E+00  0.0000E+00  0.0000E+00
    -35.897  0.0000E+00  0.0000E+00  0.0000E+00  0.0000E+00
    -35.743  0.0000E+00  0.0000E+00  0.0000E+00  0.0000E+00
    -35.589  0.0000E+00  0.0000E+00  0.0000E+00  0.0000E+00
    -35.435  0.0000E+00  0.0000E+00  0.0000E+00  0.0000E+00
    -35.281  0.0000E+00  0.0000E+00  0.0000E+00  0.0000E+00
    -35.128  0.0000E+00  0.0000E+00  0.0000E+00  0.0000E+00
    -34.974  0.0000E+00  0.0000E+00  0.0000E+00  0.0000E+00
    -34.820  0.0000E+00  0.0000E+00  0.0000E+00  0.0000E+00
    -34.666  0.0000E+00  0.0000E+00  0.0000E+00  0.0000E+00
    -34.512  0.0000E+00  0.0000E+00  0.1010E-01  0.1010E-01
    -34.358  0.0000E+00  0.0000E+00  0.1010E-01  0.1010E-01
    -34.204  0.0000E+00  0.0000E+00  0.1010E-01  0.1010E-01
    -34.050  0.0000E+00  0.0000E+00  0.1010E-01  0.1010E-01
    -33.896  0.0000E+00  0.0000E+00  0.2020E-01  0.2020E-01
    -33.743  0.0000E+00  0.0000E+00  0.2020E-01  0.2020E-01
    -33.589  0.0000E+00  0.0000E+00  0.2020E-01  0.2020E-01
    -33.435  0.0000E+00  0.0000E+00  0.2020E-01  0.2020E-01
    -33.281  0.0000E+00  0.0000E+00  0.2020E-01  0.2020E-01
    -33.127  0.0000E+00  0.0000E+00  0.2020E-01  0.2020E-01
    -32.973  0.0000E+00  0.0000E+00  0.2020E-01  0.2020E-01
    -32.819  0.0000E+00  0.0000E+00  0.2020E-01  0.2020E-01
    -32.665  0.0000E+00  0.0000E+00  0.2020E-01  0.2020E-01
    -32.511  0.0000E+00  0.0000E+00  0.2020E-01  0.2020E-01
    -32.358  0.0000E+00  0.0000E+00  0.2020E-01  0.2020E-01
    -32.204  0.0000E+00  0.0000E+00  0.2020E-01  0.2020E-01
    -32.050  0.0000E+00  0.0000E+00  0.2020E-01  0.2020E-01
    -31.896  0.0000E+00  0.0000E+00  0.2020E-01  0.2020E-01
    -31.742  0.0000E+00  0.0000E+00  0.2020E-01  0.2020E-01
    -31.588  0.0000E+00  0.0000E+00  0.2020E-01  0.2020E-01
    -31.434  0.0000E+00  0.0000E+00  0.2020E-01  0.2020E-01
    -31.280  0.0000E+00  0.0000E+00  0.2020E-01  0.2020E-01
    -31.126  0.0000E+00  0.0000E+00  0.2020E-01  0.2020E-01
    -30.972  0.0000E+00  0.0000E+00  0.2020E-01  0.2020E-01
    -30.819  0.0000E+00  0.0000E+00  0.2020E-01  0.2020E-01
    -30.665  0.0000E+00  0.0000E+00  0.2020E-01  0.2020E-01
    -30.511  0.0000E+00  0.0000E+00  0.2020E-01  0.2020E-01
    -30.357  0.0000E+00  0.0000E+00  0.2020E-01  0.2020E-01
    -30.203  0.0000E+00  0.0000E+00  0.2020E-01  0.2020E-01
    -30.049  0.0000E+00  0.0000E+00  0.2020E-01  0.2020E-01
    -29.895  0.0000E+00  0.0000E+00  0.2020E-01  0.2020E-01
    -29.741  0.0000E+00  0.0000E+00  0.2020E-01  0.2020E-01
    -29.587  0.0000E+00  0.0000E+00  0.4040E-01  0.2020E-01
    -29.434  0.0000E+00  0.0000E+00  0.5051E-01  0.2020E-01
    -29.280  0.0000E+00  0.0000E+00  0.5051E-01  0.3030E-01
    -29.126  0.0000E+00  0.0000E+00  0.5051E-01  0.3030E-01
    -28.972  0.0000E+00  0.0000E+00  0.5051E-01  0.5051E-01
    -28.818  0.0000E+00  0.0000E+00  0.5051E-01  0.5051E-01
    -28.664  0.0000E+00  0.0000E+00  0.5051E-01  0.5051E-01
    -28.510  0.0000E+00  0.0000E+00  0.5051E-01  0.5051E-01
    -28.356  0.0000E+00  0.0000E+00  0.5051E-01  0.5051E-01
    -28.202  0.0000E+00  0.0000E+00  0.5051E-01  0.5051E-01
    -28.049  0.0000E+00  0.0000E+00  0.5051E-01  0.5051E-01
    -27.895  0.0000E+00  0.0000E+00  0.5051E-01  0.5051E-01
    -27.741  0.0000E+00  0.0000E+00  0.5051E-01  0.5051E-01
    -27.587  0.0000E+00  0.0000E+00  0.5051E-01  0.5051E-01
    -27.433  0.0000E+00  0.0000E+00  0.5051E-01  0.5051E-01
    -27.279  0.0000E+00  0.0000E+00  0.5051E-01  0.5051E-01
    -27.125  0.0000E+00  0.0000E+00  0.5051E-01  0.5051E-01
    -26.971  0.0000E+00  0.0000E+00  0.5051E-01  0.5051E-01
    -26.817  0.0000E+00  0.0000E+00  0.5051E-01  0.5051E-01
    -26.664  0.0000E+00  0.0000E+00  0.5051E-01  0.5051E-01
    -26.510  0.0000E+00  0.0000E+00  0.5051E-01  0.5051E-01
    -26.356  0.0000E+00  0.0000E+00  0.5051E-01  0.5051E-01
    -26.202  0.0000E+00  0.0000E+00  0.5051E-01  0.5051E-01
    -26.048  0.0000E+00  0.0000E+00  0.5051E-01  0.5051E-01
    -25.894  0.0000E+00  0.0000E+00  0.5051E-01  0.5051E-01
    -25.740  0.0000E+00  0.0000E+00  0.5051E-01  0.5051E-01
    -25.586  0.0000E+00  0.0000E+00  0.5051E-01  0.5051E-01
    -25.432  0.0000E+00  0.0000E+00  0.5051E-01  0.5051E-01
    -25.279  0.0000E+00  0.0000E+00  0.5051E-01  0.5051E-01
    -25.125  0.0000E+00  0.0000E+00  0.5051E-01  0.5051E-01
    -24.971  0.0000E+00  0.0000E+00  0.5051E-01  0.5051E-01
    -24.817  0.0000E+00  0.0000E+00  0.5051E-01  0.5051E-01
    -24.663  0.0000E+00  0.0000E+00  0.5051E-01  0.5051E-01
    -24.509  0.0000E+00  0.0000E+00  0.5051E-01  0.5051E-01
    -24.355  0.0000E+00  0.0000E+00  0.5051E-01  0.5051E-01
    -24.201  0.0000E+00  0.0000E+00  0.5051E-01  0.5051E-01
    -24.047  0.0000E+00  0.0000E+00  0.5051E-01  0.5051E-01
    -23.893  0.0000E+00  0.0000E+00  0.5051E-01  0.5051E-01
    -23.740  0.0000E+00  0.0000E+00  0.5051E-01  0.5051E-01
    -23.586  0.0000E+00  0.0000E+00  0.5051E-01  0.5051E-01
    -23.432  0.0000E+00  0.0000E+00  0.5051E-01  0.5051E-01
    -23.278  0.0000E+00  0.0000E+00  0.5051E-01  0.5051E-01
    -23.124  0.0000E+00  0.0000E+00  0.5051E-01  0.5051E-01
    -22.970  0.0000E+00  0.0000E+00  0.5051E-01  0.5051E-01
    -22.816  0.0000E+00  0.0000E+00  0.5051E-01  0.5051E-01
    -22.662  0.0000E+00  0.0000E+00  0.5051E-01  0.5051E-01
    -22.508  0.0000E+00  0.0000E+00  0.5051E-01  0.5051E-01
    -22.355  0.0000E+00  0.0000E+00  0.5051E-01  0.5051E-01
    -22.201  0.0000E+00  0.0000E+00  0.5051E-01  0.5051E-01
    -22.047  0.0000E+00  0.0000E+00  0.5051E-01  0.5051E-01
    -21.893  0.0000E+00  0.0000E+00  0.5051E-01  0.5051E-01
    -21.739  0.0000E+00  0.0000E+00  0.5051E-01  0.5051E-01
    -21.585  0.0000E+00  0.0000E+00  0.5051E-01  0.5051E-01
    -21.431  0.0000E+00  0.0000E+00  0.5051E-01  0.5051E-01
    -21.277  0.0000E+00  0.0000E+00  0.5051E-01  0.5051E-01
    -21.123  0.0000E+00  0.0000E+00  0.5051E-01  0.5051E-01
    -20.970  0.0000E+00  0.0000E+00  0.5051E-01  0.5051E-01
    -20.816  0.0000E+00  0.0000E+00  0.5051E-01  0.5051E-01
    -20.662  0.0000E+00  0.0000E+00  0.5051E-01  0.5051E-01
    -20.508  0.0000E+00  0.0000E+00  0.5051E-01  0.5051E-01
    -20.354  0.0000E+00  0.0000E+00  0.5051E-01  0.5051E-01
    -20.200  0.0000E+00  0.0000E+00  0.5051E-01  0.5051E-01
    -20.046  0.0000E+00  0.0000E+00  0.5051E-01  0.5051E-01
    -19.892  0.0000E+00  0.0000E+00  0.5051E-01  0.5051E-01
    -19.738  0.0000E+00  0.0000E+00  0.5051E-01  0.5051E-01
    -19.585  0.0000E+00  0.0000E+00  0.5051E-01  0.5051E-01
    -19.431  0.0000E+00  0.0000E+00  0.5051E-01  0.5051E-01
    -19.277  0.0000E+00  0.0000E+00  0.5051E-01  0.5051E-01
    -19.123  0.0000E+00  0.0000E+00  0.5051E-01  0.5051E-01
    -18.969  0.0000E+00  0.0000E+00  0.5051E-01  0.5051E-01
    -18.815  0.0000E+00  0.0000E+00  0.5051E-01  0.5051E-01
    -18.661  0.0000E+00  0.0000E+00  0.5051E-01  0.5051E-01
    -18.507  0.0000E+00  0.0000E+00  0.5051E-01  0.5051E-01
    -18.353  0.0000E+00  0.0000E+00  0.5051E-01  0.5051E-01
    -18.200  0.0000E+00  0.0000E+00  0.5051E-01  0.5051E-01
    -18.046  0.0000E+00  0.0000E+00  0.5051E-01  0.5051E-01
    -17.892  0.0000E+00  0.0000E+00  0.5051E-01  0.5051E-01
    -17.738  0.0000E+00  0.0000E+00  0.5051E-01  0.5051E-01
    -17.584  0.0000E+00  0.0000E+00  0.5051E-01  0.5051E-01
    -17.430  0.0000E+00  0.0000E+00  0.5051E-01  0.5051E-01
    -17.276  0.0000E+00  0.0000E+00  0.5051E-01  0.5051E-01
    -17.122  0.0000E+00  0.0000E+00  0.5051E-01  0.5051E-01
    -16.968  0.0000E+00  0.0000E+00  0.5051E-01  0.5051E-01
    -16.814  0.0000E+00  0.0000E+00  0.5051E-01  0.5051E-01
    -16.661  0.6511E-01  0.1304E+00  0.6032E-01  0.5989E-01
    -16.507  0.0000E+00  0.0000E+00  0.8081E-01  0.8081E-01
    -16.353  0.0000E+00  0.0000E+00  0.8081E-01  0.8081E-01
    -16.199  0.0000E+00  0.0000E+00  0.8081E-01  0.8081E-01
    -16.045  0.5778E-01  0.9574E+00  0.1010E+00  0.9395E-01
    -15.891  0.0000E+00  0.0000E+00  0.1111E+00  0.1111E+00
    -15.737  0.0000E+00  0.0000E+00  0.1111E+00  0.1111E+00
    -15.583  0.0000E+00  0.0000E+00  0.1111E+00  0.1111E+00
    -15.429  0.0000E+00  0.0000E+00  0.1111E+00  0.1111E+00
    -15.276  0.0000E+00  0.0000E+00  0.1111E+00  0.1111E+00
    -15.122  0.0000E+00  0.0000E+00  0.1111E+00  0.1111E+00
    -14.968  0.0000E+00  0.0000E+00  0.1111E+00  0.1111E+00
    -14.814  0.0000E+00  0.0000E+00  0.1111E+00  0.1111E+00
    -14.660  0.0000E+00  0.0000E+00  0.1111E+00  0.1111E+00
    -14.506  0.0000E+00  0.0000E+00  0.1111E+00  0.1111E+00
    -14.352  0.0000E+00  0.0000E+00  0.1111E+00  0.1111E+00
    -14.198  0.0000E+00  0.0000E+00  0.1111E+00  0.1111E+00
    -14.044  0.0000E+00  0.0000E+00  0.1111E+00  0.1111E+00
    -13.891  0.0000E+00  0.0000E+00  0.1111E+00  0.1111E+00
    -13.737  0.0000E+00  0.0000E+00  0.1111E+00  0.1111E+00
    -13.583  0.0000E+00  0.0000E+00  0.1111E+00  0.1111E+00
    -13.429  0.0000E+00  0.0000E+00  0.1111E+00  0.1111E+00
    -13.275  0.0000E+00  0.0000E+00  0.1111E+00  0.1111E+00
    -13.121  0.0000E+00  0.0000E+00  0.1111E+00  0.1111E+00
    -12.967  0.0000E+00  0.0000E+00  0.1111E+00  0.1111E+00
    -12.813  0.0000E+00  0.0000E+00  0.1111E+00  0.1111E+00
    -12.659  0.0000E+00  0.0000E+00  0.1111E+00  0.1111E+00
    -12.506  0.0000E+00  0.0000E+00  0.1111E+00  0.1111E+00
    -12.352  0.0000E+00  0.0000E+00  0.1111E+00  0.1111E+00
    -12.198  0.0000E+00  0.0000E+00  0.1111E+00  0.1111E+00
    -12.044  0.0000E+00  0.0000E+00  0.1111E+00  0.1111E+00
    -11.890  0.0000E+00  0.0000E+00  0.1111E+00  0.1111E+00
    -11.736  0.0000E+00  0.0000E+00  0.1111E+00  0.1111E+00
    -11.582  0.0000E+00  0.0000E+00  0.1111E+00  0.1111E+00
    -11.428  0.0000E+00  0.0000E+00  0.1111E+00  0.1111E+00
    -11.274  0.0000E+00  0.0000E+00  0.1111E+00  0.1111E+00
    -11.121  0.0000E+00  0.0000E+00  0.1111E+00  0.1111E+00
    -10.967  0.0000E+00  0.0000E+00  0.1111E+00  0.1111E+00
    -10.813  0.0000E+00  0.0000E+00  0.1111E+00  0.1111E+00
    -10.659  0.0000E+00  0.0000E+00  0.1111E+00  0.1111E+00
    -10.505  0.0000E+00  0.0000E+00  0.1111E+00  0.1111E+00
    -10.351  0.0000E+00  0.0000E+00  0.1111E+00  0.1111E+00
    -10.197  0.0000E+00  0.0000E+00  0.1111E+00  0.1111E+00
    -10.043  0.0000E+00  0.0000E+00  0.1111E+00  0.1111E+00
     -9.889  0.0000E+00  0.0000E+00  0.1111E+00  0.1111E+00
     -9.735  0.0000E+00  0.0000E+00  0.1111E+00  0.1111E+00
     -9.582  0.0000E+00  0.0000E+00  0.1111E+00  0.1111E+00
     -9.428  0.0000E+00  0.0000E+00  0.1111E+00  0.1111E+00
     -9.274  0.0000E+00  0.0000E+00  0.1111E+00  0.1111E+00
     -9.120  0.0000E+00  0.0000E+00  0.1111E+00  0.1111E+00
     -8.966  0.0000E+00  0.0000E+00  0.1111E+00  0.1111E+00
     -8.812  0.0000E+00  0.0000E+00  0.1111E+00  0.1111E+00
     -8.658  0.0000E+00  0.0000E+00  0.1111E+00  0.1111E+00
     -8.504  0.0000E+00  0.0000E+00  0.1111E+00  0.1111E+00
     -8.350  0.0000E+00  0.0000E+00  0.1111E+00  0.1111E+00
     -8.197  0.0000E+00  0.0000E+00  0.1111E+00  0.1111E+00
     -8.043  0.0000E+00  0.0000E+00  0.1111E+00  0.1111E+00
     -7.889  0.0000E+00  0.0000E+00  0.1111E+00  0.1111E+00
     -7.735  0.0000E+00  0.0000E+00  0.1111E+00  0.1111E+00
     -7.581  0.0000E+00  0.0000E+00  0.1111E+00  0.1111E+00
     -7.427  0.0000E+00  0.0000E+00  0.1111E+00  0.1111E+00
     -7.273  0.0000E+00  0.0000E+00  0.1111E+00  0.1111E+00
     -7.119  0.0000E+00  0.0000E+00  0.1111E+00  0.1111E+00
     -6.965  0.0000E+00  0.0000E+00  0.1111E+00  0.1111E+00
     -6.812  0.0000E+00  0.0000E+00  0.1111E+00  0.1111E+00
     -6.658  0.0000E+00  0.0000E+00  0.1111E+00  0.1111E+00
     -6.504  0.0000E+00  0.0000E+00  0.1111E+00  0.1111E+00
     -6.350  0.9300E-03  0.1601E-03  0.1112E+00  0.1111E+00
     -6.196  0.5596E-02  0.2558E-02  0.1116E+00  0.1113E+00
     -6.042  0.8650E-02  0.7046E-02  0.1126E+00  0.1121E+00
     -5.888  0.1945E-01  0.1383E-01  0.1146E+00  0.1136E+00
     -5.734  0.4285E-01  0.3581E-01  0.1192E+00  0.1170E+00
     -5.580  0.0000E+00  0.0000E+00  0.1212E+00  0.1212E+00
     -5.427  0.0000E+00  0.0000E+00  0.1212E+00  0.1212E+00
     -5.273  0.0000E+00  0.0000E+00  0.1212E+00  0.1212E+00
     -5.119  0.0000E+00  0.0000E+00  0.1212E+00  0.1212E+00
     -4.965  0.0000E+00  0.0000E+00  0.1212E+00  0.1212E+00
     -4.811  0.0000E+00  0.0000E+00  0.1212E+00  0.1212E+00
     -4.657  0.5550E-02  0.0000E+00  0.1213E+00  0.1212E+00
     -4.503  0.2247E-01  0.1236E-01  0.1236E+00  0.1218E+00
     -4.349  0.2370E-01  0.2457E-01  0.1272E+00  0.1249E+00
     -4.195  0.1610E-01  0.2405E-01  0.1306E+00  0.1288E+00
     -4.042  0.0000E+00  0.1256E-02  0.1313E+00  0.1313E+00
     -3.888  0.0000E+00  0.0000E+00  0.1313E+00  0.1313E+00
     -3.734  0.0000E+00  0.0000E+00  0.1313E+00  0.1313E+00
     -3.580  0.0000E+00  0.0000E+00  0.1313E+00  0.1313E+00
     -3.426  0.0000E+00  0.0000E+00  0.1313E+00  0.1313E+00
     -3.272  0.0000E+00  0.0000E+00  0.1313E+00  0.1313E+00
     -3.118  0.2035E-01  0.1289E-01  0.1325E+00  0.1318E+00
     -2.964  0.4823E-01  0.3796E-01  0.1379E+00  0.1360E+00
     -2.810  0.6743E-03  0.8496E-02  0.1414E+00  0.1413E+00
     -2.656  0.2897E-01  0.1841E-01  0.1436E+00  0.1421E+00
     -2.503  0.2555E-01  0.3015E-01  0.1484E+00  0.1464E+00
     -2.349  0.1336E-01  0.1953E-01  0.1511E+00  0.1501E+00
     -2.195  0.3580E-01  0.2492E-01  0.1551E+00  0.1527E+00
     -2.041  0.2314E-01  0.4590E-01  0.1612E+00  0.1582E+00
     -1.887  0.5473E-01  0.6249E-01  0.1693E+00  0.1644E+00
     -1.733  0.8556E-01  0.1708E-01  0.1745E+00  0.1714E+00
     -1.579  0.0000E+00  0.7251E-01  0.1818E+00  0.1797E+00
     -1.425  0.6421E-01  0.2419E-01  0.1871E+00  0.1823E+00
     -1.271  0.7505E-03  0.4882E-01  0.1919E+00  0.1899E+00
     -1.118  0.4651E-01  0.4310E-02  0.1950E+00  0.1920E+00
     -0.964  0.2117E-01  0.3714E-01  0.2009E+00  0.1964E+00
     -0.810  0.0000E+00  0.1655E-01  0.2020E+00  0.2013E+00
     -0.656  0.0000E+00  0.0000E+00  0.2020E+00  0.2020E+00
     -0.502  0.0000E+00  0.0000E+00  0.2020E+00  0.2020E+00
     -0.348  0.0000E+00  0.0000E+00  0.2020E+00  0.2020E+00
     -0.194  0.0000E+00  0.0000E+00  0.2020E+00  0.2020E+00
     -0.040  0.0000E+00  0.0000E+00  0.2020E+00  0.2020E+00
      0.114  0.0000E+00  0.0000E+00  0.2020E+00  0.2020E+00
      0.267  0.0000E+00  0.0000E+00  0.2020E+00  0.2020E+00
      0.421  0.0000E+00  0.0000E+00  0.2020E+00  0.2020E+00
      0.575  0.0000E+00  0.0000E+00  0.2020E+00  0.2020E+00
      0.729  0.0000E+00  0.0000E+00  0.2020E+00  0.2020E+00
      0.883  0.0000E+00  0.0000E+00  0.2020E+00  0.2020E+00
      1.037  0.2411E-01  0.0000E+00  0.2029E+00  0.2020E+00
      1.191  0.4537E-01  0.0000E+00  0.2088E+00  0.2020E+00
      1.345  0.0000E+00  0.0000E+00  0.2121E+00  0.2020E+00
      1.499  0.0000E+00  0.0000E+00  0.2121E+00  0.2020E+00
      1.652  0.0000E+00  0.0000E+00  0.2121E+00  0.2020E+00
      1.806  0.0000E+00  0.0000E+00  0.2121E+00  0.2020E+00
      1.960  0.0000E+00  0.1411E-02  0.2121E+00  0.2020E+00
      2.114  0.0000E+00  0.2655E-01  0.2121E+00  0.2048E+00
      2.268  0.0000E+00  0.3166E-01  0.2121E+00  0.2093E+00
      2.422  0.0000E+00  0.0000E+00  0.2121E+00  0.2121E+00
      2.576  0.0000E+00  0.0000E+00  0.2121E+00  0.2121E+00
      2.730  0.0000E+00  0.0000E+00  0.2121E+00  0.2121E+00
      2.884  0.3617E-02  0.6893E-03  0.2124E+00  0.2121E+00
      3.037  0.1174E-01  0.3995E-02  0.2134E+00  0.2125E+00
      3.191  0.5770E-01  0.1208E-01  0.2180E+00  0.2136E+00
      3.345  0.3412E-01  0.5507E-01  0.2232E+00  0.2181E+00
      3.499  0.2794E-01  0.2792E-01  0.2295E+00  0.2226E+00
      3.653  0.4574E-01  0.3758E-01  0.2346E+00  0.2288E+00
      3.807  0.1713E-01  0.4635E-01  0.2406E+00  0.2348E+00
      3.961  0.1907E-01  0.1595E-01  0.2427E+00  0.2409E+00
      4.115  0.3782E-01  0.1681E-01  0.2484E+00  0.2427E+00
      4.269  0.1274E-01  0.3700E-01  0.2518E+00  0.2477E+00
      4.423  0.4513E-01  0.1465E-01  0.2546E+00  0.2515E+00
      4.576  0.2265E-01  0.3660E-01  0.2611E+00  0.2542E+00
      4.730  0.1673E-01  0.2279E-01  0.2632E+00  0.2608E+00
      4.884  0.3129E-01  0.1513E-01  0.2668E+00  0.2632E+00
      5.038  0.2239E-01  0.3112E-01  0.2717E+00  0.2667E+00
      5.192  0.2033E-01  0.2590E-01  0.2739E+00  0.2716E+00
      5.346  0.2839E-01  0.1847E-01  0.2774E+00  0.2743E+00
      5.500  0.2826E-01  0.3052E-01  0.2818E+00  0.2781E+00
      5.654  0.3081E-01  0.1518E-01  0.2852E+00  0.2826E+00
      5.808  0.2632E-01  0.3146E-01  0.2896E+00  0.2861E+00
      5.961  0.1621E-01  0.2546E-01  0.2933E+00  0.2903E+00
      6.115  0.2653E-01  0.1651E-01  0.2961E+00  0.2939E+00
      6.269  0.2503E-01  0.3519E-01  0.3009E+00  0.2975E+00
      6.423  0.1445E-01  0.1555E-01  0.3034E+00  0.3019E+00
      6.577  0.2848E-01  0.1789E-01  0.3066E+00  0.3042E+00
      6.731  0.2385E-01  0.3444E-01  0.3113E+00  0.3083E+00
      6.885  0.1588E-01  0.1152E-01  0.3136E+00  0.3126E+00
      7.039  0.3423E-01  0.3712E-01  0.3193E+00  0.3150E+00
      7.193  0.8699E-02  0.3021E-01  0.3229E+00  0.3211E+00
      7.346  0.0000E+00  0.1038E-02  0.3232E+00  0.3232E+00
      7.500  0.0000E+00  0.0000E+00  0.3232E+00  0.3232E+00
      7.654  0.0000E+00  0.0000E+00  0.3232E+00  0.3232E+00
      7.808  0.0000E+00  0.0000E+00  0.3232E+00  0.3232E+00
      7.962  0.0000E+00  0.0000E+00  0.3232E+00  0.3232E+00
      8.116  0.0000E+00  0.0000E+00  0.3232E+00  0.3232E+00
      8.270  0.0000E+00  0.0000E+00  0.3232E+00  0.3232E+00
      8.424  0.0000E+00  0.0000E+00  0.3232E+00  0.3232E+00
      8.578  0.0000E+00  0.0000E+00  0.3232E+00  0.3232E+00
      8.731  0.0000E+00  0.0000E+00  0.3232E+00  0.3232E+00
      8.885  0.0000E+00  0.0000E+00  0.3232E+00  0.3232E+00
      9.039  0.0000E+00  0.0000E+00  0.3232E+00  0.3232E+00
      9.193  0.0000E+00  0.0000E+00  0.3232E+00  0.3232E+00
      9.347  0.0000E+00  0.0000E+00  0.3232E+00  0.3232E+00
      9.501  0.0000E+00  0.0000E+00  0.3232E+00  0.3232E+00
      9.50091864    -36.66646579  301      1.38315355      1.00000000
    -36.666  0.0000E+00  0.0000E+00  0.0000E+00  0.0000E+00  0.0000E+00  0.0000E+00  0.0000E+00  0.0000E+00  0.0000E+00  0.0000E+00  0.0000E+00  0.0000E+00  0.0000E+00  0.0000E+00  0.0000E+00  0.0000E+00  0.0000E+00  0.0000E+00
    -36.513  0.0000E+00  0.0000E+00  0.0000E+00  0.0000E+00  0.0000E+00  0.0000E+00  0.0000E+00  0.0000E+00  0.0000E+00  0.0000E+00  0.0000E+00  0.0000E+00  0.0000E+00  0.0000E+00  0.0000E+00  0.0000E+00  0.0000E+00  0.0000E+00
    -36.359  0.0000E+00  0.0000E+00  0.0000E+00  0.0000E+00  0.0000E+00  0.0000E+00  0.0000E+00  0.0000E+00  0.0000E+00  0.0000E+00  0.0000E+00  0.0000E+00  0.0000E+00  0.0000E+00  0.0000E+00  0.0000E+00  0.0000E+00  0.0000E+00
    -36.205  0.0000E+00  0.0000E+00  0.0000E+00  0.0000E+00  0.0000E+00  0.0000E+00  0.0000E+00  0.0000E+00  0.0000E+00  0.0000E+00  0.0000E+00  0.0000E+00  0.0000E+00  0.0000E+00  0.0000E+00  0.0000E+00  0.0000E+00  0.0000E+00
    -36.051  0.0000E+00  0.0000E+00  0.0000E+00  0.0000E+00  0.0000E+00  0.0000E+00  0.0000E+00  0.0000E+00  0.0000E+00  0.0000E+00  0.0000E+00  0.0000E+00  0.0000E+00  0.0000E+00  0.0000E+00  0.0000E+00  0.0000E+00  0.0000E+00
    -35.897  0.0000E+00  0.0000E+00  0.0000E+00  0.0000E+00  0.0000E+00  0.0000E+00  0.0000E+00  0.0000E+00  0.0000E+00  0.0000E+00  0.0000E+00  0.0000E+00  0.0000E+00  0.0000E+00  0.0000E+00  0.0000E+00  0.0000E+00  0.0000E+00
    -35.743  0.0000E+00  0.0000E+00  0.0000E+00  0.0000E+00  0.0000E+00  0.0000E+00  0.0000E+00  0.0000E+00  0.0000E+00  0.0000E+00  0.0000E+00  0.0000E+00  0.0000E+00  0.0000E+00  0.0000E+00  0.0000E+00  0.0000E+00  0.0000E+00
    -35.589  0.0000E+00  0.0000E+00  0.0000E+00  0.0000E+00  0.0000E+00  0.0000E+00  0.0000E+00  0.0000E+00  0.0000E+00  0.0000E+00  0.0000E+00  0.0000E+00  0.0000E+00  0.0000E+00  0.0000E+00  0.0000E+00  0.0000E+00  0.0000E+00
    -35.435  0.0000E+00  0.0000E+00  0.0000E+00  0.0000E+00  0.0000E+00  0.0000E+00  0.0000E+00  0.0000E+00  0.0000E+00  0.0000E+00  0.0000E+00  0.0000E+00  0.0000E+00  0.0000E+00  0.0000E+00  0.0000E+00  0.0000E+00  0.0000E+00
    -35.281  0.0000E+00  0.0000E+00  0.0000E+00  0.0000E+00  0.0000E+00  0.0000E+00  0.0000E+00  0.0000E+00  0.0000E+00  0.0000E+00  0.0000E+00  0.0000E+00  0.0000E+00  0.0000E+00  0.0000E+00  0.0000E+00  0.0000E+00  0.0000E+00
    -35.128  0.0000E+00  0.0000E+00  0.0000E+00  0.0000E+00  0.0000E+00  0.0000E+00  0.0000E+00  0.0000E+00  0.0000E+00  0.0000E+00  0.0000E+00  0.0000E+00  0.0000E+00  0.0000E+00  0.0000E+00  0.0000E+00  0.0000E+00  0.0000E+00
    -34.974  0.0000E+00  0.0000E+00  0.0000E+00  0.0000E+00  0.0000E+00  0.0000E+00  0.0000E+00  0.0000E+00  0.0000E+00  0.0000E+00  0.0000E+00  0.0000E+00  0.0000E+00  0.0000E+00  0.0000E+00  0.0000E+00  0.0000E+00  0.0000E+00
    -34.820  0.0000E+00  0.0000E+00  0.0000E+00  0.0000E+00  0.0000E+00  0.0000E+00  0.0000E+00  0.0000E+00  0.0000E+00  0.0000E+00  0.0000E+00  0.0000E+00  0.0000E+00  0.0000E+00  0.0000E+00  0.0000E+00  0.0000E+00  0.0000E+00
    -34.666  0.0000E+00  0.0000E+00  0.0000E+00  0.0000E+00  0.0000E+00  0.0000E+00  0.0000E+00  0.0000E+00  0.0000E+00  0.0000E+00  0.0000E+00  0.0000E+00  0.0000E+00  0.0000E+00  0.0000E+00  0.0000E+00  0.0000E+00  0.0000E+00
    -34.512  0.0000E+00  0.0000E+00  0.0000E+00  0.0000E+00  0.0000E+00  0.0000E+00  0.0000E+00  0.0000E+00  0.0000E+00  0.0000E+00  0.0000E+00  0.0000E+00  0.0000E+00  0.0000E+00  0.0000E+00  0.0000E+00  0.0000E+00  0.0000E+00
    -34.358  0.0000E+00  0.0000E+00  0.0000E+00  0.0000E+00  0.0000E+00  0.0000E+00  0.0000E+00  0.0000E+00  0.0000E+00  0.0000E+00  0.0000E+00  0.0000E+00  0.0000E+00  0.0000E+00  0.0000E+00  0.0000E+00  0.0000E+00  0.0000E+00
    -34.204  0.0000E+00  0.0000E+00  0.0000E+00  0.0000E+00  0.0000E+00  0.0000E+00  0.0000E+00  0.0000E+00  0.0000E+00  0.0000E+00  0.0000E+00  0.0000E+00  0.0000E+00  0.0000E+00  0.0000E+00  0.0000E+00  0.0000E+00  0.0000E+00
    -34.050  0.0000E+00  0.0000E+00  0.0000E+00  0.0000E+00  0.0000E+00  0.0000E+00  0.0000E+00  0.0000E+00  0.0000E+00  0.0000E+00  0.0000E+00  0.0000E+00  0.0000E+00  0.0000E+00  0.0000E+00  0.0000E+00  0.0000E+00  0.0000E+00
    -33.896  0.0000E+00  0.0000E+00  0.0000E+00  0.0000E+00  0.0000E+00  0.0000E+00  0.0000E+00  0.0000E+00  0.0000E+00  0.0000E+00  0.0000E+00  0.0000E+00  0.0000E+00  0.0000E+00  0.0000E+00  0.0000E+00  0.0000E+00  0.0000E+00
    -33.743  0.0000E+00  0.0000E+00  0.0000E+00  0.0000E+00  0.0000E+00  0.0000E+00  0.0000E+00  0.0000E+00  0.0000E+00  0.0000E+00  0.0000E+00  0.0000E+00  0.0000E+00  0.0000E+00  0.0000E+00  0.0000E+00  0.0000E+00  0.0000E+00
    -33.589  0.0000E+00  0.0000E+00  0.0000E+00  0.0000E+00  0.0000E+00  0.0000E+00  0.0000E+00  0.0000E+00  0.0000E+00  0.0000E+00  0.0000E+00  0.0000E+00  0.0000E+00  0.0000E+00  0.0000E+00  0.0000E+00  0.0000E+00  0.0000E+00
    -33.435  0.0000E+00  0.0000E+00  0.0000E+00  0.0000E+00  0.0000E+00  0.0000E+00  0.0000E+00  0.0000E+00  0.0000E+00  0.0000E+00  0.0000E+00  0.0000E+00  0.0000E+00  0.0000E+00  0.0000E+00  0.0000E+00  0.0000E+00  0.0000E+00
    -33.281  0.0000E+00  0.0000E+00  0.0000E+00  0.0000E+00  0.0000E+00  0.0000E+00  0.0000E+00  0.0000E+00  0.0000E+00  0.0000E+00  0.0000E+00  0.0000E+00  0.0000E+00  0.0000E+00  0.0000E+00  0.0000E+00  0.0000E+00  0.0000E+00
    -33.127  0.0000E+00  0.0000E+00  0.0000E+00  0.0000E+00  0.0000E+00  0.0000E+00  0.0000E+00  0.0000E+00  0.0000E+00  0.0000E+00  0.0000E+00  0.0000E+00  0.0000E+00  0.0000E+00  0.0000E+00  0.0000E+00  0.0000E+00  0.0000E+00
    -32.973  0.0000E+00  0.0000E+00  0.0000E+00  0.0000E+00  0.0000E+00  0.0000E+00  0.0000E+00  0.0000E+00  0.0000E+00  0.0000E+00  0.0000E+00  0.0000E+00  0.0000E+00  0.0000E+00  0.0000E+00  0.0000E+00  0.0000E+00  0.0000E+00
    -32.819  0.0000E+00  0.0000E+00  0.0000E+00  0.0000E+00  0.0000E+00  0.0000E+00  0.0000E+00  0.0000E+00  0.0000E+00  0.0000E+00  0.0000E+00  0.0000E+00  0.0000E+00  0.0000E+00  0.0000E+00  0.0000E+00  0.0000E+00  0.0000E+00
    -32.665  0.0000E+00  0.0000E+00  0.0000E+00  0.0000E+00  0.0000E+00  0.0000E+00  0.0000E+00  0.0000E+00  0.0000E+00  0.0000E+00  0.0000E+00  0.0000E+00  0.0000E+00  0.0000E+00  0.0000E+00  0.0000E+00  0.0000E+00  0.0000E+00
    -32.511  0.0000E+00  0.0000E+00  0.0000E+00  0.0000E+00  0.0000E+00  0.0000E+00  0.0000E+00  0.0000E+00  0.0000E+00  0.0000E+00  0.0000E+00  0.0000E+00  0.0000E+00  0.0000E+00  0.0000E+00  0.0000E+00  0.0000E+00  0.0000E+00
    -32.358  0.0000E+00  0.0000E+00  0.0000E+00  0.0000E+00  0.0000E+00  0.0000E+00  0.0000E+00  0.0000E+00  0.0000E+00  0.0000E+00  0.0000E+00  0.0000E+00  0.0000E+00  0.0000E+00  0.0000E+00  0.0000E+00  0.0000E+00  0.0000E+00
    -32.204  0.0000E+00  0.0000E+00  0.0000E+00  0.0000E+00  0.0000E+00  0.0000E+00  0.0000E+00  0.0000E+00  0.0000E+00  0.0000E+00  0.0000E+00  0.0000E+00  0.0000E+00  0.0000E+00  0.0000E+00  0.0000E+00  0.0000E+00  0.0000E+00
    -32.050  0.0000E+00  0.0000E+00  0.0000E+00  0.0000E+00  0.0000E+00  0.0000E+00  0.0000E+00  0.0000E+00  0.0000E+00  0.0000E+00  0.0000E+00  0.0000E+00  0.0000E+00  0.0000E+00  0.0000E+00  0.0000E+00  0.0000E+00  0.0000E+00
    -31.896  0.0000E+00  0.0000E+00  0.0000E+00  0.0000E+00  0.0000E+00  0.0000E+00  0.0000E+00  0.0000E+00  0.0000E+00  0.0000E+00  0.0000E+00  0.0000E+00  0.0000E+00  0.0000E+00  0.0000E+00  0.0000E+00  0.0000E+00  0.0000E+00
    -31.742  0.0000E+00  0.0000E+00  0.0000E+00  0.0000E+00  0.0000E+00  0.0000E+00  0.0000E+00  0.0000E+00  0.0000E+00  0.0000E+00  0.0000E+00  0.0000E+00  0.0000E+00  0.0000E+00  0.0000E+00  0.0000E+00  0.0000E+00  0.0000E+00
    -31.588  0.0000E+00  0.0000E+00  0.0000E+00  0.0000E+00  0.0000E+00  0.0000E+00  0.0000E+00  0.0000E+00  0.0000E+00  0.0000E+00  0.0000E+00  0.0000E+00  0.0000E+00  0.0000E+00  0.0000E+00  0.0000E+00  0.0000E+00  0.0000E+00
    -31.434  0.0000E+00  0.0000E+00  0.0000E+00  0.0000E+00  0.0000E+00  0.0000E+00  0.0000E+00  0.0000E+00  0.0000E+00  0.0000E+00  0.0000E+00  0.0000E+00  0.0000E+00  0.0000E+00  0.0000E+00  0.0000E+00  0.0000E+00  0.0000E+00
    -31.280  0.0000E+00  0.0000E+00  0.0000E+00  0.0000E+00  0.0000E+00  0.0000E+00  0.0000E+00  0.0000E+00  0.0000E+00  0.0000E+00  0.0000E+00  0.0000E+00  0.0000E+00  0.0000E+00  0.0000E+00  0.0000E+00  0.0000E+00  0.0000E+00
    -31.126  0.0000E+00  0.0000E+00  0.0000E+00  0.0000E+00  0.0000E+00  0.0000E+00  0.0000E+00  0.0000E+00  0.0000E+00  0.0000E+00  0.0000E+00  0.0000E+00  0.0000E+00  0.0000E+00  0.0000E+00  0.0000E+00  0.0000E+00  0.0000E+00
    -30.972  0.0000E+00  0.0000E+00  0.0000E+00  0.0000E+00  0.0000E+00  0.0000E+00  0.0000E+00  0.0000E+00  0.0000E+00  0.0000E+00  0.0000E+00  0.0000E+00  0.0000E+00  0.0000E+00  0.0000E+00  0.0000E+00  0.0000E+00  0.0000E+00
    -30.819  0.0000E+00  0.0000E+00  0.0000E+00  0.0000E+00  0.0000E+00  0.0000E+00  0.0000E+00  0.0000E+00  0.0000E+00  0.0000E+00  0.0000E+00  0.0000E+00  0.0000E+00  0.0000E+00  0.0000E+00  0.0000E+00  0.0000E+00  0.0000E+00
    -30.665  0.0000E+00  0.0000E+00  0.0000E+00  0.0000E+00  0.0000E+00  0.0000E+00  0.0000E+00  0.0000E+00  0.0000E+00  0.0000E+00  0.0000E+00  0.0000E+00  0.0000E+00  0.0000E+00  0.0000E+00  0.0000E+00  0.0000E+00  0.0000E+00
    -30.511  0.0000E+00  0.0000E+00  0.0000E+00  0.0000E+00  0.0000E+00  0.0000E+00  0.0000E+00  0.0000E+00  0.0000E+00  0.0000E+00  0.0000E+00  0.0000E+00  0.0000E+00  0.0000E+00  0.0000E+00  0.0000E+00  0.0000E+00  0.0000E+00
    -30.357  0.0000E+00  0.0000E+00  0.0000E+00  0.0000E+00  0.0000E+00  0.0000E+00  0.0000E+00  0.0000E+00  0.0000E+00  0.0000E+00  0.0000E+00  0.0000E+00  0.0000E+00  0.0000E+00  0.0000E+00  0.0000E+00  0.0000E+00  0.0000E+00
    -30.203  0.0000E+00  0.0000E+00  0.0000E+00  0.0000E+00  0.0000E+00  0.0000E+00  0.0000E+00  0.0000E+00  0.0000E+00  0.0000E+00  0.0000E+00  0.0000E+00  0.0000E+00  0.0000E+00  0.0000E+00  0.0000E+00  0.0000E+00  0.0000E+00
    -30.049  0.0000E+00  0.0000E+00  0.0000E+00  0.0000E+00  0.0000E+00  0.0000E+00  0.0000E+00  0.0000E+00  0.0000E+00  0.0000E+00  0.0000E+00  0.0000E+00  0.0000E+00  0.0000E+00  0.0000E+00  0.0000E+00  0.0000E+00  0.0000E+00
    -29.895  0.0000E+00  0.0000E+00  0.0000E+00  0.0000E+00  0.0000E+00  0.0000E+00  0.0000E+00  0.0000E+00  0.0000E+00  0.0000E+00  0.0000E+00  0.0000E+00  0.0000E+00  0.0000E+00  0.0000E+00  0.0000E+00  0.0000E+00  0.0000E+00
    -29.741  0.0000E+00  0.0000E+00  0.0000E+00  0.0000E+00  0.0000E+00  0.0000E+00  0.0000E+00  0.0000E+00  0.0000E+00  0.0000E+00  0.0000E+00  0.0000E+00  0.0000E+00  0.0000E+00  0.0000E+00  0.0000E+00  0.0000E+00  0.0000E+00
    -29.587  0.0000E+00  0.0000E+00  0.0000E+00  0.0000E+00  0.0000E+00  0.0000E+00  0.0000E+00  0.0000E+00  0.0000E+00  0.0000E+00  0.0000E+00  0.0000E+00  0.0000E+00  0.0000E+00  0.0000E+00  0.0000E+00  0.0000E+00  0.0000E+00
    -29.434  0.0000E+00  0.0000E+00  0.0000E+00  0.0000E+00  0.0000E+00  0.0000E+00  0.0000E+00  0.0000E+00  0.0000E+00  0.0000E+00  0.0000E+00  0.0000E+00  0.0000E+00  0.0000E+00  0.0000E+00  0.0000E+00  0.0000E+00  0.0000E+00
    -29.280  0.0000E+00  0.0000E+00  0.0000E+00  0.0000E+00  0.0000E+00  0.0000E+00  0.0000E+00  0.0000E+00  0.0000E+00  0.0000E+00  0.0000E+00  0.0000E+00  0.0000E+00  0.0000E+00  0.0000E+00  0.0000E+00  0.0000E+00  0.0000E+00
    -29.126  0.0000E+00  0.0000E+00  0.0000E+00  0.0000E+00  0.0000E+00  0.0000E+00  0.0000E+00  0.0000E+00  0.0000E+00  0.0000E+00  0.0000E+00  0.0000E+00  0.0000E+00  0.0000E+00  0.0000E+00  0.0000E+00  0.0000E+00  0.0000E+00
    -28.972  0.0000E+00  0.0000E+00  0.0000E+00  0.0000E+00  0.0000E+00  0.0000E+00  0.0000E+00  0.0000E+00  0.0000E+00  0.0000E+00  0.0000E+00  0.0000E+00  0.0000E+00  0.0000E+00  0.0000E+00  0.0000E+00  0.0000E+00  0.0000E+00