Automatically generated mesh
      42
Reciprocal lattice
    0.00000000000000    0.00000000000000    0.00000000000000             1
    0.25000000000000    0.00000000000000    0.00000000000000             2
    0.50000000000000    0.00000000000000    0.00000000000000             1
    0.00000000000000    0.20000000000000    0.00000000000000             2
    0.25000000000000    0.20000000000000    0.00000000000000             2
    0.50000000000000    0.20000000000000    0.00000000000000             2
   -0.25000000000000    0.20000000000000    0.00000000000000             2
    0.00000000000000    0.40000000000000    0.00000000000000             2
    0.25000000000000    0.40000000000000    0.00000000000000             2
    0.50000000000000    0.40000000000000    0.00000000000000             2
   -0.25000000000000    0.40000000000000    0.00000000000000             2
    0.00000000000000    0.00000000000000    0.25000000000000             2
    0.25000000000000    0.00000000000000    0.25000000000000             2
    0.50000000000000    0.00000000000000    0.25000000000000             2
   -0.25000000000000    0.00000000000000    0.25000000000000             2
    0.00000000000000    0.20000000000000    0.25000000000000             2
    0.25000000000000    0.20000000000000    0.25000000000000             2
    0.50000000000000    0.20000000000000    0.25000000000000             2
   -0.25000000000000    0.20000000000000    0.25000000000000             2
    0.00000000000000    0.40000000000000    0.25000000000000             2
    0.25000000000000    0.40000000000000    0.25000000000000             2
    0.50000000000000    0.40000000000000    0.25000000000000             2
   -0.25000000000000    0.40000000000000    0.25000000000000             2
    0.00000000000000   -0.40000000000000    0.25000000000000             2
    0.25000000000000   -0.40000000000000    0.25000000000000             2
    0.50000000000000   -0.40000000000000    0.25000000000000             2
   -0.25000000000000   -0.40000000000000    0.25000000000000             2
    0.00000000000000   -0.20000000000000    0.25000000000000             2
    0.25000000000000   -0.20000000000000    0.25000000000000             2
    0.50000000000000   -0.20000000000000    0.25000000000000             2
   -0.25000000000000   -0.20000000000000    0.25000000000000             2
    0.00000000000000    0.00000000000000    0.50000000000000             1
    0.25000000000000    0.00000000000000    0.50000000000000             2
    0.50000000000000    0.00000000000000    0.50000000000000             1
    0.00000000000000    0.20000000000000    0.50000000000000             2
    0.25000000000000    0.20000000000000    0.50000000000000             2
    0.50000000000000    0.20000000000000    0.50000000000000             2
   -0.25000000000000    0.20000000000000    0.50000000000000             2
    0.00000000000000    0.40000000000000    0.50000000000000             2
    0.25000000000000    0.40000000000000    0.50000000000000             2
    0.50000000000000    0.40000000000000    0.50000000000000             2
   -0.25000000000000    0.40000000000000    0.50000000000000             2
Tetrahedra
       240    0.00208333333333
         2         1         4         5        17
         2         1         2         5        17
         2         1         2        13        17
         2         1         4        16        17
         2         1        12        16        17
         2         1        12        13        17
         2         2         5         6        18
         2         2         3         6        18
         2         2         3        14        18
         2         2         5        17        18
         2         2        13        17        18
         2         2        13        14        18
         2         3         6         7        19
         2         2         3         7        19
         2         2         3        15        19
         2         3         6        18        19
         2         3        14        18        19
         2         3        14        15        19
         2         2         4         7        16
         2         1         2         4        16
         2         1         2        12        16
         2         2         7        16        19
         2         2        15        16        19
         2         2        12        15        16
         2         4         8         9        21
         2         4         5         9        21
         2         4         5        17        21
         2         4         8        20        21
         2         4        16        20        21
         2         4        16        17        21
         2         5         9        10        22
         2         5         6        10        22
         2         5         6        18        22
         2         5         9        21        22
         2         5        17        21        22
         2         5        17        18        22
         2         6        10        11        23
         2         6         7        11        23
         2         6         7        19        23
         2         6        10        22        23
         2         6        18        22        23
         2         6        18        19        23
         2         7         8        11        20
         2         4         7         8        20
         2         4         7        16        20
         2         7        11        20        23
         2         7        19        20        23
         2         7        16        19        20
         2         8         8        11        25
         2         8         9        11        25
         2         8         9        21        25
         2         8         8        24        25
         2         8        20        24        25
         2         8        20        21        25
         2         9        10        11        26
         2         9        10        10        26
         2         9        10        22        26
         2         9        11        25        26
         2         9        21        25        26
         2         9        21        22        26
         2         9        10        10        27
         2         9        10        11        27
         2        10        11        23        27
         2        10        10        26        27
         2        10        22        26        27
         2        10        22        23        27
         2         8         9        11        24
         2         8         8        11        24
         2         8        11        20        24
         2         9        11        24        27
         2        11        23        24        27
         2        11        20        23        24
         2         4         7         8        29
         2         7         8        11        29
         2         8        11        25        29
         2         4         8        28        29
         2         8        24        28        29
         2         8        24        25        29
         2         6         7        11        30
         2         6        10        11        30
         2        10        11        26        30
         2         7        11        29        30
         2        11        25        29        30
         2        11        25        26        30
         2         5         6        10        31
         2         5         9        10        31
         2         9        10        27        31
         2         6        10        30        31
         2        10        26        30        31
         2        10        26        27        31
         2         4         5         9        28
         2         4         8         9        28
         2         8         9        24        28
         2         5         9        28        31
         2         9        27        28        31
         2         9        24        27        28
         2         1         2         4        13
         2         2         4         7        13
         2         4         7        13        29
         2         1         4        12        13
         2         4        12        13        28
         2         4        13        28        29
         2         2         3         7        14
         2         3         6         7        14
         2         6         7        14        30
         2         2         7        13        14
         2         7        13        14        29
         2         7        14        29        30
         2         2         3         6        15
         2         2         5         6        15
         2         5         6        15        31
         2         3         6        14        15
         2         6        14        15        30
         2         6        15        30        31
         2         1         2         5        12
         2         1         4         5        12
         2         4         5        12        28
         2         2         5        12        15
         2         5        12        15        31
         2         5        12        28        31
         2        12        16        17        36
         2        12        13        17        36
         2        12        13        33        36
         2        12        16        35        36
         2        12        32        35        36
         2        12        32        33        36
         2        13        17        18        37
         2        13        14        18        37
         2        13        14        34        37
         2        13        17        36        37
         2        13        33        36        37
         2        13        33        34        37
         2        14        18        19        38
         2        14        15        19        38
         2        14        15        33        38
         2        14        18        37        38
         2        14        34        37        38
         2        14        33        34        38
         2        15        16        19        35
         2        12        15        16        35
         2        12        15        32        35
         2        15        19        35        38
         2        15        33        35        38
         2        15        32        33        35
         2        16        20        21        40
         2        16        17        21        40
         2        16        17        36        40
         2        16        20        39        40
         2        16        35        39        40
         2        16        35        36        40
         2        17        21        22        41
         2        17        18        22        41
         2        17        18        37        41
         2        17        21        40        41
         2        17        36        40        41
         2        17        36        37        41
         2        18        22        23        42
         2        18        19        23        42
         2        18        19        38        42
         2        18        22        41        42
         2        18        37        41        42
         2        18        37        38        42
         2        19        20        23        39
         2        16        19        20        39
         2        16        19        35        39
         2        19        23        39        42
         2        19        38        39        42
         2        19        35        38        39
         2        20        24        25        42
         2        20        21        25        42
         2        20        21        40        42
         2        20        24        39        42
         2        20        39        39        42
         2        20        39        40        42
         2        21        25        26        41
         2        21        22        26        41
         2        21        22        41        41
         2        21        25        41        42
         2        21        40        41        42
         2        21        40        41        41
         2        22        26        27        40
         2        22        23        27        40
         2        22        23        40        42
         2        22        26        40        41
         2        22        40        41        41
         2        22        40        41        42
         2        23        24        27        39
         2        20        23        24        39
         2        20        23        39        39
         2        23        27        39        40
         2        23        39        40        42
         2        23        39        39        42
         2        24        28        29        38
         2        24        25        29        38
         2        24        25        38        42
         2        24        28        35        38
         2        24        35        38        39
         2        24        38        39        42
         2        25        29        30        37
         2        25        26        30        37
         2        25        26        37        41
         2        25        29        37        38
         2        25        37        38        42
         2        25        37        41        42
         2        26        30        31        36
         2        26        27        31        36
         2        26        27        36        40
         2        26        30        36        37
         2        26        36        37        41
         2        26        36        40        41
         2        27        28        31        35
         2        24        27        28        35
         2        24        27        35        39
         2        27        31        35        36
         2        27        35        36        40
         2        27        35        39        40
         2        12        13        28        33
         2        13        28        29        33
         2        28        29        33        38
         2        12        28        32        33
         2        28        32        33        35
         2        28        33        35        38
         2        13        14        29        34
         2        14        29        30        34
         2        29        30        34        37
         2        13        29        33        34
         2        29        33        34        38
         2        29        34        37        38
         2        14        15        30        33
         2        15        30        31        33
         2        30        31        33        36
         2        14        30        33        34
         2        30        33        34        37
         2        30        33        36        37
         2        12        15        31        32
         2        12        28        31        32
         2        28        31        32        35
         2        15        31        32        33
         2        31        32        33        36
         2        31        32        35        36
