   13   13   99    2
  0.7666662E+01  0.3669619E-09  0.5302508E-09  0.5508578E-09  0.5000000E-15
  1.000000000000000E-004
  CAR 
 unknown system                          
     32     58     32
 
  0.3742002E-15  0.3742002E-15  0.3742002E-15  0.8928571E-02
    1      -34.123938    -34.123937   1.000000   1.000000
    2      -29.786851    -29.786850   1.000000   1.000000
    3      -29.637904    -29.637905   1.000000   1.000000
    4      -29.553618    -29.553619   1.000000   1.000000
    5      -16.187168    -16.187168   1.000000   1.000000
    6      -16.155722    -16.155721   1.000000   1.000000
    7      -15.990165    -15.990168   1.000000   1.000000
    8       -8.409624     -8.409624   1.000000   1.000000
    9       -5.717762     -5.717762   1.000000   1.000000
   10       -4.743306     -4.743305   1.000000   1.000000
   11       -3.109420     -3.109420   1.000000   1.000000
   12       -2.914594     -2.914593   1.000000   1.000000
   13       -2.514534     -2.514534   1.000000   1.000000
   14       -1.996533     -1.996532   1.000000   1.000000
   15       -0.327529     -0.327528   1.000000   1.000000
   16       -0.006722     -0.006722   1.000000   1.000000
   17        2.828713      2.828715   0.000000   0.000000
   18        3.469250      3.469251   0.000000   0.000000
   19        4.549167      4.549167   0.000000   0.000000
   20        4.838689      4.838690   0.000000   0.000000
   21        5.013809      5.013809   0.000000   0.000000
   22        5.581275      5.581275   0.000000   0.000000
   23        6.348740      6.348738   0.000000   0.000000
   24        6.477904      6.477904   0.000000   0.000000
   25        6.733345      6.733343   0.000000   0.000000
   26        7.347424      7.347422   0.000000   0.000000
   27        8.166355      8.166352   0.000000   0.000000
   28        8.374703      8.374705   0.000000   0.000000
   29        9.005781      9.005780   0.000000   0.000000
   30        9.854777      9.854780   0.000000   0.000000
   31       10.452233     10.452225   0.000000   0.000000
   32       10.705478     10.705478   0.000000   0.000000
 
  0.1428571E+00  0.3796876E-15  0.3747003E-15  0.1785714E-01
    1      -34.120095    -34.120094   1.000000   1.000000
    2      -29.788784    -29.788784   1.000000   1.000000
    3      -29.642487    -29.642487   1.000000   1.000000
    4      -29.556774    -29.556774   1.000000   1.000000
    5      -16.177751    -16.177751   1.000000   1.000000
    6      -16.147057    -16.147056   1.000000   1.000000
    7      -16.057292    -16.057295   1.000000   1.000000
    8       -8.267171     -8.267171   1.000000   1.000000
    9       -5.768513     -5.768513   1.000000   1.000000
   10       -4.579541     -4.579541   1.000000   1.000000
   11       -3.054303     -3.054303   1.000000   1.000000
   12       -2.850322     -2.850321   1.000000   1.000000
   13       -2.518197     -2.518197   1.000000   1.000000
   14       -2.037921     -2.037921   1.000000   1.000000
   15       -0.667734     -0.667734   1.000000   1.000000
   16       -0.258686     -0.258686   1.000000   1.000000
   17        3.105867      3.105870   0.000000   0.000000
   18        3.460507      3.460508   0.000000   0.000000
   19        4.396602      4.396602   0.000000   0.000000
   20        4.747880      4.747880   0.000000   0.000000
   21        4.871998      4.871998   0.000000   0.000000
   22        5.742933      5.742933   0.000000   0.000000
   23        6.120622      6.120622   0.000000   0.000000
   24        6.654613      6.654612   0.000000   0.000000
   25        6.976068      6.976067   0.000000   0.000000
   26        7.472120      7.472118   0.000000   0.000000
   27        8.019058      8.019056   0.000000   0.000000
   28        8.437392      8.437391   0.000000   0.000000
   29        8.815693      8.815692   0.000000   0.000000
   30       10.083991     10.083991   0.000000   0.000000
   31       10.441752     10.441753   0.000000   0.000000
   32       10.662306     10.662304   0.000000   0.000000
 
  0.2857143E+00  0.3809886E-15  0.3608225E-15  0.1785714E-01
    1      -34.111448    -34.111447   1.000000   1.000000
    2      -29.794552    -29.794553   1.000000   1.000000
    3      -29.653695    -29.653695   1.000000   1.000000
    4      -29.561402    -29.561403   1.000000   1.000000
    5      -16.204769    -16.204772   1.000000   1.000000
    6      -16.155512    -16.155510   1.000000   1.000000
    7      -16.127168    -16.127167   1.000000   1.000000
    8       -7.896936     -7.896935   1.000000   1.000000
    9       -5.951129     -5.951129   1.000000   1.000000
   10       -4.134915     -4.134915   1.000000   1.000000
   11       -2.952520     -2.952520   1.000000   1.000000
   12       -2.806245     -2.806244   1.000000   1.000000
   13       -2.436701     -2.436701   1.000000   1.000000
   14       -2.133007     -2.133007   1.000000   1.000000
   15       -1.337297     -1.337297   1.000000   1.000000
   16       -0.722783     -0.722783   1.000000   1.000000
   17        3.151344      3.151346   0.000000   0.000000
   18        3.666556      3.666557   0.000000   0.000000
   19        4.068490      4.068490   0.000000   0.000000
   20        4.692950      4.692949   0.000000   0.000000
   21        5.027968      5.027967   0.000000   0.000000
   22        5.779860      5.779860   0.000000   0.000000
   23        6.150227      6.150227   0.000000   0.000000
   24        6.649821      6.649819   0.000000   0.000000
   25        7.156053      7.156052   0.000000   0.000000
   26        7.509485      7.509483   0.000000   0.000000
   27        7.787185      7.787185   0.000000   0.000000
   28        8.615922      8.615921   0.000000   0.000000
   29        8.939823      8.939822   0.000000   0.000000
   30        9.852989      9.852989   0.000000   0.000000
   31       10.573880     10.573880   0.000000   0.000000
   32       10.883356     10.883357   0.000000   0.000000
 
  0.4285714E+00  0.3807718E-15  0.3747003E-15  0.1785714E-01
    1      -34.104484    -34.104483   1.000000   1.000000
    2      -29.800850    -29.800851   1.000000   1.000000
    3      -29.662752    -29.662752   1.000000   1.000000
    4      -29.563240    -29.563240   1.000000   1.000000
    5      -16.317565    -16.317568   1.000000   1.000000
    6      -16.138527    -16.138526   1.000000   1.000000
    7      -16.111335    -16.111335   1.000000   1.000000
    8       -7.493242     -7.493242   1.000000   1.000000
    9       -6.220801     -6.220800   1.000000   1.000000
   10       -3.615880     -3.615880   1.000000   1.000000
   11       -2.948965     -2.948965   1.000000   1.000000
   12       -2.835261     -2.835261   1.000000   1.000000
   13       -2.293978     -2.293978   1.000000   1.000000
   14       -2.228612     -2.228612   1.000000   1.000000
   15       -1.858609     -1.858608   1.000000   1.000000
   16       -1.046333     -1.046333   1.000000   1.000000
   17        2.996933      2.996935   0.000000   0.000000
   18        3.716026      3.716026   0.000000   0.000000
   19        3.950570      3.950570   0.000000   0.000000
   20        4.713994      4.713994   0.000000   0.000000
   21        5.183598      5.183597   0.000000   0.000000
   22        5.833087      5.833086   0.000000   0.000000
   23        6.528097      6.528097   0.000000   0.000000
   24        6.685051      6.685051   0.000000   0.000000
   25        6.989080      6.989079   0.000000   0.000000
   26        7.447140      7.447139   0.000000   0.000000
   27        7.626897      7.626897   0.000000   0.000000
   28        9.103965      9.103966   0.000000   0.000000
   29        9.201455      9.201454   0.000000   0.000000
   30        9.459976      9.459976   0.000000   0.000000
   31        9.949736      9.949737   0.000000   0.000000
   32       10.776267     10.776266   0.000000   0.000000
 
  0.3807718E-15  0.2500000E+00  0.3330669E-15  0.1785714E-01
    1      -34.123885    -34.123883   1.000000   1.000000
    2      -29.787090    -29.787090   1.000000   1.000000
    3      -29.637883    -29.637884   1.000000   1.000000
    4      -29.553716    -29.553717   1.000000   1.000000
    5      -16.196282    -16.196281   1.000000   1.000000
    6      -16.157164    -16.157164   1.000000   1.000000
    7      -15.990112    -15.990115   1.000000   1.000000
    8       -8.187451     -8.187450   1.000000   1.000000
    9       -5.870626     -5.870626   1.000000   1.000000
   10       -5.019791     -5.019790   1.000000   1.000000
   11       -3.253898     -3.253896   1.000000   1.000000
   12       -2.648188     -2.648188   1.000000   1.000000
   13       -2.418937     -2.418936   1.000000   1.000000
   14       -1.932859     -1.932859   1.000000   1.000000
   15       -0.333945     -0.333945   1.000000   1.000000
   16       -0.105802     -0.105802   1.000000   1.000000
   17        2.817579      2.817580   0.000000   0.000000
   18        3.503524      3.503525   0.000000   0.000000
   19        4.319280      4.319280   0.000000   0.000000
   20        4.611118      4.611117   0.000000   0.000000
   21        4.974234      4.974234   0.000000   0.000000
   22        5.685569      5.685568   0.000000   0.000000
   23        6.202053      6.202053   0.000000   0.000000
   24        6.513113      6.513112   0.000000   0.000000
   25        7.091902      7.091901   0.000000   0.000000
   26        7.764491      7.764490   0.000000   0.000000
   27        8.048273      8.048272   0.000000   0.000000
   28        8.654781      8.654781   0.000000   0.000000
   29        9.195102      9.195102   0.000000   0.000000
   30        9.669876      9.669875   0.000000   0.000000
   31       10.405006     10.405006   0.000000   0.000000
   32       10.975709     10.975710   0.000000   0.000000
 
  0.1428571E+00  0.2500000E+00  0.3608225E-15  0.1785714E-01
    1      -34.120037    -34.120036   1.000000   1.000000
    2      -29.789010    -29.789010   1.000000   1.000000
    3      -29.642454    -29.642454   1.000000   1.000000
    4      -29.556936    -29.556937   1.000000   1.000000
    5      -16.186160    -16.186159   1.000000   1.000000
    6      -16.148584    -16.148584   1.000000   1.000000
    7      -16.056788    -16.056790   1.000000   1.000000
    8       -8.057187     -8.057187   1.000000   1.000000
    9       -5.874172     -5.874171   1.000000   1.000000
   10       -4.892989     -4.892989   1.000000   1.000000
   11       -3.147661     -3.147660   1.000000   1.000000
   12       -2.616586     -2.616586   1.000000   1.000000
   13       -2.456301     -2.456300   1.000000   1.000000
   14       -1.980728     -1.980728   1.000000   1.000000
   15       -0.635074     -0.635074   1.000000   1.000000
   16       -0.398475     -0.398476   1.000000   1.000000
   17        3.064736      3.064737   0.000000   0.000000
   18        3.559972      3.559974   0.000000   0.000000
   19        4.167446      4.167445   0.000000   0.000000
   20        4.563666      4.563666   0.000000   0.000000
   21        5.196262      5.196262   0.000000   0.000000
   22        5.337712      5.337712   0.000000   0.000000
   23        6.165830      6.165831   0.000000   0.000000
   24        6.809543      6.809543   0.000000   0.000000
   25        7.285124      7.285122   0.000000   0.000000
   26        7.817779      7.817779   0.000000   0.000000
   27        8.180015      8.180013   0.000000   0.000000
   28        8.287853      8.287854   0.000000   0.000000
   29        9.049228      9.049227   0.000000   0.000000
   30        9.905514      9.905513   0.000000   0.000000
   31       10.605485     10.605484   0.000000   0.000000
   32       10.968867     10.968867   0.000000   0.000000
 
  0.2857143E+00  0.2500000E+00  0.3885781E-15  0.1785714E-01
    1      -34.111361    -34.111359   1.000000   1.000000
    2      -29.794778    -29.794778   1.000000   1.000000
    3      -29.653705    -29.653705   1.000000   1.000000
    4      -29.561613    -29.561614   1.000000   1.000000
    5      -16.202791    -16.202794   1.000000   1.000000
    6      -16.162864    -16.162862   1.000000   1.000000
    7      -16.128665    -16.128665   1.000000   1.000000
    8       -7.734373     -7.734373   1.000000   1.000000
    9       -5.978926     -5.978926   1.000000   1.000000
   10       -4.447147     -4.447147   1.000000   1.000000
   11       -2.969080     -2.969080   1.000000   1.000000
   12       -2.643688     -2.643687   1.000000   1.000000
   13       -2.477310     -2.477310   1.000000   1.000000
   14       -2.011648     -2.011648   1.000000   1.000000
   15       -1.313097     -1.313096   1.000000   1.000000
   16       -0.896961     -0.896961   1.000000   1.000000
   17        3.223430      3.223432   0.000000   0.000000
   18        3.629605      3.629607   0.000000   0.000000
   19        4.047072      4.047071   0.000000   0.000000
   20        4.506327      4.506326   0.000000   0.000000
   21        5.098602      5.098602   0.000000   0.000000
   22        5.637961      5.637960   0.000000   0.000000
   23        6.429168      6.429169   0.000000   0.000000
   24        6.663041      6.663041   0.000000   0.000000
   25        7.257431      7.257430   0.000000   0.000000
   26        7.646304      7.646304   0.000000   0.000000
   27        8.046219      8.046219   0.000000   0.000000
   28        8.753988      8.753987   0.000000   0.000000
   29        9.088784      9.088783   0.000000   0.000000
   30        9.716432      9.716432   0.000000   0.000000
   31       10.484266     10.484266   0.000000   0.000000
   32       10.801377     10.801377   0.000000   0.000000
 
  0.4285714E+00  0.2500000E+00  0.3608225E-15  0.1785714E-01
    1      -34.104378    -34.104377   1.000000   1.000000
    2      -29.801095    -29.801096   1.000000   1.000000
    3      -29.662813    -29.662813   1.000000   1.000000
    4      -29.563465    -29.563465   1.000000   1.000000
    5      -16.315011    -16.315014   1.000000   1.000000
    6      -16.144290    -16.144288   1.000000   1.000000
    7      -16.112981    -16.112981   1.000000   1.000000
    8       -7.402343     -7.402342   1.000000   1.000000
    9       -6.172663     -6.172663   1.000000   1.000000
   10       -3.821504     -3.821504   1.000000   1.000000
   11       -3.065580     -3.065579   1.000000   1.000000
   12       -2.672324     -2.672323   1.000000   1.000000
   13       -2.391184     -2.391183   1.000000   1.000000
   14       -2.109586     -2.109587   1.000000   1.000000
   15       -1.795586     -1.795586   1.000000   1.000000
   16       -1.242021     -1.242020   1.000000   1.000000
   17        3.009940      3.009942   0.000000   0.000000
   18        3.710427      3.710427   0.000000   0.000000
   19        4.012230      4.012231   0.000000   0.000000
   20        4.581698      4.581697   0.000000   0.000000
   21        5.298444      5.298443   0.000000   0.000000
   22        5.953870      5.953870   0.000000   0.000000
   23        6.229612      6.229611   0.000000   0.000000
   24        6.827604      6.827603   0.000000   0.000000
   25        7.221524      7.221524   0.000000   0.000000
   26        7.505339      7.505340   0.000000   0.000000
   27        8.011746      8.011745   0.000000   0.000000
   28        8.663108      8.663106   0.000000   0.000000
   29        9.282150      9.282151   0.000000   0.000000
   30        9.646477      9.646478   0.000000   0.000000
   31        9.987858      9.987858   0.000000   0.000000
   32       10.622523     10.622523   0.000000   0.000000
 
 -0.4285714E+00  0.2500000E+00  0.3469447E-15  0.1785714E-01
    1      -34.104376    -34.104376   1.000000   1.000000
    2      -29.801123    -29.801124   1.000000   1.000000
    3      -29.662820    -29.662820   1.000000   1.000000
    4      -29.563433    -29.563433   1.000000   1.000000
    5      -16.315019    -16.315022   1.000000   1.000000
    6      -16.144088    -16.144086   1.000000   1.000000
    7      -16.112993    -16.112993   1.000000   1.000000
    8       -7.422468     -7.422468   1.000000   1.000000
    9       -6.142978     -6.142978   1.000000   1.000000
   10       -3.862432     -3.862432   1.000000   1.000000
   11       -2.976810     -2.976809   1.000000   1.000000
   12       -2.717410     -2.717409   1.000000   1.000000
   13       -2.346288     -2.346288   1.000000   1.000000
   14       -2.069811     -2.069811   1.000000   1.000000
   15       -1.814227     -1.814226   1.000000   1.000000
   16       -1.338301     -1.338301   1.000000   1.000000
   17        2.998294      2.998295   0.000000   0.000000
   18        3.715404      3.715405   0.000000   0.000000
   19        3.979401      3.979401   0.000000   0.000000
   20        4.774594      4.774593   0.000000   0.000000
   21        5.219740      5.219739   0.000000   0.000000
   22        5.832162      5.832160   0.000000   0.000000
   23        6.338667      6.338664   0.000000   0.000000
   24        6.936721      6.936720   0.000000   0.000000
   25        7.258495      7.258494   0.000000   0.000000
   26        7.438218      7.438215   0.000000   0.000000
   27        7.812824      7.812824   0.000000   0.000000
   28        8.503106      8.503094   0.000000   0.000000
   29        9.134820      9.134828   0.000000   0.000000
   30        9.700836      9.700835   0.000000   0.000000
   31       10.223605     10.223600   0.000000   0.000000
   32       10.939367     10.939324   0.000000   0.000000
 
 -0.2857143E+00  0.2500000E+00  0.3469447E-15  0.1785714E-01
    1      -34.111353    -34.111351   1.000000   1.000000
    2      -29.794834    -29.794834   1.000000   1.000000
    3      -29.653745    -29.653745   1.000000   1.000000
    4      -29.561530    -29.561531   1.000000   1.000000
    5      -16.203407    -16.203410   1.000000   1.000000
    6      -16.161832    -16.161831   1.000000   1.000000
    7      -16.128715    -16.128715   1.000000   1.000000
    8       -7.761282     -7.761281   1.000000   1.000000
    9       -5.935987     -5.935987   1.000000   1.000000
   10       -4.465518     -4.465518   1.000000   1.000000
   11       -2.931254     -2.931254   1.000000   1.000000
   12       -2.686324     -2.686323   1.000000   1.000000
   13       -2.366485     -2.366485   1.000000   1.000000
   14       -1.980130     -1.980130   1.000000   1.000000
   15       -1.384591     -1.384590   1.000000   1.000000
   16       -0.987977     -0.987977   1.000000   1.000000
   17        3.178639      3.178641   0.000000   0.000000
   18        3.620256      3.620257   0.000000   0.000000
   19        4.160495      4.160495   0.000000   0.000000
   20        4.518645      4.518644   0.000000   0.000000
   21        5.103962      5.103962   0.000000   0.000000
   22        5.625300      5.625298   0.000000   0.000000
   23        6.438659      6.438659   0.000000   0.000000
   24        6.795718      6.795718   0.000000   0.000000
   25        7.205115      7.205114   0.000000   0.000000
   26        7.620937      7.620935   0.000000   0.000000
   27        7.766347      7.766346   0.000000   0.000000
   28        8.546993      8.546993   0.000000   0.000000
   29        9.221064      9.221064   0.000000   0.000000
   30        9.619212      9.619211   0.000000   0.000000
   31       10.509967     10.509966   0.000000   0.000000
   32       10.826813     10.826813   0.000000   0.000000
 
 -0.1428571E+00  0.2500000E+00  0.3608225E-15  0.1785714E-01
    1      -34.120036    -34.120035   1.000000   1.000000
    2      -29.789047    -29.789047   1.000000   1.000000
    3      -29.642504    -29.642504   1.000000   1.000000
    4      -29.556856    -29.556856   1.000000   1.000000
    5      -16.186148    -16.186147   1.000000   1.000000
    6      -16.148558    -16.148558   1.000000   1.000000
    7      -16.056504    -16.056506   1.000000   1.000000
    8       -8.071737     -8.071737   1.000000   1.000000
    9       -5.855952     -5.855952   1.000000   1.000000
   10       -4.887558     -4.887558   1.000000   1.000000
   11       -3.147289     -3.147288   1.000000   1.000000
   12       -2.612841     -2.612841   1.000000   1.000000
   13       -2.441575     -2.441575   1.000000   1.000000
   14       -1.939493     -1.939492   1.000000   1.000000
   15       -0.713518     -0.713517   1.000000   1.000000
   16       -0.409038     -0.409039   1.000000   1.000000
   17        3.168673      3.168675   0.000000   0.000000
   18        3.560311      3.560312   0.000000   0.000000
   19        4.230350      4.230350   0.000000   0.000000
   20        4.351450      4.351451   0.000000   0.000000
   21        4.930634      4.930634   0.000000   0.000000
   22        5.616986      5.616985   0.000000   0.000000
   23        6.382698      6.382698   0.000000   0.000000
   24        6.782377      6.782377   0.000000   0.000000
   25        7.093851      7.093850   0.000000   0.000000
   26        7.654005      7.654004   0.000000   0.000000
   27        7.982758      7.982756   0.000000   0.000000
   28        8.623278      8.623278   0.000000   0.000000
   29        9.212068      9.212067   0.000000   0.000000
   30        9.740117      9.740118   0.000000   0.000000
   31       10.514610     10.514610   0.000000   0.000000
   32       10.859365     10.859365   0.000000   0.000000
 
  0.3833739E-15  0.5000000E+00  0.3885781E-15  0.8928571E-02
    1      -34.123841    -34.123840   1.000000   1.000000
    2      -29.787331    -29.787331   1.000000   1.000000
    3      -29.637863    -29.637863   1.000000   1.000000
    4      -29.553815    -29.553816   1.000000   1.000000
    5      -16.205941    -16.205939   1.000000   1.000000
    6      -16.157951    -16.157951   1.000000   1.000000
    7      -15.990048    -15.990051   1.000000   1.000000
    8       -7.903935     -7.903935   1.000000   1.000000
    9       -6.161462     -6.161462   1.000000   1.000000
   10       -5.110489     -5.110489   1.000000   1.000000
   11       -3.511800     -3.511798   1.000000   1.000000
   12       -2.510001     -2.510001   1.000000   1.000000
   13       -2.227551     -2.227550   1.000000   1.000000
   14       -1.803318     -1.803318   1.000000   1.000000
   15       -0.360584     -0.360583   1.000000   1.000000
   16       -0.199326     -0.199326   1.000000   1.000000
   17        2.614993      2.614993   0.000000   0.000000
   18        3.551530      3.551532   0.000000   0.000000
   19        4.456001      4.456000   0.000000   0.000000
   20        4.570531      4.570532   0.000000   0.000000
   21        4.982078      4.982078   0.000000   0.000000
   22        5.733495      5.733495   0.000000   0.000000
   23        6.061672      6.061672   0.000000   0.000000
   24        6.587236      6.587235   0.000000   0.000000
   25        7.136904      7.136903   0.000000   0.000000
   26        7.560910      7.560909   0.000000   0.000000
   27        7.995903      7.995901   0.000000   0.000000
   28        8.440069      8.440069   0.000000   0.000000
   29        9.460692      9.460692   0.000000   0.000000
   30       10.370278     10.370278   0.000000   0.000000
   31       10.886837     10.886837   0.000000   0.000000
   32       11.428361     11.428360   0.000000   0.000000
 
  0.1428571E+00  0.5000000E+00  0.3885781E-15  0.1785714E-01
    1      -34.119981    -34.119980   1.000000   1.000000
    2      -29.789273    -29.789273   1.000000   1.000000
    3      -29.642472    -29.642473   1.000000   1.000000
    4      -29.557019    -29.557019   1.000000   1.000000
    5      -16.195085    -16.195084   1.000000   1.000000
    6      -16.149445    -16.149445   1.000000   1.000000
    7      -16.056035    -16.056037   1.000000   1.000000
    8       -7.811671     -7.811671   1.000000   1.000000
    9       -6.073391     -6.073390   1.000000   1.000000
   10       -5.034892     -5.034892   1.000000   1.000000
   11       -3.357941     -3.357940   1.000000   1.000000
   12       -2.516019     -2.516018   1.000000   1.000000
   13       -2.278832     -2.278831   1.000000   1.000000
   14       -1.810056     -1.810055   1.000000   1.000000
   15       -0.703139     -0.703139   1.000000   1.000000
   16       -0.535577     -0.535578   1.000000   1.000000
   17        2.921618      2.921619   0.000000   0.000000
   18        3.612721      3.612723   0.000000   0.000000
   19        4.222993      4.222993   0.000000   0.000000
   20        4.721871      4.721870   0.000000   0.000000
   21        4.827380      4.827380   0.000000   0.000000
   22        5.620646      5.620645   0.000000   0.000000
   23        6.059546      6.059546   0.000000   0.000000
   24        7.052593      7.052592   0.000000   0.000000
   25        7.248307      7.248306   0.000000   0.000000
   26        7.636866      7.636865   0.000000   0.000000
   27        8.106907      8.106906   0.000000   0.000000
   28        8.326150      8.326150   0.000000   0.000000
   29        9.054695      9.054695   0.000000   0.000000
   30       10.164739     10.164739   0.000000   0.000000
   31       10.714809     10.714808   0.000000   0.000000
   32       11.604476     11.604476   0.000000   0.000000
 
  0.2857143E+00  0.5000000E+00  0.3608225E-15  0.1785714E-01
    1      -34.111273    -34.111272   1.000000   1.000000
    2      -29.795060    -29.795061   1.000000   1.000000
    3      -29.653757    -29.653757   1.000000   1.000000
    4      -29.561746    -29.561746   1.000000   1.000000
    5      -16.201339    -16.201343   1.000000   1.000000
    6      -16.169834    -16.169832   1.000000   1.000000
    7      -16.129634    -16.129634   1.000000   1.000000
    8       -7.572712     -7.572711   1.000000   1.000000
    9       -6.001250     -6.001249   1.000000   1.000000
   10       -4.682595     -4.682595   1.000000   1.000000
   11       -3.009293     -3.009293   1.000000   1.000000
   12       -2.658260     -2.658259   1.000000   1.000000
   13       -2.309094     -2.309093   1.000000   1.000000
   14       -1.834061     -1.834061   1.000000   1.000000
   15       -1.368185     -1.368185   1.000000   1.000000
   16       -1.155231     -1.155232   1.000000   1.000000
   17        3.295459      3.295460   0.000000   0.000000
   18        3.465588      3.465589   0.000000   0.000000
   19        4.022007      4.022006   0.000000   0.000000
   20        4.734668      4.734667   0.000000   0.000000
   21        5.239058      5.239057   0.000000   0.000000
   22        5.535263      5.535263   0.000000   0.000000
   23        6.187530      6.187530   0.000000   0.000000
   24        6.923720      6.923719   0.000000   0.000000
   25        7.399510      7.399509   0.000000   0.000000
   26        7.605338      7.605337   0.000000   0.000000
   27        7.896884      7.896885   0.000000   0.000000
   28        8.686984      8.686984   0.000000   0.000000
   29        9.179683      9.179683   0.000000   0.000000
   30        9.991603      9.991602   0.000000   0.000000
   31       10.391534     10.391534   0.000000   0.000000
   32       10.977910     10.977910   0.000000   0.000000
 
  0.4285714E+00  0.5000000E+00  0.3885781E-15  0.1785714E-01
    1      -34.104264    -34.104263   1.000000   1.000000
    2      -29.801367    -29.801368   1.000000   1.000000
    3      -29.662881    -29.662880   1.000000   1.000000
    4      -29.563657    -29.563658   1.000000   1.000000
    5      -16.312462    -16.312465   1.000000   1.000000
    6      -16.150371    -16.150369   1.000000   1.000000
    7      -16.114108    -16.114108   1.000000   1.000000
    8       -7.324054     -7.324053   1.000000   1.000000
    9       -6.092857     -6.092857   1.000000   1.000000
   10       -4.045285     -4.045285   1.000000   1.000000
   11       -3.118709     -3.118709   1.000000   1.000000
   12       -2.576903     -2.576903   1.000000   1.000000
   13       -2.280717     -2.280716   1.000000   1.000000
   14       -2.077200     -2.077200   1.000000   1.000000
   15       -1.755563     -1.755563   1.000000   1.000000
   16       -1.537338     -1.537337   1.000000   1.000000
   17        3.057161      3.057163   0.000000   0.000000
   18        3.691777      3.691778   0.000000   0.000000
   19        4.040478      4.040477   0.000000   0.000000
   20        4.836137      4.836136   0.000000   0.000000
   21        5.138787      5.138786   0.000000   0.000000
   22        5.734763      5.734762   0.000000   0.000000
   23        6.175323      6.175324   0.000000   0.000000
   24        6.723903      6.723903   0.000000   0.000000
   25        7.389331      7.389329   0.000000   0.000000
   26        7.762898      7.762898   0.000000   0.000000
   27        8.176540      8.176540   0.000000   0.000000
   28        8.741650      8.741652   0.000000   0.000000
   29        9.249509      9.249510   0.000000   0.000000
   30        9.583423      9.583422   0.000000   0.000000
   31       10.573740     10.573741   0.000000   0.000000
   32       10.843562     10.843562   0.000000   0.000000
 
  0.3764350E-15  0.3729655E-15  0.2500000E+00  0.1785714E-01
    1      -34.123947    -34.123946   1.000000   1.000000
    2      -29.786933    -29.786933   1.000000   1.000000
    3      -29.637891    -29.637891   1.000000   1.000000
    4      -29.553624    -29.553624   1.000000   1.000000
    5      -16.188902    -16.188901   1.000000   1.000000
    6      -16.163125    -16.163124   1.000000   1.000000
    7      -15.990136    -15.990139   1.000000   1.000000
    8       -8.221544     -8.221544   1.000000   1.000000
    9       -5.892537     -5.892537   1.000000   1.000000
   10       -4.882986     -4.882985   1.000000   1.000000
   11       -3.357529     -3.357528   1.000000   1.000000
   12       -2.651946     -2.651946   1.000000   1.000000
   13       -2.292394     -2.292394   1.000000   1.000000
   14       -1.988016     -1.988015   1.000000   1.000000
   15       -0.411715     -0.411715   1.000000   1.000000
   16       -0.155906     -0.155906   1.000000   1.000000