       N       E                     dE             d eps       ncg     rms          rms(c)
DAV:   1    -0.191721818713E+02   -0.19172E+02   -0.48119E+03 11848   0.420E+02
DAV:   2    -0.626260868300E+02   -0.43454E+02   -0.42624E+02 14224   0.105E+02
DAV:   3    -0.642762489973E+02   -0.16502E+01   -0.16460E+01 14892   0.207E+01
DAV:   4    -0.642804310230E+02   -0.41820E-02   -0.41816E-02 13912   0.122E+00
DAV:   5    -0.642804492645E+02   -0.18242E-04   -0.18241E-04 14108   0.724E-02    0.127E+01
DAV:   6    -0.621318311480E+02    0.21486E+01   -0.63849E-01 13076   0.392E+00    0.727E+00
DAV:   7    -0.610923380762E+02    0.10395E+01   -0.16339E+00 13308   0.655E+00    0.666E-01
DAV:   8    -0.611176272497E+02   -0.25289E-01   -0.73167E-02 13052   0.148E+00    0.399E-01
DAV:   9    -0.611147227767E+02    0.29045E-02   -0.58678E-03 14724   0.438E-01    0.582E-02
DAV:  10    -0.611147827507E+02   -0.59974E-04   -0.21835E-04 13804   0.835E-02
   1 F= -.61114783E+02 E0= -.61115011E+02  d E =-.611148E+02
       N       E                     dE             d eps       ncg     rms          rms(c)
DAV:   1    -0.611145475509E+02    0.17523E-03   -0.10411E-01 13400   0.198E+00    0.142E-01
DAV:   2    -0.611146994772E+02   -0.15193E-03   -0.43048E-03 13640   0.388E-01    0.103E-01
DAV:   3    -0.611145405962E+02    0.15888E-03   -0.28763E-04 14936   0.153E-01    0.835E-03
DAV:   4    -0.611145600807E+02   -0.19484E-04   -0.18181E-04  9256   0.730E-02
   2 F= -.61114560E+02 E0= -.61114788E+02  d E =0.222670E-03
       N       E                     dE             d eps       ncg     rms          rms(c)
DAV:   1    -0.611163491024E+02   -0.18085E-02   -0.28284E-02 13232   0.103E+00    0.776E-02
DAV:   2    -0.611163684773E+02   -0.19375E-04   -0.10614E-03 13632   0.193E-01    0.545E-02
DAV:   3    -0.611163210472E+02    0.47430E-04   -0.82197E-05 10632   0.831E-02
   3 F= -.61116321E+02 E0= -.61116549E+02  d E =-.153830E-02
       N       E                     dE             d eps       ncg     rms          rms(c)
DAV:   1    -0.611188993405E+02   -0.25309E-02   -0.38876E-02 12480   0.112E+00    0.671E-02
DAV:   2    -0.611189636967E+02   -0.64356E-04   -0.78718E-04 14024   0.151E-01
   4 F= -.61118964E+02 E0= -.61119192E+02  d E =-.264265E-02
       N       E                     dE             d eps       ncg     rms          rms(c)
DAV:   1    -0.611224377844E+02   -0.35384E-02   -0.34732E-01 12564   0.337E+00    0.199E-01
DAV:   2    -0.611230553840E+02   -0.61760E-03   -0.65307E-03 14160   0.437E-01    0.136E-01
DAV:   3    -0.611231156751E+02   -0.60291E-04   -0.56080E-04 13840   0.154E-01
   5 F= -.61123116E+02 E0= -.61123345E+02  d E =-.679463E-02
       N       E                     dE             d eps       ncg     rms          rms(c)
DAV:   1    -0.611252403449E+02   -0.21850E-02   -0.24364E-02 12656   0.897E-01    0.530E-02
DAV:   2    -0.611252890116E+02   -0.48667E-04   -0.49782E-04 14036   0.122E-01
   6 F= -.61125289E+02 E0= -.61125519E+02  d E =-.217334E-02
       N       E                     dE             d eps       ncg     rms          rms(c)
DAV:   1    -0.611282654667E+02   -0.30251E-02   -0.21655E-01 12492   0.269E+00    0.152E-01
DAV:   2    -0.611286421612E+02   -0.37669E-03   -0.42331E-03 14040   0.352E-01    0.105E-01
DAV:   3    -0.611286520094E+02   -0.98482E-05   -0.30940E-04 14228   0.110E-01
   7 F= -.61128652E+02 E0= -.61128883E+02  d E =-.553633E-02
       N       E                     dE             d eps       ncg     rms          rms(c)
DAV:   1    -0.611304667276E+02   -0.18246E-02   -0.53422E-02 12652   0.136E+00    0.832E-02
DAV:   2    -0.611305637886E+02   -0.97061E-04   -0.12888E-03 13992   0.196E-01    0.579E-02
DAV:   3    -0.611305535199E+02    0.10269E-04   -0.82617E-05 10316   0.672E-02
   8 F= -.61130554E+02 E0= -.61130784E+02  d E =-.190151E-02
       N       E                     dE             d eps       ncg     rms          rms(c)
DAV:   1    -0.611307692897E+02   -0.20550E-03   -0.16238E-02 12732   0.754E-01    0.443E-02
DAV:   2    -0.611308031101E+02   -0.33820E-04   -0.40500E-04 13960   0.110E-01
   9 F= -.61130803E+02 E0= -.61131034E+02  d E =-.215110E-02
       N       E                     dE             d eps       ncg     rms          rms(c)
DAV:   1    -0.611320822778E+02   -0.13130E-02   -0.37286E-02 12160   0.110E+00    0.616E-02
DAV:   2    -0.611320992360E+02   -0.16958E-04   -0.33242E-04 14084   0.106E-01
  10 F= -.61132099E+02 E0= -.61132330E+02  d E =-.129613E-02
       N       E                     dE             d eps       ncg     rms          rms(c)
DAV:   1    -0.611352037906E+02   -0.31215E-02   -0.33588E-01 12040   0.330E+00    0.178E-01
DAV:   2    -0.611353657768E+02   -0.16199E-03   -0.31469E-03 14072   0.324E-01    0.119E-01
DAV:   3    -0.611353375609E+02    0.28216E-04   -0.47316E-04 13676   0.107E-01
  11 F= -.61135338E+02 E0= -.61135568E+02  d E =-.453445E-02
       N       E                     dE             d eps       ncg     rms          rms(c)
DAV:   1    -0.611381835473E+02   -0.28178E-02   -0.13586E+00 12044   0.662E+00    0.360E-01
DAV:   2    -0.611389257395E+02   -0.74219E-03   -0.13671E-02 14016   0.672E-01    0.242E-01
DAV:   3    -0.611388026192E+02    0.12312E-03   -0.19395E-03 13692   0.218E-01    0.431E-02
DAV:   4    -0.611387800657E+02    0.22553E-04   -0.17188E-04 12876   0.717E-02
  12 F= -.61138780E+02 E0= -.61139011E+02  d E =-.797696E-02
       N       E                     dE             d eps       ncg     rms          rms(c)
DAV:   1    -0.611397796709E+02   -0.97705E-03   -0.11571E-02 12288   0.609E-01    0.328E-02
DAV:   2    -0.611397917776E+02   -0.12107E-04   -0.13815E-04 12196   0.682E-02
  13 F= -.61139792E+02 E0= -.61140022E+02  d E =-.101171E-02
       N       E                     dE             d eps       ncg     rms          rms(c)
DAV:   1    -0.611423732148E+02   -0.25935E-02   -0.10080E-01 12072   0.181E+00    0.999E-02
DAV:   2    -0.611424135825E+02   -0.40368E-04   -0.10329E-03 14072   0.185E-01    0.672E-02
DAV:   3    -0.611423922898E+02    0.21293E-04   -0.13175E-04 10848   0.689E-02
  14 F= -.61142392E+02 E0= -.61142623E+02  d E =-.361222E-02
       N       E                     dE             d eps       ncg     rms          rms(c)
DAV:   1    -0.611454331375E+02   -0.30196E-02   -0.40628E-01 11996   0.363E+00    0.198E-01
DAV:   2    -0.611456456853E+02   -0.21255E-03   -0.45626E-03 14008   0.388E-01    0.135E-01
DAV:   3    -0.611455570034E+02    0.88682E-04   -0.53890E-04 14764   0.136E-01
  15 F= -.61145557E+02 E0= -.61145787E+02  d E =-.677694E-02
       N       E                     dE             d eps       ncg     rms          rms(c)
DAV:   1    -0.611458478087E+02   -0.20212E-03   -0.36110E-04 12884   0.111E-01    0.124E-02
DAV:   2    -0.611458473935E+02    0.41518E-06   -0.13381E-05  6336   0.217E-02
  16 F= -.61145847E+02 E0= -.61146077E+02  d E =-.290390E-03
       N       E                     dE             d eps       ncg     rms          rms(c)
DAV:   1    -0.611465994262E+02   -0.75162E-03   -0.25019E-03 13396   0.291E-01    0.215E-02
DAV:   2    -0.611466062969E+02   -0.68707E-05   -0.84854E-05  7588   0.542E-02
  17 F= -.61146606E+02 E0= -.61146836E+02  d E =-.104929E-02
       N       E                     dE             d eps       ncg     rms          rms(c)
DAV:   1    -0.611470185093E+02   -0.41908E-03   -0.61739E-04 12992   0.146E-01    0.987E-03
DAV:   2    -0.611470208872E+02   -0.23778E-05   -0.22811E-05  6256   0.275E-02
  18 F= -.61147021E+02 E0= -.61147251E+02  d E =-.414590E-03
       N       E                     dE             d eps       ncg     rms          rms(c)
DAV:   1    -0.611481536265E+02   -0.11351E-02   -0.54152E-03 13216   0.422E-01    0.305E-02
DAV:   2    -0.611481624732E+02   -0.88467E-05   -0.10636E-04 11472   0.592E-02
  19 F= -.61148162E+02 E0= -.61148392E+02  d E =-.155618E-02
       N       E                     dE             d eps       ncg     rms          rms(c)
DAV:   1    -0.611487328550E+02   -0.57923E-03   -0.15864E-03 13128   0.233E-01    0.146E-02
DAV:   2    -0.611487371839E+02   -0.43289E-05   -0.45613E-05  6584   0.396E-02
  20 F= -.61148737E+02 E0= -.61148967E+02  d E =-.574711E-03
       N       E                     dE             d eps       ncg     rms          rms(c)
DAV:   1    -0.611501289418E+02   -0.13961E-02   -0.14312E-02 12992   0.688E-01    0.471E-02
DAV:   2    -0.611501491555E+02   -0.20214E-04   -0.29003E-04 13816   0.989E-02
  21 F= -.61150149E+02 E0= -.61150379E+02  d E =-.198668E-02
       N       E                     dE             d eps       ncg     rms          rms(c)
DAV:   1    -0.611508495443E+02   -0.72060E-03   -0.60751E-03 13164   0.479E-01    0.309E-02
DAV:   2    -0.611508795469E+02   -0.30003E-04   -0.40647E-04 12656   0.117E-01
  22 F= -.61150880E+02 E0= -.61151110E+02  d E =-.730391E-03
       N       E                     dE             d eps       ncg     rms          rms(c)
DAV:   1    -0.611510382111E+02   -0.18867E-03   -0.45796E-03 13500   0.404E-01    0.373E-02
DAV:   2    -0.611510342118E+02    0.39993E-05   -0.12071E-04 10264   0.691E-02
  23 F= -.61151034E+02 E0= -.61151264E+02  d E =-.885056E-03
