 running on   16 total cores
 distrk:  each k-point on   16 cores,    1 groups
 distr:  one band on    1 cores,   16 groups
 using from now: INCAR     
 vasp.5.4.4.18Apr17-6-g9f103f2a35 (build Nov 01 2019 12:17:22) complex          
  
 POSCAR found type information on POSCAR  Sr Nb H 
 POSCAR found :  3 types and      12 ions

 ----------------------------------------------------------------------------- 
|                                                                             |
|           W    W    AA    RRRRR   N    N  II  N    N   GGGG   !!!           |
|           W    W   A  A   R    R  NN   N  II  NN   N  G    G  !!!           |
|           W    W  A    A  R    R  N N  N  II  N N  N  G       !!!           |
|           W WW W  AAAAAA  RRRRR   N  N N  II  N  N N  G  GGG   !            |
|           WW  WW  A    A  R   R   N   NN  II  N   NN  G    G                |
|           W    W  A    A  R    R  N    N  II  N    N   GGGG   !!!           |
|                                                                             |
|      For optimal performance we recommend to set                            |
|        NCORE= 4 - approx SQRT( number of cores)                             |
|      NCORE specifies how many cores store one orbital (NPAR=cpu/NCORE).     |
|      This setting can  greatly improve the performance of VASP for DFT.     |
|      The default,   NCORE=1            might be grossly inefficient         |
|      on modern multi-core architectures or massively parallel machines.     |
|      Do your own testing !!!!                                               |
|      Unfortunately you need to use the default for GW and RPA calculations. |
|      (for HF NCORE is supported but not extensively tested yet)             |
|                                                                             |
 ----------------------------------------------------------------------------- 

 LDA part: xc-table for Pade appr. of Perdew
 POSCAR, INCAR and KPOINTS ok, starting setup
 FFT: planning ...
 WAVECAR not read
 entering main loop
       N       E                     dE             d eps       ncg     rms          rms(c)
DAV:   1     0.285353568635E+03    0.28535E+03   -0.20319E+04  8192   0.125E+03
DAV:   2    -0.372900653129E+02   -0.32264E+03   -0.31658E+03  9168   0.399E+02
DAV:   3    -0.550925363464E+02   -0.17802E+02   -0.17648E+02 15872   0.750E+01
DAV:   4    -0.552854207486E+02   -0.19288E+00   -0.19312E+00  8688   0.635E+00
DAV:   5    -0.552944500891E+02   -0.90293E-02   -0.89975E-02 14496   0.135E+00    0.427E+01
RMM:   6    -0.539722486357E+02    0.13222E+01   -0.11848E+01  9431   0.175E+01    0.164E+01
RMM:   7    -0.540004433571E+02   -0.28195E-01   -0.32555E+00  9837   0.891E+00    0.661E+00
RMM:   8    -0.539155660165E+02    0.84877E-01   -0.26766E-01  9945   0.310E+00    0.401E+00
RMM:   9    -0.539104803406E+02    0.50857E-02   -0.87648E-02 10011   0.178E+00    0.195E+00
RMM:  10    -0.539068544194E+02    0.36259E-02   -0.20103E-02 10220   0.788E-01    0.662E-01
RMM:  11    -0.539073049457E+02   -0.45053E-03   -0.63668E-03  8762   0.488E-01    0.276E-01
RMM:  12    -0.539066128407E+02    0.69211E-03   -0.20324E-03  6930   0.282E-01    0.167E-01
RMM:  13    -0.539066996727E+02   -0.86832E-04   -0.80997E-04  5848   0.231E-01
   1 F= -.53906700E+02 E0= -.53906700E+02  d E =-.539067E+02  mag=     0.0006
 curvature:   0.00 expect dE= 0.000E+00 dE for cont linesearch  0.000E+00
 trial: gam= 0.00000 g(F)=  0.284E-02 g(S)=  0.576E-01 ort = 0.000E+00 (trialstep = 0.100E+01)
 search vector abs. value=  0.604E-01
 bond charge predicted
       N       E                     dE             d eps       ncg     rms          rms(c)
DAV:   1    -0.541044654085E+02   -0.19785E+00   -0.40684E+00 12272   0.149E+01    0.486E+00
RMM:   2    -0.539610721441E+02    0.14339E+00   -0.45448E-01  9436   0.457E+00    0.901E-01
RMM:   3    -0.539450019346E+02    0.16070E-01   -0.79703E-02  9867   0.197E+00    0.804E-01
RMM:   4    -0.539417513659E+02    0.32506E-02   -0.10980E-02  8900   0.632E-01    0.701E-01
RMM:   5    -0.539415715638E+02    0.17980E-03   -0.45076E-03  7474   0.657E-01
   2 F= -.53941572E+02 E0= -.53941572E+02  d E =-.348719E-01  mag=     0.0000
 trial-energy change:   -0.034872  1 .order   -0.043150   -0.060412   -0.025888
 step:   1.7499(harm=  1.7499)  dis= 0.00668  next Energy=   -53.959556 (dE=-0.529E-01)
 bond charge predicted
       N       E                     dE             d eps       ncg     rms          rms(c)
DAV:   1    -0.540290906325E+02   -0.87339E-01   -0.22021E+00  8352   0.110E+01    0.344E+00
RMM:   2    -0.539485929353E+02    0.80498E-01   -0.23574E-01  9364   0.331E+00    0.660E-01
RMM:   3    -0.539391076163E+02    0.94853E-02   -0.37968E-02  9545   0.151E+00    0.632E-01
RMM:   4    -0.539374787701E+02    0.16288E-02   -0.60048E-03  7869   0.486E-01    0.583E-01
RMM:   5    -0.539377127643E+02   -0.23399E-03   -0.26001E-03  6551   0.517E-01
   3 F= -.53937713E+02 E0= -.53937713E+02  d E =-.310131E-01  mag=    -0.0000
 curvature:  -0.87 expect dE=-0.831E-02 dE for cont linesearch -0.143E-02
 trial: gam= 0.00000 g(F)=  0.603E-02 g(S)=  0.346E-02 ort =-0.993E-02 (trialstep = 0.115E+01)
 search vector abs. value=  0.950E-02
 bond charge predicted
       N       E                     dE             d eps       ncg     rms          rms(c)
DAV:   1    -0.539557314929E+02   -0.18253E-01   -0.45498E-01 11760   0.489E+00    0.135E+00
RMM:   2    -0.539480417406E+02    0.76898E-02   -0.39159E-02  9584   0.130E+00    0.348E-01
RMM:   3    -0.539464740033E+02    0.15677E-02   -0.53825E-03  8159   0.616E-01    0.145E-01
RMM:   4    -0.539463082634E+02    0.16574E-03   -0.10744E-03  5894   0.276E-01
   4 F= -.53946308E+02 E0= -.53946308E+02  d E =-.859550E-02  mag=     0.0000
 trial-energy change:   -0.008595  1 .order   -0.007694   -0.010919   -0.004468
 step:   1.9465(harm=  1.9465)  dis= 0.00815  next Energy=   -53.946954 (dE=-0.924E-02)
 bond charge predicted
       N       E                     dE             d eps       ncg     rms          rms(c)
DAV:   1    -0.539511343970E+02   -0.46604E-02   -0.20135E-01 10176   0.337E+00    0.939E-01
RMM:   2    -0.539469975704E+02    0.41368E-02   -0.17282E-02  9507   0.873E-01    0.249E-01
RMM:   3    -0.539462935288E+02    0.70404E-03   -0.22545E-03  6549   0.444E-01    0.175E-01
RMM:   4    -0.539462100465E+02    0.83482E-04   -0.61556E-04  4960   0.239E-01
   5 F= -.53946210E+02 E0= -.53946210E+02  d E =-.849728E-02  mag=    -0.0000
 curvature:  -0.97 expect dE=-0.799E-02 dE for cont linesearch -0.434E-03
 trial: gam= 0.00000 g(F)=  0.735E-02 g(S)=  0.862E-03 ort =-0.206E-02 (trialstep = 0.131E+01)
 search vector abs. value=  0.821E-02
 bond charge predicted
       N       E                     dE             d eps       ncg     rms          rms(c)
DAV:   1    -0.539335467559E+02    0.12747E-01   -0.17747E+00 10240   0.130E+01    0.443E-01
RMM:   2    -0.539486168203E+02   -0.15070E-01   -0.17131E-01  8379   0.225E+00    0.238E-01
RMM:   3    -0.539467053853E+02    0.19114E-02   -0.98093E-03  7539   0.133E+00    0.195E-01
RMM:   4    -0.539467719244E+02   -0.66539E-04   -0.16106E-03  6218   0.267E-01
   6 F= -.53946772E+02 E0= -.53946772E+02  d E =-.561878E-03  mag=    -0.0000
 trial-energy change:   -0.000562  1 .order   -0.000431   -0.010746    0.009883
 step:   0.6820(harm=  0.6820)  dis= 0.00918  next Energy=   -53.949009 (dE=-0.280E-02)
 bond charge predicted
       N       E                     dE             d eps       ncg     rms          rms(c)
DAV:   1    -0.539461840212E+02    0.52136E-03   -0.40664E-01 10240   0.628E+00    0.199E-01
RMM:   2    -0.539495085462E+02   -0.33245E-02   -0.38190E-02  8340   0.107E+00    0.111E-01
RMM:   3    -0.539491398616E+02    0.36868E-03   -0.26523E-03  6450   0.699E-01
   7 F= -.53949140E+02 E0= -.53949140E+02  d E =-.292982E-02  mag=     0.0000
 curvature:  -0.34 expect dE=-0.267E-03 dE for cont linesearch -0.179E-05
 trial: gam= 0.07026 g(F)=  0.548E-03 g(S)=  0.236E-03 ort = 0.207E-03 (trialstep = 0.118E+01)
 search vector abs. value=  0.854E-03
 reached required accuracy - stopping structural energy minimisation
