  20  20   0   0
  0.8438278E+01  0.5041550E-09  0.5412598E-09  0.6559063E-09  0.5000000E-15
  1.000000000000000E-004
  CAR 
 unknown system                          
      9.41570641    -35.84477703  301      0.36832436      1.00000000
    -35.845  0.0000E+00  0.0000E+00
    -35.694  0.0000E+00  0.0000E+00
    -35.543  0.0000E+00  0.0000E+00
    -35.392  0.0000E+00  0.0000E+00
    -35.241  0.0000E+00  0.0000E+00
    -35.090  0.0000E+00  0.0000E+00
    -34.940  0.0000E+00  0.0000E+00
    -34.789  0.0000E+00  0.0000E+00
    -34.638  0.6607E-30  0.9969E-31
    -34.487  0.5205E-20  0.7853E-21
    -34.336  0.3666E-12  0.5531E-13
    -34.185  0.2003E-06  0.3022E-07
    -34.034  0.4954E-03  0.7477E-04
    -33.883 -0.1164E-01 -0.1681E-02
    -33.733  0.2145E+00  0.3068E-01
    -33.582  0.2010E+00  0.6101E-01
    -33.431  0.3662E-01  0.6654E-01
    -33.280  0.8496E-03  0.6667E-01
    -33.129  0.1014E-04  0.6667E-01
    -32.978  0.1494E-09  0.6667E-01
    -32.827  0.2453E-16  0.6667E-01
    -32.677  0.0000E+00  0.6667E-01
    -32.526  0.0000E+00  0.6667E-01
    -32.375  0.0000E+00  0.6667E-01
    -32.224  0.0000E+00  0.6667E-01
    -32.073  0.0000E+00  0.6667E-01
    -31.922  0.0000E+00  0.6667E-01
    -31.771  0.0000E+00  0.6667E-01
    -31.620  0.0000E+00  0.6667E-01
    -31.470  0.0000E+00  0.6667E-01
    -31.319  0.0000E+00  0.6667E-01
    -31.168  0.0000E+00  0.6667E-01
    -31.017  0.0000E+00  0.6667E-01
    -30.866  0.0000E+00  0.6667E-01
    -30.715  0.0000E+00  0.6667E-01
    -30.564  0.0000E+00  0.6667E-01
    -30.414  0.0000E+00  0.6667E-01
    -30.263  0.5457E-30  0.6667E-01
    -30.112  0.4454E-20  0.6667E-01
    -29.961  0.3253E-12  0.6667E-01
    -29.810  0.1846E-06  0.6667E-01
    -29.659  0.4788E-03  0.6674E-01
    -29.508 -0.1182E-01  0.6496E-01
    -29.357  0.2217E+00  0.9840E-01
    -29.207  0.9113E-01  0.1122E+00
    -29.056  0.3256E+00  0.1613E+00
    -28.905  0.3482E-01  0.1665E+00
    -28.754  0.8761E-03  0.1667E+00
    -28.603  0.1117E-04  0.1667E+00
    -28.452  0.1749E-09  0.1667E+00
    -28.301  0.2453E-16  0.1667E+00
    -28.150  0.0000E+00  0.1667E+00
    -28.000  0.0000E+00  0.1667E+00
    -27.849  0.0000E+00  0.1667E+00
    -27.698  0.0000E+00  0.1667E+00
    -27.547  0.0000E+00  0.1667E+00
    -27.396  0.0000E+00  0.1667E+00
    -27.245  0.0000E+00  0.1667E+00
    -27.094  0.0000E+00  0.1667E+00
    -26.944  0.0000E+00  0.1667E+00
    -26.793  0.0000E+00  0.1667E+00
    -26.642  0.0000E+00  0.1667E+00
    -26.491  0.0000E+00  0.1667E+00
    -26.340  0.0000E+00  0.1667E+00
    -26.189  0.0000E+00  0.1667E+00
    -26.038  0.0000E+00  0.1667E+00
    -25.887  0.0000E+00  0.1667E+00
    -25.737  0.0000E+00  0.1667E+00
    -25.586  0.0000E+00  0.1667E+00
    -25.435  0.0000E+00  0.1667E+00
    -25.284  0.0000E+00  0.1667E+00
    -25.133  0.0000E+00  0.1667E+00
    -24.982  0.0000E+00  0.1667E+00
    -24.831  0.0000E+00  0.1667E+00
    -24.681  0.0000E+00  0.1667E+00
    -24.530  0.0000E+00  0.1667E+00
    -24.379  0.0000E+00  0.1667E+00
    -24.228  0.0000E+00  0.1667E+00
    -24.077  0.0000E+00  0.1667E+00
    -23.926  0.0000E+00  0.1667E+00
    -23.775  0.0000E+00  0.1667E+00
    -23.624  0.0000E+00  0.1667E+00
    -23.474  0.0000E+00  0.1667E+00
    -23.323  0.0000E+00  0.1667E+00
    -23.172  0.0000E+00  0.1667E+00
    -23.021  0.0000E+00  0.1667E+00
    -22.870  0.0000E+00  0.1667E+00
    -22.719  0.0000E+00  0.1667E+00
    -22.568  0.0000E+00  0.1667E+00
    -22.418  0.0000E+00  0.1667E+00
    -22.267  0.0000E+00  0.1667E+00
    -22.116  0.0000E+00  0.1667E+00
    -21.965  0.0000E+00  0.1667E+00
    -21.814  0.0000E+00  0.1667E+00
    -21.663  0.0000E+00  0.1667E+00
    -21.512  0.0000E+00  0.1667E+00
    -21.361  0.0000E+00  0.1667E+00
    -21.211  0.0000E+00  0.1667E+00
    -21.060  0.0000E+00  0.1667E+00
    -20.909  0.0000E+00  0.1667E+00
    -20.758  0.0000E+00  0.1667E+00
    -20.607  0.0000E+00  0.1667E+00
    -20.456  0.0000E+00  0.1667E+00
    -20.305  0.0000E+00  0.1667E+00
    -20.154  0.0000E+00  0.1667E+00
    -20.004  0.0000E+00  0.1667E+00
    -19.853  0.0000E+00  0.1667E+00
    -19.702  0.0000E+00  0.1667E+00
    -19.551  0.0000E+00  0.1667E+00
    -19.400  0.0000E+00  0.1667E+00
    -19.249  0.0000E+00  0.1667E+00
    -19.098  0.0000E+00  0.1667E+00
    -18.948  0.0000E+00  0.1667E+00
    -18.797  0.0000E+00  0.1667E+00
    -18.646  0.0000E+00  0.1667E+00
    -18.495  0.0000E+00  0.1667E+00
    -18.344  0.0000E+00  0.1667E+00
    -18.193  0.0000E+00  0.1667E+00
    -18.042  0.0000E+00  0.1667E+00
    -17.891  0.0000E+00  0.1667E+00
    -17.741  0.0000E+00  0.1667E+00
    -17.590  0.0000E+00  0.1667E+00
    -17.439  0.0000E+00  0.1667E+00
    -17.288  0.0000E+00  0.1667E+00
    -17.137  0.0000E+00  0.1667E+00
    -16.986  0.0000E+00  0.1667E+00
    -16.835  0.1163E-29  0.1667E+00
    -16.685  0.5875E-20  0.1667E+00
    -16.534  0.2918E-12  0.1667E+00
    -16.383  0.1299E-06  0.1667E+00
    -16.232  0.3424E-03  0.1667E+00
    -16.081 -0.7801E-02  0.1655E+00
    -15.930  0.1991E+00  0.1956E+00
    -15.779  0.5447E+00  0.2778E+00
    -15.628  0.4154E+00  0.3404E+00
    -15.478  0.1826E+00  0.3680E+00
    -15.327 -0.9066E-02  0.3666E+00
    -15.176  0.3278E-03  0.3667E+00
    -15.025  0.9993E-07  0.3667E+00
    -14.874  0.1631E-12  0.3667E+00
    -14.723  0.0000E+00  0.3667E+00
    -14.572  0.0000E+00  0.3667E+00
    -14.421  0.0000E+00  0.3667E+00
    -14.271  0.0000E+00  0.3667E+00
    -14.120  0.0000E+00  0.3667E+00
    -13.969  0.0000E+00  0.3667E+00
    -13.818  0.0000E+00  0.3667E+00
    -13.667  0.0000E+00  0.3667E+00
    -13.516  0.0000E+00  0.3667E+00
    -13.365  0.0000E+00  0.3667E+00
    -13.215  0.0000E+00  0.3667E+00
    -13.064  0.0000E+00  0.3667E+00
    -12.913  0.0000E+00  0.3667E+00
    -12.762  0.0000E+00  0.3667E+00
    -12.611  0.0000E+00  0.3667E+00
    -12.460  0.0000E+00  0.3667E+00
    -12.309  0.0000E+00  0.3667E+00
    -12.158  0.0000E+00  0.3667E+00
    -12.008  0.0000E+00  0.3667E+00
    -11.857  0.0000E+00  0.3667E+00
    -11.706  0.0000E+00  0.3667E+00
    -11.555  0.0000E+00  0.3667E+00
    -11.404  0.0000E+00  0.3667E+00
    -11.253  0.0000E+00  0.3667E+00
    -11.102  0.0000E+00  0.3667E+00
    -10.952  0.0000E+00  0.3667E+00
    -10.801  0.0000E+00  0.3667E+00
    -10.650  0.0000E+00  0.3667E+00
    -10.499  0.0000E+00  0.3667E+00
    -10.348  0.0000E+00  0.3667E+00
    -10.197  0.0000E+00  0.3667E+00
    -10.046  0.0000E+00  0.3667E+00
     -9.895  0.0000E+00  0.3667E+00
     -9.745  0.0000E+00  0.3667E+00
     -9.594  0.0000E+00  0.3667E+00
     -9.443  0.2263E-34  0.3667E+00
     -9.292  0.4040E-24  0.3667E+00
     -9.141  0.6542E-16  0.3667E+00
     -8.990  0.8569E-10  0.3667E+00
     -8.839  0.6793E-06  0.3667E+00
     -8.688  0.7322E-05  0.3667E+00
     -8.538  0.5162E-03  0.3667E+00
     -8.387  0.1103E-01  0.3684E+00
     -8.236  0.1968E-01  0.3714E+00
     -8.085  0.3333E-01  0.3764E+00
     -7.934  0.5437E-01  0.3846E+00
     -7.783  0.7025E-01  0.3952E+00
     -7.632  0.3271E-01  0.4001E+00
     -7.482  0.1551E-02  0.4004E+00
     -7.331  0.2961E-01  0.4048E+00
     -7.180  0.1199E+00  0.4229E+00
     -7.029  0.6185E-01  0.4323E+00
     -6.878  0.7243E-02  0.4334E+00
     -6.727 -0.6947E-03  0.4333E+00
     -6.576  0.2173E-01  0.4365E+00
     -6.425  0.5662E-01  0.4451E+00
     -6.275  0.2523E-01  0.4489E+00
     -6.124  0.5946E-01  0.4579E+00
     -5.973  0.2719E-01  0.4620E+00
     -5.822  0.2609E-01  0.4659E+00
     -5.671  0.4883E-02  0.4666E+00
     -5.520  0.2679E-01  0.4707E+00
     -5.369  0.1603E+00  0.4949E+00
     -5.219  0.3478E-01  0.5001E+00
     -5.068 -0.7253E-03  0.5000E+00
     -4.917  0.5471E-04  0.5000E+00
     -4.766  0.3303E-07  0.5000E+00
     -4.615  0.6877E-06  0.5000E+00
     -4.464  0.1101E-03  0.5000E+00
     -4.313  0.3087E-04  0.5000E+00
     -4.162  0.6052E-01  0.5092E+00
     -4.012  0.1241E+00  0.5279E+00
     -3.861  0.3604E-01  0.5333E+00
     -3.710  0.3245E-04  0.5333E+00
     -3.559  0.6757E-04  0.5333E+00
     -3.408  0.2521E-06  0.5333E+00
     -3.257  0.9733E-05  0.5333E+00
     -3.106 -0.1995E-03  0.5333E+00
     -2.955  0.8349E-02  0.5346E+00
     -2.805  0.4869E-01  0.5419E+00
     -2.654  0.1081E+00  0.5582E+00
     -2.503  0.1043E+00  0.5740E+00
     -2.352  0.1101E+00  0.5906E+00
     -2.201  0.1276E+00  0.6098E+00
     -2.050  0.1462E+00  0.6319E+00
     -1.899  0.1491E+00  0.6544E+00
     -1.749  0.8092E-01  0.6666E+00
     -1.598  0.1243E+00  0.6853E+00
     -1.447  0.1358E+00  0.7058E+00
     -1.296  0.1356E+00  0.7263E+00
     -1.145  0.5909E-01  0.7352E+00
     -0.994  0.5233E-01  0.7431E+00
     -0.843  0.7090E-01  0.7538E+00
     -0.692  0.6881E-01  0.7642E+00
     -0.542  0.1692E-01  0.7667E+00
     -0.391  0.5817E-02  0.7676E+00
     -0.240  0.1755E+00  0.7941E+00
     -0.089  0.3979E-01  0.8001E+00
      0.062 -0.5773E-03  0.8000E+00
      0.213  0.5136E-04  0.8000E+00
      0.364  0.3547E-07  0.8000E+00
      0.514  0.1657E-12  0.8000E+00
      0.665  0.0000E+00  0.8000E+00
      0.816  0.0000E+00  0.8000E+00
      0.967  0.0000E+00  0.8000E+00
      1.118  0.0000E+00  0.8000E+00
      1.269  0.0000E+00  0.8000E+00
      1.420  0.0000E+00  0.8000E+00
      1.571  0.0000E+00  0.8000E+00
      1.721  0.0000E+00  0.8000E+00
      1.872  0.0000E+00  0.8000E+00
      2.023  0.0000E+00  0.8000E+00
      2.174  0.8425E-31  0.8000E+00
      2.325  0.4268E-21  0.8000E+00
      2.476  0.1989E-13  0.8000E+00
      2.627  0.7471E-08  0.8000E+00
      2.778  0.1406E-04  0.8000E+00
      2.928 -0.1633E-03  0.8000E+00
      3.079  0.7172E-02  0.8011E+00
      3.230  0.4819E-01  0.8083E+00
      3.381  0.7303E-01  0.8193E+00
      3.532  0.7551E-01  0.8307E+00
      3.683  0.9394E-01  0.8449E+00
      3.834  0.9824E-01  0.8597E+00
      3.984  0.4968E-01  0.8672E+00
      4.135  0.4540E-01  0.8741E+00
      4.286  0.8842E-01  0.8874E+00
      4.437  0.9573E-01  0.9019E+00
      4.588  0.9474E-01  0.9162E+00
      4.739  0.8154E-01  0.9285E+00
      4.890  0.9354E-01  0.9426E+00
      5.041  0.1014E+00  0.9579E+00
      5.191  0.9659E-01  0.9724E+00
      5.342  0.1125E+00  0.9894E+00
      5.493  0.9155E-01  0.1003E+01
      5.644  0.1194E+00  0.1021E+01
      5.795  0.9662E-01  0.1036E+01
      5.946  0.1151E+00  0.1053E+01
      6.097  0.1179E+00  0.1071E+01
      6.247  0.1271E+00  0.1090E+01
      6.398  0.1179E+00  0.1108E+01
      6.549  0.1226E+00  0.1126E+01
      6.700  0.1181E+00  0.1144E+01
      6.851  0.1080E+00  0.1161E+01
      7.002  0.1096E+00  0.1177E+01
      7.153  0.9298E-01  0.1191E+01
      7.304  0.5523E-01  0.1199E+01
      7.454  0.3840E-02  0.1200E+01
      7.605 -0.8287E-04  0.1200E+01
      7.756  0.7047E-05  0.1200E+01
      7.907  0.2009E-08  0.1200E+01
      8.058  0.3207E-14  0.1200E+01
      8.209  0.0000E+00  0.1200E+01
      8.360  0.0000E+00  0.1200E+01
      8.510  0.0000E+00  0.1200E+01
      8.661  0.0000E+00  0.1200E+01
      8.812  0.0000E+00  0.1200E+01
      8.963  0.0000E+00  0.1200E+01
      9.114  0.0000E+00  0.1200E+01
      9.265  0.0000E+00  0.1200E+01
      9.416  0.0000E+00  0.1200E+01
