       N       E                     dE             d eps       ncg     rms          rms(c)
DAV:   1     0.489209309394E+03    0.48921E+03   -0.27737E+04  6144   0.117E+03
DAV:   2    -0.467042395713E+02   -0.53591E+03   -0.50565E+03  6240   0.420E+02
DAV:   3    -0.862022794784E+02   -0.39498E+02   -0.37906E+02 10768   0.977E+01
DAV:   4    -0.876929828418E+02   -0.14907E+01   -0.14795E+01  8512   0.145E+01
DAV:   5    -0.877530711258E+02   -0.60088E-01   -0.60169E-01 10592   0.291E+00    0.505E+01
RMM:   6    -0.872155215858E+02    0.53755E+00   -0.14452E+01  6964   0.154E+01    0.214E+01
RMM:   7    -0.874500057534E+02   -0.23448E+00   -0.49334E+00  6975   0.101E+01    0.776E+00
RMM:   8    -0.873873474476E+02    0.62658E-01   -0.70505E-01  7177   0.477E+00    0.479E+00
RMM:   9    -0.873401059128E+02    0.47242E-01   -0.13777E-01  7218   0.174E+00    0.246E+00
RMM:  10    -0.873440098557E+02   -0.39039E-02   -0.56711E-02  7090   0.109E+00    0.129E+00
RMM:  11    -0.873427173326E+02    0.12925E-02   -0.19940E-02  6890   0.688E-01    0.458E-01
RMM:  12    -0.873425337186E+02    0.18361E-03   -0.39014E-03  5317   0.331E-01
   1 F= -.87342534E+02 E0= -.87342534E+02  d E =-.873425E+02  mag=     0.0583
       N       E                     dE             d eps       ncg     rms          rms(c)
DAV:   1    -0.877541441310E+02   -0.41143E+00   -0.70474E+00  8192   0.166E+01    0.682E+00
RMM:   2    -0.874681056962E+02    0.28604E+00   -0.85671E-01  7266   0.494E+00    0.144E+00
RMM:   3    -0.874381741438E+02    0.29932E-01   -0.11282E-01  7113   0.214E+00    0.933E-01
RMM:   4    -0.874287511459E+02    0.94230E-02   -0.23325E-02  7024   0.886E-01    0.791E-01
RMM:   5    -0.874256967344E+02    0.30544E-02   -0.44688E-03  5046   0.501E-01    0.716E-01
RMM:   6    -0.874251937858E+02    0.50295E-03   -0.66248E-03  5435   0.402E-01
   2 F= -.87425194E+02 E0= -.87425194E+02  d E =-.826601E-01  mag=     0.0258
       N       E                     dE             d eps       ncg     rms          rms(c)
DAV:   1    -0.874913065234E+02   -0.65610E-01   -0.13159E+00  6656   0.715E+00    0.303E+00
RMM:   2    -0.874349754001E+02    0.56331E-01   -0.15605E-01  7027   0.219E+00    0.592E-01
RMM:   3    -0.874299982494E+02    0.49772E-02   -0.25234E-02  6788   0.987E-01    0.381E-01
RMM:   4    -0.874284038774E+02    0.15944E-02   -0.39547E-03  5135   0.366E-01    0.408E-01
RMM:   5    -0.874278790746E+02    0.52480E-03   -0.95742E-04  4344   0.307E-01
   3 F= -.87427879E+02 E0= -.87427879E+02  d E =-.853454E-01  mag=     0.0156
       N       E                     dE             d eps       ncg     rms          rms(c)
DAV:   1    -0.874671226133E+02   -0.38719E-01   -0.30458E+00  6928   0.111E+01    0.276E+00
RMM:   2    -0.874268276250E+02    0.40295E-01   -0.33671E-01  7053   0.336E+00    0.623E-01
RMM:   3    -0.874212435576E+02    0.55841E-02   -0.37839E-02  6857   0.151E+00    0.591E-01
RMM:   4    -0.874198901797E+02    0.13534E-02   -0.67173E-03  5857   0.500E-01    0.555E-01
RMM:   5    -0.874190272842E+02    0.86290E-03   -0.16725E-03  4495   0.381E-01
   4 F= -.87419027E+02 E0= -.87419027E+02  d E =0.885179E-02  mag=     0.0098
       N       E                     dE             d eps       ncg     rms          rms(c)
DAV:   1    -0.874544309987E+02   -0.34541E-01   -0.11092E+00  7104   0.662E+00    0.176E+00
RMM:   2    -0.874422518164E+02    0.12179E-01   -0.12300E-01  7059   0.197E+00    0.390E-01
RMM:   3    -0.874399159496E+02    0.23359E-02   -0.12487E-02  6270   0.920E-01    0.312E-01
RMM:   4    -0.874395641524E+02    0.35180E-03   -0.21669E-03  4621   0.314E-01
   5 F= -.87439564E+02 E0= -.87439564E+02  d E =-.116851E-01  mag=     0.0071
       N       E                     dE             d eps       ncg     rms          rms(c)
DAV:   1    -0.874405159713E+02   -0.60002E-03   -0.16652E+00  7168   0.101E+01    0.810E-01
RMM:   2    -0.874577571423E+02   -0.17241E-01   -0.20961E-01  6945   0.218E+00    0.441E-01
RMM:   3    -0.874576013295E+02    0.15581E-03   -0.14982E-02  5647   0.136E+00    0.198E-01
RMM:   4    -0.874575323997E+02    0.68930E-04   -0.32486E-03  4838   0.340E-01
   6 F= -.87457532E+02 E0= -.87457532E+02  d E =-.179682E-01  mag=     0.0048
       N       E                     dE             d eps       ncg     rms          rms(c)
DAV:   1    -0.874569382193E+02    0.66311E-03   -0.23946E-01  8288   0.378E+00    0.354E-01
RMM:   2    -0.874596022030E+02   -0.26640E-02   -0.31095E-02  6472   0.849E-01    0.215E-01
RMM:   3    -0.874595573411E+02    0.44862E-04   -0.24397E-03  4702   0.574E-01
   7 F= -.87459557E+02 E0= -.87459557E+02  d E =-.199932E-01  mag=     0.0032
       N       E                     dE             d eps       ncg     rms          rms(c)
DAV:   1    -0.874700066414E+02   -0.10404E-01   -0.64839E-01  6208   0.467E+00    0.404E-01
RMM:   2    -0.874717416320E+02   -0.17350E-02   -0.54077E-02  7015   0.125E+00    0.355E-01
RMM:   3    -0.874711057448E+02    0.63589E-03   -0.38204E-03  4981   0.619E-01
   8 F= -.87471106E+02 E0= -.87471106E+02  d E =-.115484E-01  mag=     0.0026
       N       E                     dE             d eps       ncg     rms          rms(c)
DAV:   1    -0.874708255551E+02    0.91608E-03   -0.19953E-03  6064   0.364E-01    0.266E-01
RMM:   2    -0.874707353557E+02    0.90199E-04   -0.60943E-04  3206   0.170E-01
   9 F= -.87470735E+02 E0= -.87470735E+02  d E =-.111780E-01  mag=     0.0022
       N       E                     dE             d eps       ncg     rms          rms(c)
DAV:   1    -0.874816829838E+02   -0.10857E-01   -0.86794E-01  7168   0.667E+00    0.752E-01
RMM:   2    -0.874832638931E+02   -0.15809E-02   -0.10490E-01  7283   0.165E+00    0.279E-01
RMM:   3    -0.874822775666E+02    0.98633E-03   -0.72676E-03  5238   0.826E-01
  10 F= -.87482278E+02 E0= -.87482278E+02  d E =-.115422E-01  mag=     0.0017
       N       E                     dE             d eps       ncg     rms          rms(c)
DAV:   1    -0.874874152804E+02   -0.41514E-02   -0.16341E+00  7168   0.915E+00    0.986E-01
RMM:   2    -0.874899125651E+02   -0.24973E-02   -0.20547E-01  7239   0.229E+00    0.446E-01
RMM:   3    -0.874880246534E+02    0.18879E-02   -0.17007E-02  6305   0.122E+00    0.406E-01
RMM:   4    -0.874867910860E+02    0.12336E-02   -0.36872E-03  4789   0.364E-01    0.462E-01
RMM:   5    -0.874866665891E+02    0.12450E-03   -0.62001E-04  4109   0.271E-01
  11 F= -.87486667E+02 E0= -.87486667E+02  d E =-.159312E-01  mag=     0.0012
       N       E                     dE             d eps       ncg     rms          rms(c)
DAV:   1    -0.875147469416E+02   -0.27956E-01   -0.13166E+00  7168   0.797E+00    0.170E+00
RMM:   2    -0.874979079515E+02    0.16839E-01   -0.16580E-01  6994   0.222E+00    0.377E-01
RMM:   3    -0.874949421568E+02    0.29658E-02   -0.15972E-02  6391   0.113E+00    0.401E-01
RMM:   4    -0.874942020136E+02    0.74014E-03   -0.27825E-03  4863   0.330E-01
  12 F= -.87494202E+02 E0= -.87494202E+02  d E =-.753542E-02  mag=     0.0009
       N       E                     dE             d eps       ncg     rms          rms(c)
DAV:   1    -0.875078657771E+02   -0.12924E-01   -0.79992E-01  7552   0.619E+00    0.122E+00
RMM:   2    -0.874963254622E+02    0.11540E-01   -0.10256E-01  7037   0.171E+00    0.340E-01
RMM:   3    -0.874941078394E+02    0.22176E-02   -0.10013E-02  5981   0.925E-01    0.439E-01
RMM:   4    -0.874936487839E+02    0.45906E-03   -0.17509E-03  4339   0.283E-01
  13 F= -.87493649E+02 E0= -.87493649E+02  d E =-.698219E-02  mag=     0.0007
