       N       E                     dE             d eps       ncg     rms          rms(c)
DAV:   1     0.305037354403E+03    0.30504E+03   -0.20419E+04 11136   0.890E+02
DAV:   2    -0.473239155389E+02   -0.35236E+03   -0.33371E+03 11504   0.297E+02
DAV:   3    -0.670611512123E+02   -0.19737E+02   -0.19439E+02 18976   0.677E+01
DAV:   4    -0.673951371298E+02   -0.33399E+00   -0.33339E+00 13904   0.609E+00
DAV:   5    -0.674020821629E+02   -0.69450E-02   -0.69517E-02 17008   0.921E-01    0.455E+01
RMM:   6    -0.669740358733E+02    0.42805E+00   -0.68815E+00 11978   0.100E+01    0.190E+01
RMM:   7    -0.667146265958E+02    0.25941E+00   -0.12474E+00 11890   0.586E+00    0.786E+00
RMM:   8    -0.667047882929E+02    0.98383E-02   -0.17598E-01 12075   0.259E+00    0.441E+00
RMM:   9    -0.666982718695E+02    0.65164E-02   -0.42379E-02 11368   0.107E+00    0.202E+00
RMM:  10    -0.667023532826E+02   -0.40814E-02   -0.16428E-02 10836   0.806E-01    0.747E-01
RMM:  11    -0.667034984432E+02   -0.11452E-02   -0.34219E-03 10373   0.355E-01    0.241E-01
RMM:  12    -0.667034257984E+02    0.72645E-04   -0.80467E-04  8341   0.203E-01
   1 F= -.66703426E+02 E0= -.66703426E+02  d E =-.667034E+02  mag=    -0.0018
       N       E                     dE             d eps       ncg     rms          rms(c)
DAV:   1    -0.669671005600E+02   -0.26360E+00   -0.36704E+00 14000   0.109E+01    0.545E+00
RMM:   2    -0.667870298098E+02    0.18007E+00   -0.37635E-01 11965   0.296E+00    0.105E+00
RMM:   3    -0.667636312425E+02    0.23399E-01   -0.29998E-02 11937   0.129E+00    0.763E-01
RMM:   4    -0.667593999612E+02    0.42313E-02   -0.99045E-03 11213   0.548E-01    0.792E-01
RMM:   5    -0.667592701821E+02    0.12978E-03   -0.29161E-03  9426   0.396E-01
   2 F= -.66759270E+02 E0= -.66759270E+02  d E =-.558444E-01  mag=    -0.0001
       N       E                     dE             d eps       ncg     rms          rms(c)
DAV:   1    -0.670777785163E+02   -0.31838E+00   -0.55997E+00 11184   0.134E+01    0.669E+00
RMM:   2    -0.667956011521E+02    0.28218E+00   -0.57123E-01 11791   0.369E+00    0.133E+00
RMM:   3    -0.667566366510E+02    0.38965E-01   -0.47775E-02 11686   0.165E+00    0.966E-01
RMM:   4    -0.667504724637E+02    0.61642E-02   -0.18060E-02 11842   0.738E-01    0.108E+00
RMM:   5    -0.667508582747E+02   -0.38581E-03   -0.52941E-03 10445   0.478E-01
   3 F= -.66750858E+02 E0= -.66750858E+02  d E =-.474325E-01  mag=     0.0000
       N       E                     dE             d eps       ncg     rms          rms(c)
DAV:   1    -0.668402137384E+02   -0.89741E-01   -0.26232E+00 11920   0.881E+00    0.352E+00
RMM:   2    -0.667590260135E+02    0.81188E-01   -0.24272E-01 11708   0.250E+00    0.791E-01
RMM:   3    -0.667485953245E+02    0.10431E-01   -0.22600E-02 11979   0.120E+00    0.629E-01
RMM:   4    -0.667469346165E+02    0.16607E-02   -0.76490E-03 11082   0.453E-01    0.666E-01
RMM:   5    -0.667472626555E+02   -0.32804E-03   -0.31472E-03  9763   0.335E-01
   4 F= -.66747263E+02 E0= -.66747263E+02  d E =0.359562E-02  mag=    -0.0000
       N       E                     dE             d eps       ncg     rms          rms(c)
DAV:   1    -0.667870099600E+02   -0.40075E-01   -0.10560E+00 12320   0.551E+00    0.207E+00
RMM:   2    -0.667643724824E+02    0.22637E-01   -0.97876E-02 12007   0.152E+00    0.447E-01
RMM:   3    -0.667591444324E+02    0.52280E-02   -0.69401E-03 11248   0.695E-01    0.294E-01
RMM:   4    -0.667581512033E+02    0.99323E-03   -0.20866E-03  9372   0.292E-01    0.360E-01
RMM:   5    -0.667581856403E+02   -0.34437E-04   -0.52202E-04  7204   0.198E-01
   5 F= -.66758186E+02 E0= -.66758186E+02  d E =-.732737E-02  mag=    -0.0000
