unknown system                          
           1
     3.356080   -0.458370   -0.284288
     0.889956    6.233608    0.571530
     0.617407    2.770917    4.564302
   H    Nb   H    Sr
   6   1   2   1
Direct configuration=     1
   0.32802026  0.72703364  0.91793686
   0.33712210  0.81920051  0.48817263
   0.28444258  0.28976695  0.31548620
   0.48841909  0.23419186  0.30806201
   0.83193045  0.27845422  0.02043482
   0.82687921  0.66922499  0.67197589
   0.35616119  0.48185796  0.83176587
   0.32090196  0.16254843  0.87753943
   0.33282313  0.51660237  0.47226979
   0.83111302  0.84305806  0.11632950
unknown system                          
           1
     3.354472   -0.457309   -0.282820
     0.891938    6.232514    0.575524
     0.620413    2.772958    4.566091
   H    Nb   H    Sr
   6   1   2   1
Direct configuration=     2
   0.32819976  0.72694394  0.91793759
   0.33722667  0.81903473  0.48826273
   0.28351696  0.28995362  0.31516021
   0.48846682  0.23400071  0.30797525
   0.83162008  0.27860766  0.02017780
   0.82721373  0.66921702  0.67204511
   0.35603688  0.48184904  0.83185759
   0.32107069  0.16260266  0.87777135
   0.33321004  0.51661201  0.47221273
   0.83125137  0.84311762  0.11657265
unknown system                          
           1
     3.351079   -0.455072   -0.279724
     0.896120    6.230207    0.583949
     0.626755    2.777264    4.569864
   H    Nb   H    Sr
   6   1   2   1
Direct configuration=     3
   0.32857870  0.72675460  0.91793920
   0.33744742  0.81868477  0.48845299
   0.28156370  0.29034775  0.31447301
   0.48856792  0.23359729  0.30779269
   0.83096524  0.27893163  0.01963573
   0.82791965  0.66920016  0.67219089
   0.35577438  0.48183016  0.83205106
   0.32142637  0.16271702  0.87826014
   0.33402674  0.51663238  0.47209216
   0.83154289  0.84324324  0.11708513
