  12  12   1   0
  0.9781559E+01  0.3877730E-09  0.3808592E-09  0.8394104E-09  0.5000000E-15
  1.000000000000000E-004
  CAR 
 unknown system                          
     11.28402892    -34.86485468  301      0.99667362      1.00000000
    -34.865  0.0000E+00  0.0000E+00  0.0000E+00  0.0000E+00
    -34.711  0.0000E+00  0.0000E+00  0.0000E+00  0.0000E+00
    -34.557  0.0000E+00  0.0000E+00  0.0000E+00  0.0000E+00
    -34.403  0.0000E+00  0.0000E+00  0.0000E+00  0.0000E+00
    -34.250  0.0000E+00  0.0000E+00  0.0000E+00  0.0000E+00
    -34.096  0.0000E+00  0.0000E+00  0.0000E+00  0.0000E+00
    -33.942  0.0000E+00  0.0000E+00  0.0000E+00  0.0000E+00
    -33.788  0.0000E+00  0.0000E+00  0.0000E+00  0.0000E+00
    -33.634  0.0000E+00  0.0000E+00  0.0000E+00  0.0000E+00
    -33.480  0.0000E+00  0.0000E+00  0.0000E+00  0.0000E+00
    -33.327  0.0000E+00  0.0000E+00  0.0000E+00  0.0000E+00
    -33.173  0.0000E+00  0.0000E+00  0.0000E+00  0.0000E+00
    -33.019  0.0000E+00  0.0000E+00  0.0000E+00  0.0000E+00
    -32.865  0.0000E+00  0.0000E+00  0.0000E+00  0.0000E+00
    -32.711  0.0000E+00  0.0000E+00  0.1010E-01  0.1010E-01
    -32.557  0.4211E+00  0.4211E+00  0.1352E-01  0.1352E-01
    -32.404  0.0000E+00  0.0000E+00  0.2020E-01  0.2020E-01
    -32.250  0.0000E+00  0.0000E+00  0.2020E-01  0.2020E-01
    -32.096  0.0000E+00  0.0000E+00  0.2020E-01  0.2020E-01
    -31.942  0.0000E+00  0.0000E+00  0.2020E-01  0.2020E-01
    -31.788  0.0000E+00  0.0000E+00  0.2020E-01  0.2020E-01
    -31.634  0.0000E+00  0.0000E+00  0.2020E-01  0.2020E-01
    -31.481  0.0000E+00  0.0000E+00  0.2020E-01  0.2020E-01
    -31.327  0.0000E+00  0.0000E+00  0.2020E-01  0.2020E-01
    -31.173  0.0000E+00  0.0000E+00  0.2020E-01  0.2020E-01
    -31.019  0.0000E+00  0.0000E+00  0.2020E-01  0.2020E-01
    -30.865  0.0000E+00  0.0000E+00  0.2020E-01  0.2020E-01
    -30.711  0.0000E+00  0.0000E+00  0.2020E-01  0.2020E-01
    -30.558  0.0000E+00  0.0000E+00  0.2020E-01  0.2020E-01
    -30.404  0.0000E+00  0.0000E+00  0.2020E-01  0.2020E-01
    -30.250  0.0000E+00  0.0000E+00  0.2020E-01  0.2020E-01
    -30.096  0.0000E+00  0.0000E+00  0.2020E-01  0.2020E-01
    -29.942  0.0000E+00  0.0000E+00  0.2020E-01  0.2020E-01
    -29.788  0.0000E+00  0.0000E+00  0.2020E-01  0.2020E-01
    -29.635  0.0000E+00  0.0000E+00  0.2020E-01  0.2020E-01
    -29.481  0.0000E+00  0.0000E+00  0.2020E-01  0.2020E-01
    -29.327  0.0000E+00  0.0000E+00  0.2020E-01  0.2020E-01
    -29.173  0.0000E+00  0.0000E+00  0.4040E-01  0.4040E-01
    -29.019  0.0000E+00  0.0000E+00  0.5051E-01  0.5051E-01
    -28.865  0.0000E+00  0.0000E+00  0.5051E-01  0.5051E-01
    -28.712  0.0000E+00  0.0000E+00  0.5051E-01  0.5051E-01
    -28.558  0.0000E+00  0.0000E+00  0.5051E-01  0.5051E-01
    -28.404  0.0000E+00  0.0000E+00  0.5051E-01  0.5051E-01
    -28.250  0.0000E+00  0.0000E+00  0.5051E-01  0.5051E-01
    -28.096  0.0000E+00  0.0000E+00  0.5051E-01  0.5051E-01
    -27.943  0.0000E+00  0.0000E+00  0.5051E-01  0.5051E-01
    -27.789  0.0000E+00  0.0000E+00  0.5051E-01  0.5051E-01
    -27.635  0.0000E+00  0.0000E+00  0.5051E-01  0.5051E-01
    -27.481  0.0000E+00  0.0000E+00  0.5051E-01  0.5051E-01
    -27.327  0.0000E+00  0.0000E+00  0.5051E-01  0.5051E-01
    -27.173  0.0000E+00  0.0000E+00  0.5051E-01  0.5051E-01
    -27.020  0.0000E+00  0.0000E+00  0.5051E-01  0.5051E-01
    -26.866  0.0000E+00  0.0000E+00  0.5051E-01  0.5051E-01
    -26.712  0.0000E+00  0.0000E+00  0.5051E-01  0.5051E-01
    -26.558  0.0000E+00  0.0000E+00  0.5051E-01  0.5051E-01
    -26.404  0.0000E+00  0.0000E+00  0.5051E-01  0.5051E-01
    -26.250  0.0000E+00  0.0000E+00  0.5051E-01  0.5051E-01
    -26.097  0.0000E+00  0.0000E+00  0.5051E-01  0.5051E-01
    -25.943  0.0000E+00  0.0000E+00  0.5051E-01  0.5051E-01
    -25.789  0.0000E+00  0.0000E+00  0.5051E-01  0.5051E-01
    -25.635  0.0000E+00  0.0000E+00  0.5051E-01  0.5051E-01
    -25.481  0.0000E+00  0.0000E+00  0.5051E-01  0.5051E-01
    -25.327  0.0000E+00  0.0000E+00  0.5051E-01  0.5051E-01
    -25.174  0.0000E+00  0.0000E+00  0.5051E-01  0.5051E-01
    -25.020  0.0000E+00  0.0000E+00  0.5051E-01  0.5051E-01
    -24.866  0.0000E+00  0.0000E+00  0.5051E-01  0.5051E-01
    -24.712  0.0000E+00  0.0000E+00  0.5051E-01  0.5051E-01
    -24.558  0.0000E+00  0.0000E+00  0.5051E-01  0.5051E-01
    -24.404  0.0000E+00  0.0000E+00  0.5051E-01  0.5051E-01
    -24.251  0.0000E+00  0.0000E+00  0.5051E-01  0.5051E-01
    -24.097  0.0000E+00  0.0000E+00  0.5051E-01  0.5051E-01
    -23.943  0.0000E+00  0.0000E+00  0.5051E-01  0.5051E-01
    -23.789  0.0000E+00  0.0000E+00  0.5051E-01  0.5051E-01
    -23.635  0.0000E+00  0.0000E+00  0.5051E-01  0.5051E-01
    -23.481  0.0000E+00  0.0000E+00  0.5051E-01  0.5051E-01
    -23.328  0.0000E+00  0.0000E+00  0.5051E-01  0.5051E-01
    -23.174  0.0000E+00  0.0000E+00  0.5051E-01  0.5051E-01
    -23.020  0.0000E+00  0.0000E+00  0.5051E-01  0.5051E-01
    -22.866  0.0000E+00  0.0000E+00  0.5051E-01  0.5051E-01
    -22.712  0.0000E+00  0.0000E+00  0.5051E-01  0.5051E-01
    -22.558  0.0000E+00  0.0000E+00  0.5051E-01  0.5051E-01
    -22.405  0.0000E+00  0.0000E+00  0.5051E-01  0.5051E-01
    -22.251  0.0000E+00  0.0000E+00  0.5051E-01  0.5051E-01
    -22.097  0.0000E+00  0.0000E+00  0.5051E-01  0.5051E-01
    -21.943  0.0000E+00  0.0000E+00  0.5051E-01  0.5051E-01
    -21.789  0.0000E+00  0.0000E+00  0.5051E-01  0.5051E-01
    -21.636  0.0000E+00  0.0000E+00  0.5051E-01  0.5051E-01
    -21.482  0.0000E+00  0.0000E+00  0.5051E-01  0.5051E-01
    -21.328  0.0000E+00  0.0000E+00  0.5051E-01  0.5051E-01
    -21.174  0.0000E+00  0.0000E+00  0.5051E-01  0.5051E-01
    -21.020  0.0000E+00  0.0000E+00  0.5051E-01  0.5051E-01
    -20.866  0.0000E+00  0.0000E+00  0.5051E-01  0.5051E-01
    -20.713  0.0000E+00  0.0000E+00  0.5051E-01  0.5051E-01
    -20.559  0.0000E+00  0.0000E+00  0.5051E-01  0.5051E-01
    -20.405  0.0000E+00  0.0000E+00  0.5051E-01  0.5051E-01
    -20.251  0.0000E+00  0.0000E+00  0.5051E-01  0.5051E-01
    -20.097  0.0000E+00  0.0000E+00  0.5051E-01  0.5051E-01
    -19.943  0.0000E+00  0.0000E+00  0.5051E-01  0.5051E-01
    -19.790  0.0000E+00  0.0000E+00  0.5051E-01  0.5051E-01
    -19.636  0.0000E+00  0.0000E+00  0.5051E-01  0.5051E-01
    -19.482  0.0000E+00  0.0000E+00  0.5051E-01  0.5051E-01
    -19.328  0.0000E+00  0.0000E+00  0.5051E-01  0.5051E-01
    -19.174  0.0000E+00  0.0000E+00  0.5051E-01  0.5051E-01
    -19.020  0.0000E+00  0.0000E+00  0.5051E-01  0.5051E-01
    -18.867  0.0000E+00  0.0000E+00  0.5051E-01  0.5051E-01
    -18.713  0.0000E+00  0.0000E+00  0.5051E-01  0.5051E-01
    -18.559  0.0000E+00  0.0000E+00  0.5051E-01  0.5051E-01
    -18.405  0.0000E+00  0.0000E+00  0.5051E-01  0.5051E-01
    -18.251  0.0000E+00  0.0000E+00  0.5051E-01  0.5051E-01
    -18.097  0.0000E+00  0.0000E+00  0.5051E-01  0.5051E-01
    -17.944  0.0000E+00  0.0000E+00  0.5051E-01  0.5051E-01
    -17.790  0.0000E+00  0.0000E+00  0.5051E-01  0.5051E-01
    -17.636  0.0000E+00  0.0000E+00  0.5051E-01  0.5051E-01
    -17.482  0.0000E+00  0.0000E+00  0.5051E-01  0.5051E-01
    -17.328  0.0000E+00  0.0000E+00  0.5051E-01  0.5051E-01
    -17.174  0.0000E+00  0.0000E+00  0.5051E-01  0.5051E-01
    -17.021  0.0000E+00  0.0000E+00  0.5051E-01  0.5051E-01
    -16.867  0.0000E+00  0.0000E+00  0.5051E-01  0.5051E-01
    -16.713  0.0000E+00  0.0000E+00  0.5051E-01  0.5051E-01
    -16.559  0.0000E+00  0.0000E+00  0.5051E-01  0.5051E-01
    -16.405  0.0000E+00  0.0000E+00  0.5051E-01  0.5051E-01
    -16.251  0.0000E+00  0.0000E+00  0.5051E-01  0.5051E-01
    -16.098  0.0000E+00  0.0000E+00  0.5051E-01  0.5051E-01
    -15.944  0.0000E+00  0.0000E+00  0.5051E-01  0.5051E-01
    -15.790  0.0000E+00  0.0000E+00  0.5051E-01  0.5051E-01
    -15.636  0.0000E+00  0.0000E+00  0.5051E-01  0.5051E-01
    -15.482  0.0000E+00  0.0000E+00  0.5051E-01  0.5051E-01
    -15.328  0.0000E+00  0.0000E+00  0.5051E-01  0.5051E-01
    -15.175  0.0000E+00  0.0000E+00  0.5051E-01  0.5051E-01
    -15.021  0.3088E-01  0.3090E-01  0.5091E-01  0.5091E-01
    -14.867  0.3501E-01  0.3501E-01  0.6768E-01  0.6768E-01
    -14.713  0.1662E+00  0.1661E+00  0.8577E-01  0.8577E-01
    -14.559  0.8743E-01  0.8743E-01  0.1068E+00  0.1068E+00
    -14.406  0.0000E+00  0.0000E+00  0.1111E+00  0.1111E+00
    -14.252  0.0000E+00  0.0000E+00  0.1111E+00  0.1111E+00
    -14.098  0.0000E+00  0.0000E+00  0.1111E+00  0.1111E+00
    -13.944  0.0000E+00  0.0000E+00  0.1111E+00  0.1111E+00
    -13.790  0.0000E+00  0.0000E+00  0.1111E+00  0.1111E+00
    -13.636  0.0000E+00  0.0000E+00  0.1111E+00  0.1111E+00
    -13.483  0.0000E+00  0.0000E+00  0.1111E+00  0.1111E+00
    -13.329  0.0000E+00  0.0000E+00  0.1111E+00  0.1111E+00
    -13.175  0.0000E+00  0.0000E+00  0.1111E+00  0.1111E+00
    -13.021  0.0000E+00  0.0000E+00  0.1111E+00  0.1111E+00
    -12.867  0.0000E+00  0.0000E+00  0.1111E+00  0.1111E+00
    -12.713  0.0000E+00  0.0000E+00  0.1111E+00  0.1111E+00
    -12.560  0.0000E+00  0.0000E+00  0.1111E+00  0.1111E+00
    -12.406  0.0000E+00  0.0000E+00  0.1111E+00  0.1111E+00
    -12.252  0.0000E+00  0.0000E+00  0.1111E+00  0.1111E+00
    -12.098  0.0000E+00  0.0000E+00  0.1111E+00  0.1111E+00
    -11.944  0.0000E+00  0.0000E+00  0.1111E+00  0.1111E+00
    -11.790  0.0000E+00  0.0000E+00  0.1111E+00  0.1111E+00
    -11.637  0.0000E+00  0.0000E+00  0.1111E+00  0.1111E+00
    -11.483  0.0000E+00  0.0000E+00  0.1111E+00  0.1111E+00
    -11.329  0.0000E+00  0.0000E+00  0.1111E+00  0.1111E+00
    -11.175  0.0000E+00  0.0000E+00  0.1111E+00  0.1111E+00
    -11.021  0.0000E+00  0.0000E+00  0.1111E+00  0.1111E+00
    -10.867  0.0000E+00  0.0000E+00  0.1111E+00  0.1111E+00
    -10.714  0.0000E+00  0.0000E+00  0.1111E+00  0.1111E+00
    -10.560  0.0000E+00  0.0000E+00  0.1111E+00  0.1111E+00
    -10.406  0.0000E+00  0.0000E+00  0.1111E+00  0.1111E+00
    -10.252  0.0000E+00  0.0000E+00  0.1111E+00  0.1111E+00
    -10.098  0.0000E+00  0.0000E+00  0.1111E+00  0.1111E+00
     -9.944  0.0000E+00  0.0000E+00  0.1111E+00  0.1111E+00
     -9.791  0.0000E+00  0.0000E+00  0.1111E+00  0.1111E+00
     -9.637  0.0000E+00  0.0000E+00  0.1111E+00  0.1111E+00
     -9.483  0.0000E+00  0.0000E+00  0.1111E+00  0.1111E+00
     -9.329  0.0000E+00  0.0000E+00  0.1111E+00  0.1111E+00
     -9.175  0.0000E+00  0.0000E+00  0.1111E+00  0.1111E+00
     -9.021  0.0000E+00  0.0000E+00  0.1111E+00  0.1111E+00
     -8.868  0.0000E+00  0.0000E+00  0.1111E+00  0.1111E+00
     -8.714  0.0000E+00  0.0000E+00  0.1111E+00  0.1111E+00
     -8.560  0.0000E+00  0.0000E+00  0.1111E+00  0.1111E+00
     -8.406  0.0000E+00  0.0000E+00  0.1111E+00  0.1111E+00
     -8.252  0.0000E+00  0.0000E+00  0.1111E+00  0.1111E+00
     -8.099  0.0000E+00  0.0000E+00  0.1111E+00  0.1111E+00
     -7.945  0.0000E+00  0.0000E+00  0.1111E+00  0.1111E+00
     -7.791  0.0000E+00  0.0000E+00  0.1111E+00  0.1111E+00
     -7.637  0.0000E+00  0.0000E+00  0.1111E+00  0.1111E+00
     -7.483  0.0000E+00  0.0000E+00  0.1111E+00  0.1111E+00
     -7.329  0.0000E+00  0.0000E+00  0.1111E+00  0.1111E+00
     -7.176  0.0000E+00  0.0000E+00  0.1111E+00  0.1111E+00
     -7.022  0.0000E+00  0.0000E+00  0.1111E+00  0.1111E+00
     -6.868  0.0000E+00  0.0000E+00  0.1111E+00  0.1111E+00
     -6.714  0.0000E+00  0.0000E+00  0.1111E+00  0.1111E+00
     -6.560  0.0000E+00  0.0000E+00  0.1111E+00  0.1111E+00
     -6.406  0.0000E+00  0.0000E+00  0.1111E+00  0.1111E+00
     -6.253  0.0000E+00  0.0000E+00  0.1111E+00  0.1111E+00
     -6.099  0.9049E-03  0.9047E-03  0.1111E+00  0.1111E+00
     -5.945  0.3143E-02  0.3143E-02  0.1115E+00  0.1115E+00
     -5.791  0.3794E-02  0.3794E-02  0.1120E+00  0.1120E+00
     -5.637  0.3298E-02  0.3298E-02  0.1126E+00  0.1126E+00
     -5.483  0.3491E-02  0.3491E-02  0.1131E+00  0.1131E+00
     -5.330  0.3850E-02  0.3850E-02  0.1137E+00  0.1137E+00
     -5.176  0.4242E-02  0.4242E-02  0.1143E+00  0.1143E+00
     -5.022  0.4924E-02  0.4924E-02  0.1150E+00  0.1150E+00
     -4.868  0.5584E-02  0.5584E-02  0.1158E+00  0.1158E+00
     -4.714  0.6050E-02  0.6050E-02  0.1167E+00  0.1167E+00
     -4.560  0.6013E-02  0.6013E-02  0.1176E+00  0.1176E+00
     -4.407  0.4458E-02  0.4458E-02  0.1184E+00  0.1184E+00
     -4.253  0.3327E-02  0.3327E-02  0.1190E+00  0.1190E+00
     -4.099  0.2969E-02  0.2969E-02  0.1195E+00  0.1195E+00
     -3.945  0.2619E-02  0.2619E-02  0.1199E+00  0.1199E+00
     -3.791  0.2269E-02  0.2269E-02  0.1203E+00  0.1203E+00
     -3.637  0.3126E-02  0.3125E-02  0.1207E+00  0.1207E+00
     -3.484  0.4250E-02  0.4249E-02  0.1213E+00  0.1213E+00
     -3.330  0.1093E-01  0.1093E-01  0.1225E+00  0.1225E+00
     -3.176  0.1603E-01  0.1603E-01  0.1245E+00  0.1245E+00
     -3.022  0.1692E-01  0.1692E-01  0.1273E+00  0.1273E+00
     -2.868  0.1205E-01  0.1205E-01  0.1295E+00  0.1295E+00
     -2.714  0.4718E-01  0.4718E-01  0.1331E+00  0.1331E+00
     -2.561  0.1828E-01  0.1828E-01  0.1373E+00  0.1373E+00
     -2.407  0.2322E-01  0.2322E-01  0.1403E+00  0.1403E+00
     -2.253  0.1939E-01  0.1939E-01  0.1437E+00  0.1437E+00
     -2.099  0.3250E-01  0.3250E-01  0.1477E+00  0.1477E+00
     -1.945  0.4398E-02  0.4399E-02  0.1517E+00  0.1517E+00
     -1.791  0.5292E-02  0.5292E-02  0.1524E+00  0.1524E+00
     -1.638  0.1909E-01  0.1909E-01  0.1539E+00  0.1539E+00
     -1.484  0.2209E-01  0.2209E-01  0.1575E+00  0.1575E+00
     -1.330  0.1709E-01  0.1709E-01  0.1607E+00  0.1607E+00
     -1.176  0.1643E-01  0.1643E-01  0.1630E+00  0.1630E+00
     -1.022  0.2880E-01  0.2880E-01  0.1661E+00  0.1661E+00
     -0.869  0.3035E-01  0.3035E-01  0.1712E+00  0.1712E+00
     -0.715  0.1328E-01  0.1328E-01  0.1747E+00  0.1747E+00
     -0.561  0.1659E-01  0.1658E-01  0.1766E+00  0.1766E+00
     -0.407  0.2459E-01  0.2458E-01  0.1812E+00  0.1812E+00
     -0.253  0.2593E-01  0.2593E-01  0.1860E+00  0.1860E+00
     -0.099  0.2753E-01  0.2753E-01  0.1902E+00  0.1902E+00
      0.054  0.2629E-01  0.2629E-01  0.1943E+00  0.1943E+00
      0.208  0.2094E-01  0.2094E-01  0.1983E+00  0.1983E+00
      0.362  0.8576E-02  0.8578E-02  0.2004E+00  0.2004E+00
      0.516  0.3907E-02  0.3908E-02  0.2013E+00  0.2013E+00
      0.670  0.2357E-02  0.2357E-02  0.2018E+00  0.2018E+00
      0.824  0.5105E-03  0.5105E-03  0.2020E+00  0.2020E+00
      0.977  0.0000E+00  0.0000E+00  0.2020E+00  0.2020E+00
      1.131  0.0000E+00  0.0000E+00  0.2020E+00  0.2020E+00
      1.285  0.0000E+00  0.0000E+00  0.2020E+00  0.2020E+00
      1.439  0.0000E+00  0.0000E+00  0.2020E+00  0.2020E+00
      1.593  0.0000E+00  0.0000E+00  0.2020E+00  0.2020E+00
      1.747  0.0000E+00  0.0000E+00  0.2020E+00  0.2020E+00
      1.900  0.0000E+00  0.0000E+00  0.2020E+00  0.2020E+00
      2.054  0.0000E+00  0.0000E+00  0.2020E+00  0.2020E+00
      2.208  0.0000E+00  0.0000E+00  0.2020E+00  0.2020E+00
      2.362  0.0000E+00  0.0000E+00  0.2020E+00  0.2020E+00
      2.516  0.0000E+00  0.0000E+00  0.2020E+00  0.2020E+00
      2.670  0.0000E+00  0.0000E+00  0.2020E+00  0.2020E+00
      2.823  0.0000E+00  0.0000E+00  0.2020E+00  0.2020E+00
      2.977  0.0000E+00  0.0000E+00  0.2020E+00  0.2020E+00
      3.131  0.6414E-05  0.6515E-05  0.2020E+00  0.2020E+00
      3.285  0.7346E-02  0.7346E-02  0.2029E+00  0.2029E+00
      3.439  0.4029E-01  0.4029E-01  0.2063E+00  0.2063E+00
      3.593  0.1941E-01  0.1941E-01  0.2109E+00  0.2109E+00
      3.746  0.1101E-01  0.1101E-01  0.2133E+00  0.2133E+00
      3.900  0.1527E-01  0.1527E-01  0.2149E+00  0.2149E+00
      4.054  0.2673E-01  0.2673E-01  0.2195E+00  0.2195E+00
      4.208  0.6856E-02  0.6855E-02  0.2221E+00  0.2221E+00
      4.362  0.6565E-02  0.6566E-02  0.2228E+00  0.2228E+00
      4.516  0.2359E-01  0.2359E-01  0.2252E+00  0.2252E+00
      4.669  0.2101E-01  0.2101E-01  0.2298E+00  0.2298E+00
      4.823  0.1645E-01  0.1645E-01  0.2324E+00  0.2324E+00
      4.977  0.3186E-01  0.3186E-01  0.2361E+00  0.2361E+00
      5.131  0.1894E-01  0.1894E-01  0.2402E+00  0.2402E+00
      5.285  0.6160E-02  0.6157E-02  0.2422E+00  0.2422E+00
      5.439  0.2064E-01  0.2064E-01  0.2433E+00  0.2433E+00
      5.592  0.3282E-01  0.3282E-01  0.2484E+00  0.2484E+00
      5.746  0.1118E-01  0.1118E-01  0.2516E+00  0.2516E+00
      5.900  0.7644E-02  0.7645E-02  0.2528E+00  0.2528E+00
      6.054  0.3139E-01  0.3139E-01  0.2554E+00  0.2554E+00
      6.208  0.2670E-01  0.2670E-01  0.2608E+00  0.2608E+00
      6.361  0.1067E-01  0.1067E-01  0.2630E+00  0.2630E+00
      6.515  0.3626E-01  0.3626E-01  0.2660E+00  0.2660E+00
      6.669  0.3496E-01  0.3496E-01  0.2712E+00  0.2712E+00
      6.823  0.1206E-01  0.1206E-01  0.2745E+00  0.2745E+00
      6.977  0.1768E-01  0.1769E-01  0.2767E+00  0.2767E+00
      7.131  0.1974E-01  0.1974E-01  0.2803E+00  0.2803E+00
      7.284  0.1614E-01  0.1614E-01  0.2828E+00  0.2828E+00
      7.438  0.3097E-01  0.3096E-01  0.2872E+00  0.2872E+00
      7.592  0.1710E-01  0.1710E-01  0.2909E+00  0.2909E+00
      7.746  0.3058E-01  0.3059E-01  0.2938E+00  0.2938E+00
      7.900  0.2751E-01  0.2751E-01  0.2987E+00  0.2987E+00
      8.054  0.2602E-01  0.2602E-01  0.3029E+00  0.3029E+00
      8.207  0.2959E-01  0.2959E-01  0.3069E+00  0.3069E+00
      8.361  0.2558E-01  0.2559E-01  0.3106E+00  0.3106E+00
      8.515  0.3007E-01  0.3008E-01  0.3151E+00  0.3151E+00
      8.669  0.2163E-01  0.2164E-01  0.3192E+00  0.3192E+00
      8.823  0.1178E-01  0.1178E-01  0.3221E+00  0.3221E+00
      8.977  0.2885E-02  0.2886E-02  0.3230E+00  0.3230E+00
      9.130  0.5583E-03  0.5567E-03  0.3232E+00  0.3232E+00
      9.284  0.0000E+00  0.0000E+00  0.3232E+00  0.3232E+00
      9.438  0.0000E+00  0.0000E+00  0.3232E+00  0.3232E+00
      9.592  0.0000E+00  0.0000E+00  0.3232E+00  0.3232E+00
      9.746  0.0000E+00  0.0000E+00  0.3232E+00  0.3232E+00
      9.900  0.0000E+00  0.0000E+00  0.3232E+00  0.3232E+00
     10.053  0.0000E+00  0.0000E+00  0.3232E+00  0.3232E+00
     10.207  0.0000E+00  0.0000E+00  0.3232E+00  0.3232E+00
     10.361  0.0000E+00  0.0000E+00  0.3232E+00  0.3232E+00
     10.515  0.0000E+00  0.0000E+00  0.3232E+00  0.3232E+00
     10.669  0.0000E+00  0.0000E+00  0.3232E+00  0.3232E+00
     10.823  0.0000E+00  0.0000E+00  0.3232E+00  0.3232E+00
     10.976  0.0000E+00  0.0000E+00  0.3232E+00  0.3232E+00
     11.130  0.0000E+00  0.0000E+00  0.3232E+00  0.3232E+00
     11.284  0.0000E+00  0.0000E+00  0.3232E+00  0.3232E+00
     11.28402892    -34.86485468  301      0.99667362      1.00000000
    -34.865  0.0000E+00  0.0000E+00  0.0000E+00  0.0000E+00  0.0000E+00  0.0000E+00  0.0000E+00  0.0000E+00  0.0000E+00  0.0000E+00  0.0000E+00  0.0000E+00  0.0000E+00  0.0000E+00  0.0000E+00  0.0000E+00  0.0000E+00  0.0000E+00
    -34.711  0.0000E+00  0.0000E+00  0.0000E+00  0.0000E+00  0.0000E+00  0.0000E+00  0.0000E+00  0.0000E+00  0.0000E+00  0.0000E+00  0.0000E+00  0.0000E+00  0.0000E+00  0.0000E+00  0.0000E+00  0.0000E+00  0.0000E+00  0.0000E+00
    -34.557  0.0000E+00  0.0000E+00  0.0000E+00  0.0000E+00  0.0000E+00  0.0000E+00  0.0000E+00  0.0000E+00  0.0000E+00  0.0000E+00  0.0000E+00  0.0000E+00  0.0000E+00  0.0000E+00  0.0000E+00  0.0000E+00  0.0000E+00  0.0000E+00
    -34.403  0.0000E+00  0.0000E+00  0.0000E+00  0.0000E+00  0.0000E+00  0.0000E+00  0.0000E+00  0.0000E+00  0.0000E+00  0.0000E+00  0.0000E+00  0.0000E+00  0.0000E+00  0.0000E+00  0.0000E+00  0.0000E+00  0.0000E+00  0.0000E+00
    -34.250  0.0000E+00  0.0000E+00  0.0000E+00  0.0000E+00  0.0000E+00  0.0000E+00  0.0000E+00  0.0000E+00  0.0000E+00  0.0000E+00  0.0000E+00  0.0000E+00  0.0000E+00  0.0000E+00  0.0000E+00  0.0000E+00  0.0000E+00  0.0000E+00
    -34.096  0.0000E+00  0.0000E+00  0.0000E+00  0.0000E+00  0.0000E+00  0.0000E+00  0.0000E+00  0.0000E+00  0.0000E+00  0.0000E+00  0.0000E+00  0.0000E+00  0.0000E+00  0.0000E+00  0.0000E+00  0.0000E+00  0.0000E+00  0.0000E+00
    -33.942  0.0000E+00  0.0000E+00  0.0000E+00  0.0000E+00  0.0000E+00  0.0000E+00  0.0000E+00  0.0000E+00  0.0000E+00  0.0000E+00  0.0000E+00  0.0000E+00  0.0000E+00  0.0000E+00  0.0000E+00  0.0000E+00  0.0000E+00  0.0000E+00
    -33.788  0.0000E+00  0.0000E+00  0.0000E+00  0.0000E+00  0.0000E+00  0.0000E+00  0.0000E+00  0.0000E+00  0.0000E+00  0.0000E+00  0.0000E+00  0.0000E+00  0.0000E+00  0.0000E+00  0.0000E+00  0.0000E+00  0.0000E+00  0.0000E+00
    -33.634  0.0000E+00  0.0000E+00  0.0000E+00  0.0000E+00  0.0000E+00  0.0000E+00  0.0000E+00  0.0000E+00  0.0000E+00  0.0000E+00  0.0000E+00  0.0000E+00  0.0000E+00  0.0000E+00  0.0000E+00  0.0000E+00  0.0000E+00  0.0000E+00
    -33.480  0.0000E+00  0.0000E+00  0.0000E+00  0.0000E+00  0.0000E+00  0.0000E+00  0.0000E+00  0.0000E+00  0.0000E+00  0.0000E+00  0.0000E+00  0.0000E+00  0.0000E+00  0.0000E+00  0.0000E+00  0.0000E+00  0.0000E+00  0.0000E+00
    -33.327  0.0000E+00  0.0000E+00  0.0000E+00  0.0000E+00  0.0000E+00  0.0000E+00  0.0000E+00  0.0000E+00  0.0000E+00  0.0000E+00  0.0000E+00  0.0000E+00  0.0000E+00  0.0000E+00  0.0000E+00  0.0000E+00  0.0000E+00  0.0000E+00
    -33.173  0.0000E+00  0.0000E+00  0.0000E+00  0.0000E+00  0.0000E+00  0.0000E+00  0.0000E+00  0.0000E+00  0.0000E+00  0.0000E+00  0.0000E+00  0.0000E+00  0.0000E+00  0.0000E+00  0.0000E+00  0.0000E+00  0.0000E+00  0.0000E+00
    -33.019  0.0000E+00  0.0000E+00  0.0000E+00  0.0000E+00  0.0000E+00  0.0000E+00  0.0000E+00  0.0000E+00  0.0000E+00  0.0000E+00  0.0000E+00  0.0000E+00  0.0000E+00  0.0000E+00  0.0000E+00  0.0000E+00  0.0000E+00  0.0000E+00
    -32.865  0.0000E+00  0.0000E+00  0.0000E+00  0.0000E+00  0.0000E+00  0.0000E+00  0.0000E+00  0.0000E+00  0.0000E+00  0.0000E+00  0.0000E+00  0.0000E+00  0.0000E+00  0.0000E+00  0.0000E+00  0.0000E+00  0.0000E+00  0.0000E+00
    -32.711  0.0000E+00  0.0000E+00  0.0000E+00  0.0000E+00  0.0000E+00  0.0000E+00  0.0000E+00  0.0000E+00  0.0000E+00  0.0000E+00  0.0000E+00  0.0000E+00  0.0000E+00  0.0000E+00  0.0000E+00  0.0000E+00  0.0000E+00  0.0000E+00
    -32.557  0.4736E-01  0.4736E-01  0.3998E-05  0.3995E-05  0.2146E-04  0.2147E-04  0.8384E-05  0.8377E-05  0.6285E-06  0.6285E-06  0.2392E-05  0.2392E-05  0.1075E-05  0.1075E-05  0.5250E-05  0.5248E-05  0.1174E-06  0.1174E-06
    -32.404  0.0000E+00  0.0000E+00  0.0000E+00  0.0000E+00  0.0000E+00  0.0000E+00  0.0000E+00  0.0000E+00  0.0000E+00  0.0000E+00  0.0000E+00  0.0000E+00  0.0000E+00  0.0000E+00  0.0000E+00  0.0000E+00  0.0000E+00  0.0000E+00
    -32.250  0.0000E+00  0.0000E+00  0.0000E+00  0.0000E+00  0.0000E+00  0.0000E+00  0.0000E+00  0.0000E+00  0.0000E+00  0.0000E+00  0.0000E+00  0.0000E+00  0.0000E+00  0.0000E+00  0.0000E+00  0.0000E+00  0.0000E+00  0.0000E+00
    -32.096  0.0000E+00  0.0000E+00  0.0000E+00  0.0000E+00  0.0000E+00  0.0000E+00  0.0000E+00  0.0000E+00  0.0000E+00  0.0000E+00  0.0000E+00  0.0000E+00  0.0000E+00  0.0000E+00  0.0000E+00  0.0000E+00  0.0000E+00  0.0000E+00
    -31.942  0.0000E+00  0.0000E+00  0.0000E+00  0.0000E+00  0.0000E+00  0.0000E+00  0.0000E+00  0.0000E+00  0.0000E+00  0.0000E+00  0.0000E+00  0.0000E+00  0.0000E+00  0.0000E+00  0.0000E+00  0.0000E+00  0.0000E+00  0.0000E+00
    -31.788  0.0000E+00  0.0000E+00  0.0000E+00  0.0000E+00  0.0000E+00  0.0000E+00  0.0000E+00  0.0000E+00  0.0000E+00  0.0000E+00  0.0000E+00  0.0000E+00  0.0000E+00  0.0000E+00  0.0000E+00  0.0000E+00  0.0000E+00  0.0000E+00
    -31.634  0.0000E+00  0.0000E+00  0.0000E+00  0.0000E+00  0.0000E+00  0.0000E+00  0.0000E+00  0.0000E+00  0.0000E+00  0.0000E+00  0.0000E+00  0.0000E+00  0.0000E+00  0.0000E+00  0.0000E+00  0.0000E+00  0.0000E+00  0.0000E+00
    -31.481  0.0000E+00  0.0000E+00  0.0000E+00  0.0000E+00  0.0000E+00  0.0000E+00  0.0000E+00  0.0000E+00  0.0000E+00  0.0000E+00  0.0000E+00  0.0000E+00  0.0000E+00  0.0000E+00  0.0000E+00  0.0000E+00  0.0000E+00  0.0000E+00
    -31.327  0.0000E+00  0.0000E+00  0.0000E+00  0.0000E+00  0.0000E+00  0.0000E+00  0.0000E+00  0.0000E+00  0.0000E+00  0.0000E+00  0.0000E+00  0.0000E+00  0.0000E+00  0.0000E+00  0.0000E+00  0.0000E+00  0.0000E+00  0.0000E+00
    -31.173  0.0000E+00  0.0000E+00  0.0000E+00  0.0000E+00  0.0000E+00  0.0000E+00  0.0000E+00  0.0000E+00  0.0000E+00  0.0000E+00  0.0000E+00  0.0000E+00  0.0000E+00  0.0000E+00  0.0000E+00  0.0000E+00  0.0000E+00  0.0000E+00
    -31.019  0.0000E+00  0.0000E+00  0.0000E+00  0.0000E+00  0.0000E+00  0.0000E+00  0.0000E+00  0.0000E+00  0.0000E+00  0.0000E+00  0.0000E+00  0.0000E+00  0.0000E+00  0.0000E+00  0.0000E+00  0.0000E+00  0.0000E+00  0.0000E+00
    -30.865  0.0000E+00  0.0000E+00  0.0000E+00  0.0000E+00  0.0000E+00  0.0000E+00  0.0000E+00  0.0000E+00  0.0000E+00  0.0000E+00  0.0000E+00  0.0000E+00  0.0000E+00  0.0000E+00  0.0000E+00  0.0000E+00  0.0000E+00  0.0000E+00
    -30.711  0.0000E+00  0.0000E+00  0.0000E+00  0.0000E+00  0.0000E+00  0.0000E+00  0.0000E+00  0.0000E+00  0.0000E+00  0.0000E+00  0.0000E+00  0.0000E+00  0.0000E+00  0.0000E+00  0.0000E+00  0.0000E+00  0.0000E+00  0.0000E+00
    -30.558  0.0000E+00  0.0000E+00  0.0000E+00  0.0000E+00  0.0000E+00  0.0000E+00  0.0000E+00  0.0000E+00  0.0000E+00  0.0000E+00  0.0000E+00  0.0000E+00  0.0000E+00  0.0000E+00  0.0000E+00  0.0000E+00  0.0000E+00  0.0000E+00
    -30.404  0.0000E+00  0.0000E+00  0.0000E+00  0.0000E+00  0.0000E+00  0.0000E+00  0.0000E+00  0.0000E+00  0.0000E+00  0.0000E+00  0.0000E+00  0.0000E+00  0.0000E+00  0.0000E+00  0.0000E+00  0.0000E+00  0.0000E+00  0.0000E+00
    -30.250  0.0000E+00  0.0000E+00  0.0000E+00  0.0000E+00  0.0000E+00  0.0000E+00  0.0000E+00  0.0000E+00  0.0000E+00  0.0000E+00  0.0000E+00  0.0000E+00  0.0000E+00  0.0000E+00  0.0000E+00  0.0000E+00  0.0000E+00  0.0000E+00
    -30.096  0.0000E+00  0.0000E+00  0.0000E+00  0.0000E+00  0.0000E+00  0.0000E+00  0.0000E+00  0.0000E+00  0.0000E+00  0.0000E+00  0.0000E+00  0.0000E+00  0.0000E+00  0.0000E+00  0.0000E+00  0.0000E+00  0.0000E+00  0.0000E+00
    -29.942  0.0000E+00  0.0000E+00  0.0000E+00  0.0000E+00  0.0000E+00  0.0000E+00  0.0000E+00  0.0000E+00  0.0000E+00  0.0000E+00  0.0000E+00  0.0000E+00  0.0000E+00  0.0000E+00  0.0000E+00  0.0000E+00  0.0000E+00  0.0000E+00
    -29.788  0.0000E+00  0.0000E+00  0.0000E+00  0.0000E+00  0.0000E+00  0.0000E+00  0.0000E+00  0.0000E+00  0.0000E+00  0.0000E+00  0.0000E+00  0.0000E+00  0.0000E+00  0.0000E+00  0.0000E+00  0.0000E+00  0.0000E+00  0.0000E+00
    -29.635  0.0000E+00  0.0000E+00  0.0000E+00  0.0000E+00  0.0000E+00  0.0000E+00  0.0000E+00  0.0000E+00  0.0000E+00  0.0000E+00  0.0000E+00  0.0000E+00  0.0000E+00  0.0000E+00  0.0000E+00  0.0000E+00  0.0000E+00  0.0000E+00
    -29.481  0.0000E+00  0.0000E+00  0.0000E+00  0.0000E+00  0.0000E+00  0.0000E+00  0.0000E+00  0.0000E+00  0.0000E+00  0.0000E+00  0.0000E+00  0.0000E+00  0.0000E+00  0.0000E+00  0.0000E+00  0.0000E+00  0.0000E+00  0.0000E+00
    -29.327  0.0000E+00  0.0000E+00  0.0000E+00  0.0000E+00  0.0000E+00  0.0000E+00  0.0000E+00  0.0000E+00  0.0000E+00  0.0000E+00  0.0000E+00  0.0000E+00  0.0000E+00  0.0000E+00  0.0000E+00  0.0000E+00  0.0000E+00  0.0000E+00
    -29.173  0.0000E+00  0.0000E+00  0.0000E+00  0.0000E+00  0.0000E+00  0.0000E+00  0.0000E+00  0.0000E+00  0.0000E+00  0.0000E+00  0.0000E+00  0.0000E+00  0.0000E+00  0.0000E+00  0.0000E+00  0.0000E+00  0.0000E+00  0.0000E+00
    -29.019  0.0000E+00  0.0000E+00  0.0000E+00  0.0000E+00  0.0000E+00  0.0000E+00  0.0000E+00  0.0000E+00  0.0000E+00  0.0000E+00  0.0000E+00  0.0000E+00  0.0000E+00  0.0000E+00  0.0000E+00  0.0000E+00  0.0000E+00  0.0000E+00
    -28.865  0.0000E+00  0.0000E+00  0.0000E+00  0.0000E+00  0.0000E+00  0.0000E+00  0.0000E+00  0.0000E+00  0.0000E+00  0.0000E+00  0.0000E+00  0.0000E+00  0.0000E+00  0.0000E+00  0.0000E+00  0.0000E+00  0.0000E+00  0.0000E+00
    -28.712  0.0000E+00  0.0000E+00  0.0000E+00  0.0000E+00  0.0000E+00  0.0000E+00  0.0000E+00  0.0000E+00  0.0000E+00  0.0000E+00  0.0000E+00  0.0000E+00  0.0000E+00  0.0000E+00  0.0000E+00  0.0000E+00  0.0000E+00  0.0000E+00
    -28.558  0.0000E+00  0.0000E+00  0.0000E+00  0.0000E+00  0.0000E+00  0.0000E+00  0.0000E+00  0.0000E+00  0.0000E+00  0.0000E+00  0.0000E+00  0.0000E+00  0.0000E+00  0.0000E+00  0.0000E+00  0.0000E+00  0.0000E+00  0.0000E+00
    -28.404  0.0000E+00  0.0000E+00  0.0000E+00  0.0000E+00  0.0000E+00  0.0000E+00  0.0000E+00  0.0000E+00  0.0000E+00  0.0000E+00  0.0000E+00  0.0000E+00  0.0000E+00  0.0000E+00  0.0000E+00  0.0000E+00  0.0000E+00  0.0000E+00
    -28.250  0.0000E+00  0.0000E+00  0.0000E+00  0.0000E+00  0.0000E+00  0.0000E+00  0.0000E+00  0.0000E+00  0.0000E+00  0.0000E+00  0.0000E+00  0.0000E+00  0.0000E+00  0.0000E+00  0.0000E+00  0.0000E+00  0.0000E+00  0.0000E+00
    -28.096  0.0000E+00  0.0000E+00  0.0000E+00  0.0000E+00  0.0000E+00  0.0000E+00  0.0000E+00  0.0000E+00  0.0000E+00  0.0000E+00  0.0000E+00  0.0000E+00  0.0000E+00  0.0000E+00  0.0000E+00  0.0000E+00  0.0000E+00  0.0000E+00
    -27.943  0.0000E+00  0.0000E+00  0.0000E+00  0.0000E+00  0.0000E+00  0.0000E+00  0.0000E+00  0.0000E+00  0.0000E+00  0.0000E+00  0.0000E+00  0.0000E+00  0.0000E+00  0.0000E+00  0.0000E+00  0.0000E+00  0.0000E+00  0.0000E+00
    -27.789  0.0000E+00  0.0000E+00  0.0000E+00  0.0000E+00  0.0000E+00  0.0000E+00  0.0000E+00  0.0000E+00  0.0000E+00  0.0000E+00  0.0000E+00  0.0000E+00  0.0000E+00  0.0000E+00  0.0000E+00  0.0000E+00  0.0000E+00  0.0000E+00
    -27.635  0.0000E+00  0.0000E+00  0.0000E+00  0.0000E+00  0.0000E+00  0.0000E+00  0.0000E+00  0.0000E+00  0.0000E+00  0.0000E+00  0.0000E+00  0.0000E+00  0.0000E+00  0.0000E+00  0.0000E+00  0.0000E+00  0.0000E+00  0.0000E+00
    -27.481  0.0000E+00  0.0000E+00  0.0000E+00  0.0000E+00  0.0000E+00  0.0000E+00  0.0000E+00  0.0000E+00  0.0000E+00  0.0000E+00  0.0000E+00  0.0000E+00  0.0000E+00  0.0000E+00  0.0000E+00  0.0000E+00  0.0000E+00  0.0000E+00
    -27.327  0.0000E+00  0.0000E+00  0.0000E+00  0.0000E+00  0.0000E+00  0.0000E+00  0.0000E+00  0.0000E+00  0.0000E+00  0.0000E+00  0.0000E+00  0.0000E+00  0.0000E+00  0.0000E+00  0.0000E+00  0.0000E+00  0.0000E+00  0.0000E+00
    -27.173  0.0000E+00  0.0000E+00  0.0000E+00  0.0000E+00  0.0000E+00  0.0000E+00  0.0000E+00  0.0000E+00  0.0000E+00  0.0000E+00  0.0000E+00  0.0000E+00  0.0000E+00  0.0000E+00  0.0000E+00  0.0000E+00  0.0000E+00  0.0000E+00