unknown system                          
           1
     3.349390    0.201242    0.494936
    -0.546089    6.400624    1.059079
    -0.256172   -2.650331    2.826232
   H    Sr   H    Nb   H 
   1   1   4   1   1
Direct configuration=     1
   0.33125413  0.69061750  0.96819602
   0.83056570  0.82463494  0.64638343
   0.33050043  0.45527122  0.27434462
   0.83073400  0.48482978  0.92515646
   0.83056323  0.19609536  0.37840308
   0.33089110  0.04117694  0.56967221
   0.33225353  0.34351999  0.64965456
   0.33130288  0.08997027  0.12722561
unknown system                          
           1
     3.345731    0.201401    0.494100
    -0.548117    6.406738    1.074630
    -0.254039   -2.642178    2.804751
   H    Sr   H    Nb   H 
   1   1   4   1   1
Direct configuration=     2
   0.33119768  0.69094746  0.96876646
   0.83069009  0.82458085  0.64639802
   0.33054847  0.45540782  0.27437078
   0.83074259  0.48532726  0.92539109
   0.83063870  0.19566154  0.37815893
   0.33087981  0.04062415  0.56953615
   0.33211489  0.34364933  0.64975904
   0.33125276  0.08991759  0.12665553
unknown system                          
           1
     3.337189    0.201773    0.492149
    -0.552852    6.421006    1.110927
    -0.249061   -2.623149    2.754613
   H    Sr   H    Nb   H 
   1   1   4   1   1
Direct configuration=     3
   0.33106586  0.69171761  0.97010375
   0.83098077  0.82445500  0.64643291
   0.33066068  0.45572587  0.27443086
   0.83076255  0.48648603  0.92593738
   0.83081514  0.19465092  0.37758963
   0.33085361  0.03933699  0.56922207
   0.33179093  0.34395077  0.65000322
   0.33113546  0.08979281  0.12531618
unknown system                          
           1
     3.345778    0.202333    0.493729
    -0.553442    6.422757    1.115433
    -0.249701   -2.622963    2.760389
   H    Sr   H    Nb   H 
   1   1   4   1   1
Direct configuration=     4
   0.33105951  0.69127244  0.97057924
   0.83097715  0.82440598  0.64651238
   0.33069837  0.45619145  0.27387451
   0.83085946  0.48706727  0.92582748
   0.83077634  0.19411458  0.37722673
   0.33087412  0.04102214  0.56898335
   0.33169852  0.34295319  0.65303666
   0.33112153  0.08908896  0.12299565
unknown system                          
           1
     3.344293    0.202236    0.493455
    -0.553340    6.422454    1.114654
    -0.249591   -2.622995    2.759390
   H    Sr   H    Nb   H 
   1   1   4   1   1
Direct configuration=     5
   0.33106061  0.69134939  0.97049709
   0.83097778  0.82441446  0.64649866
   0.33069187  0.45611095  0.27397062
   0.83084275  0.48696685  0.92584657
   0.83078302  0.19420718  0.37728923
   0.33087059  0.04073103  0.56902492
   0.33171448  0.34312590  0.65251297
   0.33112390  0.08921023  0.12339593
unknown system                          
           1
     3.347144    0.202421    0.494067
    -0.554116    6.423653    1.120015
    -0.249168   -2.620622    2.756549
   H    Sr   H    Nb   H 
   1   1   4   1   1
Direct configuration=     6
   0.33105228  0.69076042  0.97130164
   0.83097765  0.82431973  0.64652999
   0.33073679  0.45643558  0.27465681
   0.83090564  0.48746396  0.92556322
   0.83076971  0.19379588  0.37751877
   0.33088672  0.04123169  0.56877979
   0.33162788  0.34289227  0.65177515
   0.33110833  0.08921648  0.12291062
unknown system                          
           1
     3.355697    0.202976    0.495901
    -0.556445    6.427250    1.136096
    -0.247901   -2.613503    2.748026
   H    Sr   H    Nb   H 
   1   1   4   1   1
Direct configuration=     7
   0.33102728  0.68899510  0.97372059
   0.83097729  0.82403578  0.64662454
   0.33087132  0.45740875  0.27671589
   0.83109414  0.48895397  0.92470990
   0.83072979  0.19256305  0.37821006
   0.33093506  0.04273237  0.56804124
   0.33136841  0.34219185  0.64956058
   0.33106171  0.08923514  0.12145319
unknown system                          
           1
     3.355651    0.202957    0.495931
    -0.557036    6.429036    1.139236
    -0.247605   -2.612460    2.745887
   H    Sr   H    Nb   H 
   1   1   4   1   1
Direct configuration=     8
   0.33102167  0.68870135  0.97432664
   0.83097977  0.82399975  0.64666375
   0.33089966  0.45763835  0.27699003
   0.83110690  0.48919141  0.92422821
   0.83074514  0.19227844  0.37842168
   0.33094459  0.04275182  0.56775334
   0.33131661  0.34238282  0.64974351
   0.33105067  0.08917207  0.12090884
unknown system                          
           1
     3.355514    0.202899    0.496022
    -0.558808    6.434393    1.148655
    -0.246717   -2.609332    2.739469
   H    Sr   H    Nb   H 
   1   1   4   1   1
Direct configuration=     9
   0.33100481  0.68782093  0.97614688
   0.83098720  0.82389175  0.64678156
   0.33098467  0.45832680  0.27781244
   0.83114520  0.48990308  0.92278146
   0.83079118  0.19142524  0.37905774
   0.33097318  0.04281000  0.56688897
   0.33116121  0.34295542  0.65029218
   0.33101755  0.08898278  0.11927477
unknown system                          
           1
     3.353170    0.202720    0.495583
    -0.559030    6.436103    1.148759
    -0.246466   -2.609611    2.737567
   H    Sr   H    Nb   H 
   1   1   4   1   1
Direct configuration=    10
   0.33100285  0.68795841  0.97675255
   0.83099108  0.82394273  0.64687175
   0.33099671  0.45853604  0.27775248
   0.83111476  0.48999285  0.92216207
   0.83083093  0.19127432  0.37936252
   0.33097728  0.04252546  0.56658458
   0.33114014  0.34279110  0.65049267
   0.33101126  0.08909510  0.11905740
unknown system                          
           1
     3.346138    0.202184    0.494267
    -0.559694    6.441231    1.149070
    -0.245712   -2.610449    2.731862
   H    Sr   H    Nb   H 
   1   1   4   1   1
Direct configuration=    11
   0.33099700  0.68837124  0.97857061
   0.83100274  0.82409571  0.64714248
   0.33103286  0.45916353  0.27757251
   0.83102334  0.49026161  0.92030285
   0.83095026  0.19082191  0.38027736
   0.33098957  0.04167180  0.56567084
   0.33107686  0.34229840  0.65109444
   0.33099236  0.08943179  0.11840491
unknown system                          
           1
     3.346080    0.202186    0.494242
    -0.559679    6.441124    1.149044
    -0.245580   -2.610206    2.730748
   H    Sr   H    Nb   H 
   1   1   4   1   1
Direct configuration=    12
   0.33100081  0.68848867  0.97905349
   0.83100003  0.82407317  0.64721941
   0.33103363  0.45923690  0.27781569
   0.83101552  0.49044283  0.91987745
   0.83095965  0.19056833  0.38050025
   0.33099190  0.04133436  0.56531863
   0.33107036  0.34240333  0.65098088
   0.33099310  0.08956842  0.11827020
unknown system                          
           1
     3.345908    0.202193    0.494169
    -0.559631    6.440802    1.148968
    -0.245183   -2.609479    2.727406
   H    Sr   H    Nb   H 
   1   1   4   1   1
Direct configuration=    13
   0.33101223  0.68884112  0.98050267
   0.83099188  0.82400557  0.64745026
   0.33103596  0.45945706  0.27854549
   0.83099205  0.49098637  0.91860081
   0.83098781  0.18980763  0.38116914
   0.33099890  0.04032189  0.56426161
   0.33105084  0.34271810  0.65064010
   0.33099533  0.08997826  0.11786592
unknown system                          
           1
     3.346916    0.202273    0.494346
    -0.559266    6.437426    1.148198
    -0.245162   -2.608353    2.726859
   H    Sr   H    Nb   H 
   1   1   4   1   1
Direct configuration=    14
   0.33101461  0.68887745  0.98074268
   0.83099007  0.82398209  0.64754387
   0.33103408  0.45956929  0.27855409
   0.83100023  0.49124535  0.91831869
   0.83098160  0.18958718  0.38137796
   0.33099952  0.04049501  0.56396769
   0.33104860  0.34228353  0.65098331
   0.33099629  0.09007609  0.11754771
unknown system                          
           1
     3.348000    0.202360    0.494537
    -0.558874    6.433794    1.147368
    -0.245140   -2.607140    2.726271
   H    Sr   H    Nb   H 
   1   1   4   1   1
Direct configuration=    15
   0.33101717  0.68891654  0.98100101
   0.83098813  0.82395681  0.64764462
   0.33103205  0.45969012  0.27856336
   0.83100904  0.49152419  0.91801506
   0.83097491  0.18934983  0.38160269
   0.33100018  0.04068142  0.56365137
   0.33104620  0.34181565  0.65135267
   0.33099732  0.09018144  0.11720523
unknown system                          
           1
     3.349371    0.202460    0.494775
    -0.558757    6.431160    1.147967
    -0.245144   -2.605746    2.725836
   H    Sr   H    Nb   H 
   1   1   4   1   1
Direct configuration=    16
   0.33101950  0.68890175  0.98130636
   0.83098713  0.82391839  0.64775239
   0.33102994  0.45977357  0.27881097
   0.83101546  0.49180984  0.91763484
   0.83097086  0.18904536  0.38189650
   0.33100066  0.04054368  0.56323915
   0.33104301  0.34186515  0.65155701
   0.33099845  0.09025826  0.11683879
unknown system                          
           1
     3.353482    0.202763    0.495491
    -0.558404    6.423256    1.149764
    -0.245158   -2.601564    2.724530
   H    Sr   H    Nb   H 
   1   1   4   1   1
Direct configuration=    17
   0.33102651  0.68885726  0.98222262
   0.83098414  0.82380309  0.64807583
   0.33102360  0.46002391  0.27955388
   0.83103471  0.49266715  0.91649363
   0.83095870  0.18813160  0.38277842
   0.33100210  0.04013051  0.56200239
   0.33103342  0.34201359  0.65217010
   0.33100182  0.09048890  0.11573913
unknown system                          
           1
     3.361705    0.203368    0.496922
    -0.557698    6.407449    1.153357
    -0.245186   -2.593199    2.721918
   H    Sr   H    Nb   H 
   1   1   4   1   1
Direct configuration=    18
   0.33104049  0.68876748  0.98405643
   0.83097817  0.82357204  0.64872336
   0.33101090  0.46052441  0.28104016
   0.83107312  0.49438408  0.91420803
   0.83093447  0.18630188  0.38454524
   0.33100505  0.03930444  0.55952808
   0.33101424  0.34231025  0.65339677
   0.33100856  0.09095142  0.11353794
unknown system                          
           1
     3.358298    0.203088    0.496296
    -0.558551    6.413864    1.155263
    -0.244831   -2.594538    2.719782
   H    Sr   H    Nb   H 
   1   1   4   1   1
Direct configuration=    19
   0.33103713  0.68893748  0.98450643
   0.83098649  0.82367114  0.64889645
   0.33101164  0.46077394  0.28167210
   0.83104371  0.49458503  0.91369478
   0.83096587  0.18627047  0.38549733
   0.33100374  0.03859545  0.55915961
   0.33101065  0.34165615  0.65109451
   0.33100579  0.09162634  0.11451479
unknown system                          
           1
     3.356980    0.202980    0.496055
    -0.558881    6.416346    1.156000
    -0.244694   -2.595056    2.718956
   H    Sr   H    Nb   H 
   1   1   4   1   1
Direct configuration=    20
   0.33103583  0.68900325  0.98468058
   0.83098971  0.82370946  0.64896343
   0.33101193  0.46087046  0.28191666
   0.83103232  0.49466258  0.91349612
   0.83097804  0.18625851  0.38586583
   0.33100321  0.03832144  0.55901707
   0.33100923  0.34140301  0.65020350
   0.33100473  0.09188729  0.11489281
unknown system                          
           1
     3.353111    0.202662    0.495355
    -0.559797    6.422547    1.158275
    -0.244603   -2.596506    2.718671
   H    Sr   H    Nb   H 
   1   1   4   1   1
Direct configuration=    21
   0.33103267  0.68889320  0.98483940
   0.83099794  0.82374962  0.64918184
   0.33101205  0.46115538  0.28219988
   0.83100633  0.49492340  0.91247215
   0.83100832  0.18594753  0.38688931
   0.33100237  0.03761479  0.55824567
   0.33100264  0.34162186  0.65054691
   0.33100268  0.09221021  0.11466084
unknown system                          
           1
     3.346662    0.202132    0.494189
    -0.561323    6.432882    1.162066
    -0.244451   -2.598922    2.718195
   H    Sr   H    Nb   H 
   1   1   4   1   1
Direct configuration=    22
   0.33102738  0.68871008  0.98510414
   0.83101168  0.82381654  0.64954577
   0.33101229  0.46162976  0.28267169
   0.83096298  0.49535717  0.91076559
   0.83105882  0.18543028  0.38859508
   0.33100089  0.03643823  0.55696059
   0.33099168  0.34198629  0.65111905
   0.33099927  0.09274765  0.11427408
unknown system                          
           1
     3.346148    0.202086    0.494103
    -0.561354    6.432182    1.162346
    -0.244482   -2.598535    2.718265
   H    Sr   H    Nb   H 
   1   1   4   1   1
Direct configuration=    23
   0.33102761  0.68850522  0.98512039
   0.83101298  0.82381132  0.64977156
   0.33101105  0.46185666  0.28291599
   0.83096449  0.49575232  0.90999287
   0.83106084  0.18502841  0.38943371
   0.33100190  0.03630831  0.55628633
   0.33098590  0.34177223  0.65154403
   0.33100023  0.09308153  0.11397111
unknown system                          
           1
     3.344606    0.201948    0.493844
    -0.561448    6.430083    1.163186
    -0.244573   -2.597375    2.718477
   H    Sr   H    Nb   H 
   1   1   4   1   1
Direct configuration=    24
   0.33102830  0.68789060  0.98516919
   0.83101687  0.82379561  0.65044891
   0.33100735  0.46253738  0.28364882
   0.83096902  0.49693795  0.90767457
   0.83106689  0.18382256  0.39194976
   0.33100494  0.03591867  0.55426362
   0.33096854  0.34112996  0.65281906
   0.33100309  0.09408327  0.11306207
unknown system                          
           1
     3.341521    0.201672    0.493326
    -0.561636    6.425886    1.164866
    -0.244757   -2.595055    2.718900
   H    Sr   H    Nb   H 
   1   1   4   1   1
Direct configuration=    25
   0.33102963  0.68666113  0.98526729
   0.83102465  0.82376394  0.65180362
   0.33099998  0.46389878  0.28511396
   0.83097818  0.49931046  0.90303705
   0.83107890  0.18140956  0.39698278
   0.33101102  0.03513997  0.55021848
   0.33093377  0.33984474  0.65536961
   0.33100888  0.09608742  0.11124321
unknown system                          
           1
     3.341551    0.201672    0.493333
    -0.561664    6.425274    1.165288
    -0.244745   -2.594582    2.718654
   H    Sr   H    Nb   H 
   1   1   4   1   1
Direct configuration=    26
   0.33103011  0.68656724  0.98529600
   0.83102477  0.82375507  0.65190743
   0.33099931  0.46398828  0.28530551
   0.83098049  0.49950852  0.90269405
   0.83107818  0.18120430  0.39738050
   0.33101161  0.03503962  0.54989392
   0.33093102  0.33979770  0.65542710
   0.33100951  0.09625527  0.11113149
unknown system                          
           1
     3.341640    0.201672    0.493353
    -0.561748    6.423437    1.166555
    -0.244712   -2.593164    2.717915
   H    Sr   H    Nb   H 
   1   1   4   1   1
Direct configuration=    27
   0.33103153  0.68628557  0.98538221
   0.83102513  0.82372847  0.65221889
   0.33099729  0.46425677  0.28588016
   0.83098743  0.50010272  0.90166485
   0.83107601  0.18058845  0.39857388
   0.33101338  0.03473859  0.54892018
   0.33092279  0.33965657  0.65559960
   0.33101143  0.09675887  0.11079622
unknown system                          
           1
     3.341817    0.201671    0.493393
    -0.561917    6.419763    1.169090
    -0.244645   -2.590328    2.716437
   H    Sr   H    Nb   H 
   1   1   4   1   1
Direct configuration=    28
   0.33103437  0.68572215  0.98555495
   0.83102587  0.82367520  0.65284204
   0.33099326  0.46479369  0.28702957
   0.83100133  0.50129142  0.89960521
   0.83107167  0.17935642  0.40096201
   0.33101693  0.03413667  0.54697240
   0.33090631  0.33937424  0.65594485
   0.33101526  0.09776621  0.11012496
unknown system                          
           1
     3.342172    0.201671    0.493474
    -0.562254    6.412415    1.174159
    -0.244511   -2.584655    2.713480
   H    Sr   H    Nb   H 
   1   1   4   1   1
Direct configuration=    29
   0.33104006  0.68459507  0.98590178
   0.83102732  0.82356841  0.65408922
   0.33098520  0.46586727  0.28932873
   0.83102915  0.50367000  0.89548096
   0.83106294  0.17689105  0.40574374
   0.33102405  0.03293336  0.54307561
   0.33087334  0.33880935  0.65663636
   0.33102295  0.09978148  0.10877958
unknown system                          
           1
     3.342882    0.201670    0.493635
    -0.562929    6.397719    1.184296
    -0.244242   -2.573310    2.707568
   H    Sr   H    Nb   H 
   1   1   4   1   1
Direct configuration=    30
   0.33105139  0.68233990  0.98660086
   0.83103020  0.82335381  0.65658714
   0.33096903  0.46801340  0.29392851
   0.83108493  0.50843187  0.88721253
   0.83104532  0.17195506  0.41532914
   0.33103834  0.03052889  0.53527710
   0.33080740  0.33767869  0.65802339
   0.33103839  0.10381438  0.10607733
unknown system                          
           1
     3.344302    0.201667    0.493958
    -0.564279    6.368326    1.204571
    -0.243706   -2.550619    2.695743
   H    Sr   H    Nb   H 
   1   1   4   1   1
Direct configuration=    31
   0.33107393  0.67782546  0.98802077
   0.83103583  0.82292054  0.66159731
   0.33093656  0.47230156  0.30313391
   0.83119705  0.51797454  0.87059550
   0.83100943  0.16206189  0.43458814
   0.33106721  0.02572857  0.51966020
   0.33067543  0.33541374  0.66081357
   0.33106956  0.11188971  0.10062660
unknown system                          
           1
     3.344852    0.201701    0.494061
    -0.564806    6.364738    1.209666
    -0.243460   -2.546362    2.692454
   H    Sr   H    Nb   H 
   1   1   4   1   1
Direct configuration=    32
   0.33107968  0.67732619  0.98851541
   0.83103603  0.82289694  0.66229337
   0.33093080  0.47287634  0.30486283
   0.83121423  0.51920081  0.86804948
   0.83100656  0.16063571  0.43763510
   0.33107197  0.02463713  0.51719764
   0.33065195  0.33545583  0.66068774
   0.33107379  0.11308705  0.09979443
unknown system                          
           1
     3.346501    0.201803    0.494370
    -0.566387    6.353974    1.224951
    -0.242721   -2.533588    2.682589
   H    Sr   H    Nb   H 
   1   1   4   1   1
Direct configuration=    33
   0.33109691  0.67582839  0.99000396
   0.83103660  0.82282583  0.66438435
   0.33091349  0.47459960  0.31005314
   0.83126578  0.52288021  0.86039487
   0.83099789  0.15635649  0.44679558
   0.33108630  0.02136447  0.50980638
   0.33058153  0.33558213  0.66030955
   0.33108649  0.11667889  0.09728818
unknown system                          
           1
     3.349799    0.202007    0.494989
    -0.569549    6.332445    1.255520
    -0.241245   -2.508042    2.662859
   H    Sr   H    Nb   H 
   1   1   4   1   1
Direct configuration=    34
   0.33113134  0.67283290  0.99300903
   0.83103769  0.82268176  0.66858337
   0.33087869  0.47803967  0.32045528
   0.83136902  0.53024243  0.84498582
   0.83098033  0.14779382  0.46523463
   0.33111523  0.01482912  0.49500218
   0.33044079  0.33583496  0.65954884
   0.33111191  0.12386135  0.09221686
unknown system                          
           1
     3.347521    0.201867    0.494562
    -0.567366    6.347312    1.234410
    -0.242265   -2.525683    2.676484
   H    Sr   H    Nb   H 
   1   1   4   1   1
Direct configuration=    35
   0.33110763  0.67490135  0.99089479
   0.83103703  0.82278383  0.66565988
   0.33090296  0.47567306  0.31324187
   0.83129752  0.52515353  0.85576611
   0.83099278  0.15371282  0.45233641
   0.33109488  0.01932830  0.50525573
   0.33053787  0.33566005  0.66008019
   0.33109433  0.11890306  0.09580102
unknown system                          
           1
     3.346999    0.201857    0.494483
    -0.567641    6.349067    1.235841
    -0.241967   -2.525295    2.674190
   H    Sr   H    Nb   H 
   1   1   4   1   1
Direct configuration=    36
   0.33111311  0.67539229  0.99144408
   0.83103660  0.82301963  0.66545955
   0.33090170  0.47558057  0.31351764
   0.83129656  0.52429972  0.85586773
   0.83100503  0.15420521  0.45247257
   0.33109582  0.01896991  0.50525644
   0.33052407  0.33590668  0.65935110
   0.33109211  0.11874199  0.09566688
unknown system                          
           1
     3.345432    0.201829    0.494246
    -0.568469    6.354334    1.240135
    -0.241076   -2.524130    2.667309
   H    Sr   H    Nb   H 
   1   1   4   1   1
Direct configuration=    37
   0.33112954  0.67686489  0.99309270
   0.83103528  0.82372658  0.66485786
   0.33089792  0.47530343  0.31434565
   0.83129372  0.52173942  0.85617372
   0.83104180  0.15568187  0.45288085
   0.33109867  0.01789518  0.50525897
   0.33048264  0.33664574  0.65716195
   0.33108543  0.11825890  0.09526431
unknown system                          
           1
     3.342298    0.201772    0.493771
    -0.570124    6.364867    1.248722
    -0.239293   -2.521802    2.653546
   H    Sr   H    Nb   H 
   1   1   4   1   1
Direct configuration=    38
   0.33116237  0.67980877  0.99639431
   0.83103258  0.82513790  0.66365032
   0.33089041  0.47475099  0.31600597
   0.83128822  0.51662559  0.85679233
   0.83111526  0.15863211  0.45369620
   0.33110444  0.01574837  0.50526623
   0.33039962  0.33811894  0.65277228
   0.33107210  0.11729333  0.09445837
unknown system                          
           1
     3.343260    0.201790    0.493917
    -0.569616    6.361635    1.246087
    -0.239840   -2.522516    2.657768
   H    Sr   H    Nb   H 
   1   1   4   1   1
Direct configuration=    39
   0.33115232  0.67890643  0.99537873
   0.83103345  0.82470653  0.66402333
   0.33089269  0.47491933  0.31549396
   0.83128979  0.51819028  0.85659846
   0.83109276  0.15772891  0.45344680
   0.33110262  0.01640534  0.50526264
   0.33042519  0.33767002  0.65412596
   0.33107618  0.11758917  0.09470612
unknown system                          
           1
     3.346066    0.201996    0.494331
    -0.569527    6.362146    1.245748
    -0.239569   -2.522437    2.655714
   H    Sr   H    Nb   H 
   1   1   4   1   1
Direct configuration=    40
   0.33117085  0.67969962  0.99640899
   0.83103304  0.82517927  0.66382926
   0.33088623  0.47514387  0.31559036
   0.83129619  0.51675013  0.85627536
   0.83113167  0.15847630  0.45447241
   0.33110951  0.01619455  0.50454247
   0.33036626  0.33727300  0.65467035
   0.33107125  0.11739925  0.09324680
unknown system                          
           1
     3.354484    0.202616    0.495573
    -0.569261    6.363678    1.244729
    -0.238756   -2.522200    2.649550
   H    Sr   H    Nb   H 
   1   1   4   1   1
Direct configuration=    41
   0.33122635  0.68207992  0.99950215
   0.83103177  0.82659733  0.66324686
   0.33086688  0.47581753  0.31587985
   0.83131545  0.51242956  0.85530478
   0.83124828  0.16071920  0.45755160
   0.33113016  0.01556165  0.50238047
   0.33018967  0.33608240  0.65630442
   0.33105644  0.11682841  0.08886586
unknown system                          
           1
     3.358600    0.202881    0.496204
    -0.569053    6.355978    1.246718
    -0.238326   -2.517339    2.644693
   H    Sr   H    Nb   H 
   1   1   4   1   1
Direct configuration=    42
   0.33125439  0.68195255  0.99994544
   0.83103582  0.82652684  0.66310413
   0.33085124  0.47609967  0.31673770
   0.83135327  0.51173858  0.85511842
   0.83129841  0.16073634  0.45848030
   0.33114983  0.01541565  0.50086682
   0.33007217  0.33640338  0.65679282
   0.33104986  0.11724300  0.08799036
unknown system                          
           1
     3.370949    0.203674    0.498096
    -0.568427    6.332878    1.252685
    -0.237035   -2.502757    2.630120
   H    Sr   H    Nb   H 
   1   1   4   1   1
Direct configuration=    43
   0.33133841  0.68157011  0.00127819
   0.83104794  0.82631521  0.66267538
   0.33080438  0.47694665  0.31931508
   0.83146664  0.50966403  0.85456062
   0.83144862  0.16078774  0.46127151
   0.33120877  0.01497743  0.49631796
   0.32972009  0.33736705  0.65825967
   0.33103015  0.11848778  0.08535760
unknown system                          
           1
     3.395646    0.205262    0.501880
    -0.567175    6.286678    1.264620
    -0.234454   -2.473592    2.600975
   H    Sr   H    Nb   H 
   1   1   4   1   1
Direct configuration=    44
   0.33150584  0.68080320  0.00396117
   0.83107211  0.82589105  0.66181452
   0.33071092  0.47864406  0.32449293
   0.83169268  0.50550543  0.85345273
   0.83174790  0.16089023  0.46688476
   0.33132630  0.01409983  0.48717234
   0.32901844  0.33929857  0.66120327
   0.33099081  0.12098362  0.08005428
unknown system                          
           1
     3.393349    0.205016    0.501497
    -0.568780    6.297855    1.269469
    -0.234384   -2.476087    2.601817
   H    Sr   H    Nb   H 
   1   1   4   1   1
Direct configuration=    45
   0.33154572  0.68128982  0.00469199
   0.83107311  0.82607145  0.66212730
   0.33069628  0.47925906  0.32468529
   0.83175374  0.50588505  0.85380290
   0.83185779  0.16091273  0.46717086
   0.33136984  0.01373825  0.48651222
   0.32878261  0.33750685  0.65987251
   0.33098590  0.12145279  0.08017294
unknown system                          
           1
     3.388920    0.204543    0.500759
    -0.571877    6.319411    1.278820
    -0.234248   -2.480899    2.603443
   H    Sr   H    Nb   H 
   1   1   4   1   1
Direct configuration=    46
   0.33162270  0.68222658  0.00609991
   0.83107507  0.82641875  0.66272992
   0.33066810  0.48044262  0.32505507
   0.83187160  0.50661573  0.85447726
   0.83206985  0.16095615  0.46772232
   0.33145385  0.01304213  0.48524035
   0.32832733  0.33405833  0.65731026
   0.33097649  0.12235570  0.08040091
unknown system                          
           1
     3.383988    0.204164    0.500095
    -0.573669    6.329000    1.286184
    -0.234304   -2.481874    2.604954
   H    Sr   H    Nb   H 
   1   1   4   1   1
Direct configuration=    47
   0.33171018  0.68215849  0.00655095
   0.83108181  0.82639220  0.66307845
   0.33062594  0.48099240  0.32585348
   0.83206171  0.50687315  0.85465373
   0.83224466  0.16071271  0.46796907
   0.33154396  0.01209387  0.48367676
   0.32783113  0.33417896  0.65771270
   0.33096561  0.12271421  0.07954085
unknown system                          
           1
     3.369194    0.203028    0.498101
    -0.579044    6.357767    1.308275
    -0.234475   -2.484801    2.609487
   H    Sr   H    Nb   H 
   1   1   4   1   1
Direct configuration=    48
   0.33197296  0.68195458  0.00790369
   0.83110200  0.82631267  0.66412360
   0.33049924  0.48263796  0.32824452
   0.83263289  0.50764368  0.85518147
   0.83276979  0.15998396  0.46871020
   0.33181475  0.00925563  0.47899352
   0.32634033  0.33453999  0.65891880
   0.33093304  0.12378753  0.07696019
unknown system                          
           1
     3.362683    0.202476    0.497368
    -0.579373    6.351420    1.311683
    -0.234041   -2.480294    2.606692
   H    Sr   H    Nb   H 
   1   1   4   1   1
Direct configuration=    49
   0.33219473  0.68095497  0.00797887
   0.83113591  0.82616599  0.66493831
   0.33034943  0.48326190  0.33015977
   0.83308555  0.50786007  0.85527173
   0.83318775  0.15958789  0.46939160
   0.33202604  0.00848497  0.47620145
   0.32521739  0.33469571  0.65876993
   0.33086819  0.12510451  0.07632435
unknown system                          
           1
     3.343151    0.200819    0.495169
    -0.580360    6.332380    1.321908
    -0.232738   -2.466775    2.598305
   H    Sr   H    Nb   H 
   1   1   4   1   1
Direct configuration=    50
   0.33286113  0.67795488  0.00820921
   0.83123760  0.82572519  0.66738603
   0.32989876  0.48513314  0.33590961
   0.83444619  0.50850943  0.85554172
   0.83444379  0.15839869  0.47143996
   0.33266171  0.00617401  0.46781860
   0.32184215  0.33516319  0.65832235
   0.33067367  0.12905748  0.07440851
unknown system                          
           1
     3.304085    0.197506    0.490770
    -0.582335    6.294299    1.342359
    -0.230132   -2.439736    2.581532
   H    Sr   H    Nb   H 
   1   1   4   1   1
Direct configuration=    51
   0.33420045  0.67194705  0.00869875
   0.83144071  0.82483905  0.67230327
   0.32898989  0.48887202  0.34743420
   0.83718339  0.50980928  0.85607703
   0.83696900  0.15601446  0.47556187
   0.33394394  0.00155836  0.45101280
   0.31505277  0.33610006  0.65742135
   0.33028484  0.13697573  0.07052672
unknown system                          
           1
     3.324905    0.199272    0.493114
    -0.581283    6.314594    1.331460
    -0.231520   -2.454146    2.590471
   H    Sr   H    Nb   H 
   1   1   4   1   1
Direct configuration=    52
   0.33347962  0.67515713  0.00840663
   0.83133276  0.82531623  0.66965909
   0.32948247  0.48688331  0.34126535
   0.83570732  0.50911531  0.85579682
   0.83560900  0.15729143  0.47333791
   0.33324873  0.00401146  0.46001269
   0.31871331  0.33559869  0.65790782
   0.33049179  0.13274245  0.07264969
unknown system                          
           1
     3.323868    0.199076    0.493058
    -0.581651    6.312845    1.333212
    -0.231238   -2.452403    2.589025
   H    Sr   H    Nb   H 
   1   1   4   1   1
Direct configuration=    53
   0.33363523  0.67469850  0.00855874
   0.83134856  0.82531307  0.67018907
   0.32937327  0.48730325  0.34216075
   0.83593922  0.50924680  0.85586797
   0.83586477  0.15707753  0.47371952
   0.33339897  0.00367040  0.45842740
   0.31807140  0.33530059  0.65792683
   0.33043359  0.13350585  0.07218572
unknown system                          
           1
     3.320758    0.198489    0.492890
    -0.582755    6.307598    1.338469
    -0.230389   -2.447174    2.584687
   H    Sr   H    Nb   H 
   1   1   4   1   1
Direct configuration=    54
   0.33410207  0.67332261  0.00901625
   0.83139591  0.82530355  0.67177996
   0.32904552  0.48856298  0.34484769
   0.83663515  0.50964126  0.85608124
   0.83663222  0.15643577  0.47486545
   0.33385001  0.00264745  0.45366942
   0.31614500  0.33440625  0.65798457
   0.33025912  0.13579614  0.07079141
unknown system                          
           1
     3.314539    0.197314    0.492553
    -0.584964    6.297104    1.348983
    -0.228691   -2.436716    2.576010
   H    Sr   H    Nb   H 
   1   1   4   1   1
Direct configuration=    55
   0.33503597  0.67057065  0.00993852
   0.83149019  0.82528407  0.67496743
   0.32838905  0.49108174  0.35022595
   0.83802839  0.51043016  0.85650674
   0.83816793  0.15515194  0.47716388