unknown system                          
           1
     3.557264   -0.007187   -0.218017
    -0.020479    6.603528   -0.181816
    -1.044534   -1.154553    7.643587
   Nb   H    Nb   H    Nb   H    Nb   H    Nb   H    Sr   H 
   1   1   1   4   1   1   1   1   1   8   1   2
Direct configuration=     1
   0.59106001  0.07339418  0.89585232
   0.05969879  0.07454870  0.82155644
   0.40813190  0.24361561  0.50638845
   0.59498403  0.02490095  0.63595640
   0.64996537  0.49266552  0.47444379
   0.51111807  0.31917415  0.75951822
   0.53778157  0.77764127  0.76251752
   0.41482165  0.75175183  0.50881757
   0.39134675  0.95479865  0.34247854
   0.78620816  0.43475011  0.24132754
   0.67234890  0.64594315  0.10011653
   0.81922080  0.93858462  0.23426144
   0.51932392  0.16528831  0.13415818
   0.83259713  0.32379997  0.00184081
   0.09864975  0.20395268  0.27171432
   0.25049693  0.43932303  0.14993742
   0.07634024  0.68982856  0.29098664
   0.44065371  0.87937761  0.01938740
   0.04559173  0.99838995  0.48607039
   0.95704127  0.75999548  0.60649591
   0.07711984  0.56842161  0.86322689
   0.94619191  0.27876691  0.60694339
   0.14170855  0.49377015  0.49075088
unknown system                          
           1
     3.555850   -0.007231   -0.218319
    -0.020531    6.594419   -0.181417
    -1.044970   -1.152591    7.639993
   Nb   H    Nb   H    Nb   H    Nb   H    Nb   H    Sr   H 
   1   1   1   4   1   1   1   1   1   8   1   2
Direct configuration=     2
   0.59102493  0.07311150  0.89558505
   0.05987903  0.07490009  0.82160373
   0.40834252  0.24351581  0.50639211
   0.59481477  0.02488907  0.63591652
   0.64973426  0.49265940  0.47438622
   0.51122518  0.31900582  0.75943454
   0.53784132  0.77774298  0.76250901
   0.41481041  0.75171597  0.50886813
   0.39152265  0.95470396  0.34250257
   0.78610914  0.43470489  0.24144429
   0.67253666  0.64592358  0.10019385
   0.81909678  0.93856936  0.23432324
   0.51940518  0.16537162  0.13430851
   0.83220259  0.32387635  0.00181634
   0.09853440  0.20397101  0.27164770
   0.25055504  0.43933307  0.14988251
   0.07602679  0.68980944  0.29100526
   0.44028335  0.87952797  0.01939365
   0.04554809  0.99837055  0.48597444
   0.95732749  0.76004499  0.60661243
   0.07724068  0.56837235  0.86317478
   0.94631298  0.27875851  0.60697446
   0.14202678  0.49380470  0.49079766
unknown system                          
           1
     3.554829   -0.007263   -0.218537
    -0.020568    6.587848   -0.181129
    -1.045285   -1.151175    7.637401
   Nb   H    Nb   H    Nb   H    Nb   H    Nb   H    Sr   H 
   1   1   1   4   1   1   1   1   1   8   1   2
Direct configuration=     3
   0.59099956  0.07290735  0.89539217
   0.06000911  0.07515392  0.82163785
   0.40849451  0.24344372  0.50639476
   0.59469261  0.02488049  0.63588773
   0.64956746  0.49265498  0.47434467
   0.51130246  0.31888423  0.75937415
   0.53788445  0.77781645  0.76250287
   0.41480230  0.75169006  0.50890462
   0.39164959  0.95463556  0.34251993
   0.78603770  0.43467220  0.24152854
   0.67267218  0.64590944  0.10024966
   0.81900729  0.93855833  0.23436784
   0.51946384  0.16543177  0.13441700
   0.83191786  0.32393152  0.00179866
   0.09845114  0.20398427  0.27159962
   0.25059696  0.43934033  0.14984288
   0.07580059  0.68979562  0.29101868
   0.44001607  0.87963658  0.01939814
   0.04551658  0.99835655  0.48590519
   0.95753407  0.76008075  0.60669654
   0.07732788  0.56833677  0.86313717
   0.94640035  0.27875244  0.60699690
   0.14225644  0.49382965  0.49083144
