   13   13   60    1
  0.1080518E+02  0.3846128E-09  0.5644242E-09  0.6745926E-09  0.5000000E-15
  1.000000000000000E-004
  CAR 
 unknown system                          
     41    232     28
 
  0.3742002E-15  0.3742002E-15  0.3742002E-15  0.2164502E-02
    1      -33.334205   1.000000
    2      -33.314884   1.000000
    3      -29.425405   1.000000
    4      -29.377960   1.000000
    5      -29.368128   1.000000
    6      -15.523616   1.000000
    7      -15.511389   1.000000
    8      -15.415328   1.000000
    9      -15.296186   1.000000
   10      -15.275130   1.000000
   11      -15.185703   1.000000
   12       -6.666817   1.000000
   13       -5.293549   1.000000
   14       -3.224546   1.000000
   15       -2.604914   1.000000
   16       -2.077905   1.000000
   17       -1.938613   1.000000
   18       -1.458173   1.000000
   19       -0.412985   1.000000
   20       -0.332607   1.000000
   21        2.369061   0.000000
   22        3.599746   0.000000
   23        3.831616   0.000000
   24        4.159436   0.000000
   25        4.668468   0.000000
   26        5.043310   0.000000
   27        6.051773   0.000000
   28        6.703226   0.000000
 
  0.9090909E-01  0.3744834E-15  0.3885781E-15  0.4329004E-02
    1      -33.332276   1.000000
    2      -33.313517   1.000000
    3      -29.431480   1.000000
    4      -29.377410   1.000000
    5      -29.367751   1.000000
    6      -15.518216   1.000000
    7      -15.505961   1.000000
    8      -15.412352   1.000000
    9      -15.317950   1.000000
   10      -15.285082   1.000000
   11      -15.213238   1.000000
   12       -6.602664   1.000000
   13       -5.226310   1.000000
   14       -3.160323   1.000000
   15       -2.586446   1.000000
   16       -2.052855   1.000000
   17       -1.928449   1.000000
   18       -1.491595   1.000000
   19       -0.496947   1.000000
   20       -0.393942   1.000000
   21        2.215446   0.000000
   22        3.601791   0.000000
   23        3.873653   0.000000
   24        4.217119   0.000000
   25        4.550349   0.000000
   26        5.147992   0.000000
   27        6.038549   0.000000
   28        6.465306   0.000000
 
  0.1818182E+00  0.3743208E-15  0.3747003E-15  0.4329004E-02
    1      -33.327031   1.000000
    2      -33.309901   1.000000
    3      -29.447500   1.000000
    4      -29.375752   1.000000
    5      -29.366772   1.000000
    6      -15.505829   1.000000
    7      -15.490378   1.000000
    8      -15.409206   1.000000
    9      -15.388017   1.000000
   10      -15.308415   1.000000
   11      -15.268109   1.000000
   12       -6.428507   1.000000
   13       -5.025354   1.000000
   14       -2.986923   1.000000
   15       -2.525775   1.000000
   16       -2.025990   1.000000
   17       -1.888542   1.000000
   18       -1.567129   1.000000
   19       -0.735281   1.000000
   20       -0.521363   1.000000
   21        1.861505   0.000039
   22        3.573572   0.000000
   23        3.941157   0.000000
   24        4.159403   0.000000
   25        4.552522   0.000000
   26        5.436970   0.000000
   27        5.877871   0.000000
   28        6.241714   0.000000
 
  0.2727273E+00  0.3770855E-15  0.4440892E-15  0.4329004E-02
    1      -33.319976   1.000000
    2      -33.305335   1.000000
    3      -29.468469   1.000000
    4      -29.373803   1.000000
    5      -29.365400   1.000000
    6      -15.510276   1.000000
    7      -15.492270   1.000000
    8      -15.460403   1.000000
    9      -15.401467   1.000000
   10      -15.370311   1.000000
   11      -15.283748   1.000000
   12       -6.203550   1.000000
   13       -4.721627   1.000000
   14       -2.774672   1.000000
   15       -2.435915   1.000000
   16       -2.060893   1.000000
   17       -1.852069   1.000000
   18       -1.628913   1.000000
   19       -1.020930   1.000000
   20       -0.665865   1.000000
   21        1.468724   0.956481
   22        3.432531   0.000000
   23        3.880423   0.000000
   24        4.209082   0.000000
   25        4.703290   0.000000
   26        5.472271   0.000000
   27        5.947529   0.000000
   28        6.210450   0.000000
 
  0.3636364E+00  0.3750797E-15  0.4718448E-15  0.4329004E-02
    1      -33.313201   1.000000
    2      -33.301406   1.000000
    3      -29.487582   1.000000
    4      -29.371987   1.000000
    5      -29.364232   1.000000
    6      -15.596947   1.000000
    7      -15.507866   1.000000
    8      -15.474426   1.000000
    9      -15.414790   1.000000
   10      -15.360414   1.000000
   11      -15.294979   1.000000
   12       -6.000184   1.000000
   13       -4.378029   1.000000
   14       -2.637582   1.000000
   15       -2.328482   1.000000
   16       -2.138298   1.000000
   17       -1.869139   1.000000
   18       -1.642581   1.000000
   19       -1.228906   1.000000
   20       -0.788203   1.000000
   21        1.146885   0.999996
   22        3.295605   0.000000
   23        3.850570   0.000000
   24        4.289928   0.000000
   25        4.718636   0.000000
   26        5.368750   0.000000
   27        5.704403   0.000000
   28        6.519437   0.000000
 
  0.4545455E+00  0.3760013E-15  0.4440892E-15  0.4329004E-02
    1      -33.308946   1.000000
    2      -33.299290   1.000000
    3      -29.498888   1.000000
    4      -29.370996   1.000000
    5      -29.363520   1.000000
    6      -15.650200   1.000000
    7      -15.550995   1.000000
    8      -15.469158   1.000000
    9      -15.405743   1.000000
   10      -15.337047   1.000000
   11      -15.311917   1.000000
   12       -5.880731   1.000000
   13       -4.123187   1.000000
   14       -2.635383   1.000000
   15       -2.251737   1.000000
   16       -2.157265   1.000000
   17       -1.930123   1.000000
   18       -1.643368   1.000000
   19       -1.307146   1.000000
   20       -0.858280   1.000000
   21        0.967246   1.000000
   22        3.328037   0.000000
   23        3.739681   0.000000
   24        4.288674   0.000000
   25        4.740045   0.000000
   26        5.246201   0.000000
   27        5.504690   0.000000
   28        6.400073   0.000000
 
  0.3740210E-15  0.1428571E+00  0.3733992E-15  0.4329004E-02
    1      -33.334120   1.000000
    2      -33.315100   1.000000
    3      -29.425448   1.000000
    4      -29.377513   1.000000
    5      -29.368214   1.000000
    6      -15.527086   1.000000
    7      -15.506017   1.000000
    8      -15.422732   1.000000
    9      -15.299084   1.000000
   10      -15.275419   1.000000
   11      -15.185933   1.000000
   12       -6.588051   1.000000
   13       -5.270071   1.000000
   14       -3.233464   1.000000
   15       -2.627652   1.000000
   16       -2.247244   1.000000
   17       -1.887678   1.000000
   18       -1.445303   1.000000
   19       -0.401595   1.000000
   20       -0.316458   1.000000
   21        2.378342   0.000000
   22        3.579143   0.000000
   23        3.764586   0.000000
   24        4.267809   0.000000
   25        4.576315   0.000000
   26        5.046687   0.000000
   27        5.928721   0.000000
   28        6.468727   0.000000
 
  0.9090909E-01  0.1428571E+00  0.3885781E-15  0.4329004E-02
    1      -33.332145   1.000000
    2      -33.313746   1.000000
    3      -29.431460   1.000000
    4      -29.376921   1.000000
    5      -29.367756   1.000000
    6      -15.520538   1.000000
    7      -15.500467   1.000000
    8      -15.422129   1.000000
    9      -15.317620   1.000000
   10      -15.286190   1.000000
   11      -15.213067   1.000000
   12       -6.527202   1.000000
   13       -5.202267   1.000000
   14       -3.160132   1.000000
   15       -2.637904   1.000000
   16       -2.190082   1.000000
   17       -1.829760   1.000000
   18       -1.521949   1.000000
   19       -0.478483   1.000000
   20       -0.397999   1.000000
   21        2.220727   0.000000
   22        3.643734   0.000000
   23        3.775946   0.000000
   24        4.268428   0.000000
   25        4.503354   0.000000
   26        5.135352   0.000000
   27        5.900121   0.000000
   28        6.380758   0.000000
 
  0.1818182E+00  0.1428571E+00  0.3608225E-15  0.4329004E-02
    1      -33.326873   1.000000
    2      -33.310110   1.000000
    3      -29.447619   1.000000
    4      -29.375517   1.000000
    5      -29.366812   1.000000
    6      -15.505763   1.000000
    7      -15.487222   1.000000
    8      -15.418526   1.000000
    9      -15.388279   1.000000
   10      -15.308430   1.000000
   11      -15.268056   1.000000
   12       -6.365048   1.000000
   13       -5.000534   1.000000
   14       -2.983063   1.000000
   15       -2.596672   1.000000
   16       -2.128551   1.000000
   17       -1.755068   1.000000
   18       -1.634587   1.000000
   19       -0.731050   1.000000
   20       -0.537633   1.000000
   21        1.855225   0.000055
   22        3.667423   0.000000
   23        3.848281   0.000000
   24        4.082528   0.000000
   25        4.585067   0.000000
   26        5.387703   0.000000
   27        5.839377   0.000000
   28        6.304940   0.000000
 
  0.2727273E+00  0.1428571E+00  0.3885781E-15  0.4329004E-02
    1      -33.319815   1.000000
    2      -33.305480   1.000000
    3      -29.468602   1.000000
    4      -29.373746   1.000000
    5      -29.365513   1.000000
    6      -15.511635   1.000000
    7      -15.486254   1.000000
    8      -15.458411   1.000000
    9      -15.412341   1.000000
   10      -15.370684   1.000000
   11      -15.283140   1.000000
   12       -6.154735   1.000000
   13       -4.691912   1.000000
   14       -2.784016   1.000000
   15       -2.504903   1.000000
   16       -2.120341   1.000000
   17       -1.746462   1.000000
   18       -1.673021   1.000000
   19       -1.044078   1.000000
   20       -0.664902   1.000000
   21        1.453927   1.015653
   22        3.513161   0.000000
   23        3.820409   0.000000
   24        4.070865   0.000000
   25        4.762470   0.000000
   26        5.458320   0.000000
   27        5.987806   0.000000
   28        6.241311   0.000000
 
  0.3636364E+00  0.1428571E+00  0.4440892E-15  0.4329004E-02
    1      -33.313063   1.000000
    2      -33.301455   1.000000
    3      -29.487742   1.000000
    4      -29.372067   1.000000
    5      -29.364198   1.000000
    6      -15.594804   1.000000
    7      -15.507181   1.000000
    8      -15.470114   1.000000
    9      -15.421508   1.000000
   10      -15.363697   1.000000
   11      -15.293965   1.000000
   12       -5.962205   1.000000
   13       -4.347971   1.000000
   14       -2.691836   1.000000
   15       -2.365309   1.000000
   16       -2.140900   1.000000
   17       -1.785213   1.000000
   18       -1.711641   1.000000
   19       -1.249008   1.000000
   20       -0.754050   1.000000
   21        1.135171   0.999998
   22        3.335870   0.000000
   23        3.765668   0.000000
   24        4.195890   0.000000
   25        4.694559   0.000000
   26        5.430112   0.000000
   27        5.894725   0.000000
   28        6.239694   0.000000
 
  0.4545455E+00  0.1428571E+00  0.3330669E-15  0.4329004E-02
    1      -33.308824   1.000000
    2      -33.299286   1.000000
    3      -29.499080   1.000000
    4      -29.371116   1.000000
    5      -29.363492   1.000000
    6      -15.647631   1.000000
    7      -15.550456   1.000000
    8      -15.469057   1.000000
    9      -15.408481   1.000000
   10      -15.339064   1.000000
   11      -15.310943   1.000000
   12       -5.848479   1.000000
   13       -4.112100   1.000000
   14       -2.664190   1.000000
   15       -2.234487   1.000000
   16       -2.156111   1.000000
   17       -1.962872   1.000000
   18       -1.684210   1.000000
   19       -1.285416   1.000000
   20       -0.819922   1.000000
   21        0.972683   1.000000
   22        3.316755   0.000000
   23        3.666122   0.000000
   24        4.241164   0.000000
   25        4.531450   0.000000
   26        5.394751   0.000000
   27        5.724838   0.000000
   28        6.297716   0.000000
 
 -0.4545455E+00  0.1428571E+00  0.2498002E-15  0.4329004E-02
    1      -33.308807   1.000000
    2      -33.299309   1.000000
    3      -29.499077   1.000000
    4      -29.371105   1.000000
    5      -29.363519   1.000000
    6      -15.648049   1.000000
    7      -15.550580   1.000000
    8      -15.472830   1.000000
    9      -15.404809   1.000000
   10      -15.334829   1.000000
   11      -15.314628   1.000000
   12       -5.847503   1.000000
   13       -4.127020   1.000000
   14       -2.582407   1.000000
   15       -2.253421   1.000000
   16       -2.145223   1.000000
   17       -2.049360   1.000000
   18       -1.651369   1.000000
   19       -1.279039   1.000000
   20       -0.839179   1.000000
   21        0.994489   1.000000
   22        3.301520   0.000000
   23        3.625255   0.000000
   24        4.180591   0.000000
   25        4.621233   0.000000
   26        5.478636   0.000000
   27        5.580495   0.000000
   28        6.483158   0.000000
 
 -0.3636364E+00  0.1428571E+00  0.3053113E-15  0.4329004E-02
    1      -33.313055   1.000000
    2      -33.301481   1.000000
    3      -29.487799   1.000000
    4      -29.372114   1.000000
    5      -29.364244   1.000000
    6      -15.595779   1.000000
    7      -15.507357   1.000000
    8      -15.481161   1.000000
    9      -15.411405   1.000000
   10      -15.358207   1.000000
   11      -15.297696   1.000000
   12       -5.962864   1.000000
   13       -4.367776   1.000000
   14       -2.606687   1.000000
   15       -2.318393   1.000000
   16       -2.149844   1.000000
   17       -1.979579   1.000000
   18       -1.621135   1.000000
   19       -1.249551   1.000000
   20       -0.763176   1.000000
   21        1.181712   0.999963
   22        3.239123   0.000000
   23        3.782903   0.000000
   24        4.140184   0.000000
   25        4.782291   0.000000
   26        5.369634   0.000000
   27        5.849530   0.000000
   28        6.505859   0.000000
 
 -0.2727273E+00  0.1428571E+00  0.3608225E-15  0.4329004E-02
    1      -33.319861   1.000000
    2      -33.305450   1.000000
    3      -29.468622   1.000000
    4      -29.373766   1.000000
    5      -29.365434   1.000000
    6      -15.512061   1.000000
    7      -15.496425   1.000000
    8      -15.458167   1.000000
    9      -15.400995   1.000000
   10      -15.368295   1.000000
   11      -15.286671   1.000000
   12       -6.154811   1.000000
   13       -4.694684   1.000000
   14       -2.789465   1.000000
   15       -2.396043   1.000000
   16       -2.140036   1.000000
   17       -1.936410   1.000000
   18       -1.581821   1.000000
   19       -1.054044   1.000000
   20       -0.630413   1.000000
   21        1.494366   0.775867
   22        3.336218   0.000000
   23        3.900717   0.000000
   24        4.132800   0.000000
   25        4.770089   0.000000
   26        5.373038   0.000000
   27        6.127585   0.000000
   28        6.237759   0.000000
 
 -0.1818182E+00  0.1428571E+00  0.3469447E-15  0.4329004E-02
    1      -33.326956   1.000000
    2      -33.310045   1.000000
    3      -29.447607   1.000000
    4      -29.375601   1.000000
    5      -29.366784   1.000000
    6      -15.512408   1.000000
    7      -15.486015   1.000000
    8      -15.409725   1.000000
    9      -15.388433   1.000000
   10      -15.310890   1.000000
   11      -15.269078   1.000000
   12       -6.365678   1.000000
   13       -4.995878   1.000000
   14       -3.009377   1.000000
   15       -2.488219   1.000000
   16       -2.179453   1.000000
   17       -1.940565   1.000000
   18       -1.503071   1.000000
   19       -0.745345   1.000000
   20       -0.492968   1.000000
   21        1.874382   0.000018
   22        3.482934   0.000000
   23        3.956285   0.000000
   24        4.152450   0.000000
   25        4.580359   0.000000
   26        5.451988   0.000000
   27        5.727385   0.000000
   28        6.317334   0.000000
 
 -0.9090909E-01  0.1428571E+00  0.3816392E-15  0.4329004E-02
    1      -33.332207   1.000000
    2      -33.313691   1.000000
    3      -29.431448   1.000000
    4      -29.376952   1.000000
    5      -29.367784   1.000000
    6      -15.522900   1.000000
    7      -15.500761   1.000000
    8      -15.416390   1.000000
    9      -15.319491   1.000000
   10      -15.287617   1.000000
   11      -15.213107   1.000000
   12       -6.526905   1.000000
   13       -5.197092   1.000000
   14       -3.176171   1.000000
   15       -2.571970   1.000000
   16       -2.237987   1.000000
   17       -1.922924   1.000000
   18       -1.441568   1.000000
   19       -0.483496   1.000000
   20       -0.378904   1.000000
   21        2.222711   0.000000
   22        3.553935   0.000000
   23        3.852414   0.000000
   24        4.267954   0.000000
   25        4.502020   0.000000
   26        5.170108   0.000000
   27        5.878992   0.000000
   28        6.410515   0.000000
 
  0.3744631E-15  0.2857143E+00  0.3712308E-15  0.4329004E-02
    1      -33.333935   1.000000
    2      -33.315577   1.000000
    3      -29.425337   1.000000
    4      -29.376683   1.000000
    5      -29.368197   1.000000
    6      -15.531539   1.000000
    7      -15.495060   1.000000
    8      -15.440989   1.000000
    9      -15.306035   1.000000
   10      -15.275720   1.000000
   11      -15.186136   1.000000
   12       -6.390782   1.000000
   13       -5.227586   1.000000
   14       -3.273548   1.000000
   15       -2.724426   1.000000
   16       -2.464270   1.000000
   17       -1.809443   1.000000
   18       -1.489888   1.000000
   19       -0.355439   1.000000
   20       -0.278677   1.000000
   21        2.393244   0.000000
   22        3.544632   0.000000
   23        3.614103   0.000000
   24        4.426218   0.000000
   25        4.434035   0.000000
   26        5.080707   0.000000
   27        5.637460   0.000000
   28        6.169500   0.000000
 
  0.9090909E-01  0.2857143E+00  0.3885781E-15  0.4329004E-02
    1      -33.331930   1.000000
    2      -33.314215   1.000000
    3      -29.431515   1.000000
    4      -29.376199   1.000000
    5      -29.367810   1.000000
    6      -15.525752   1.000000
    7      -15.488726   1.000000
    8      -15.440914   1.000000
    9      -15.319347   1.000000
   10      -15.290415   1.000000
   11      -15.213016   1.000000
   12       -6.342779   1.000000
   13       -5.156127   1.000000
   14       -3.192044   1.000000
   15       -2.745149   1.000000
   16       -2.399616   1.000000
   17       -1.741960   1.000000
   18       -1.563651   1.000000
   19       -0.435062   1.000000
   20       -0.388343   1.000000
   21        2.231188   0.000000
   22        3.614864   0.000000
   23        3.675771   0.000000
   24        4.242786   0.000000
   25        4.524019   0.000000
   26        5.077641   0.000000
   27        5.682304   0.000000
   28        6.179604   0.000000
 
  0.1818182E+00  0.2857143E+00  0.4024558E-15  0.4329004E-02
    1      -33.326600   1.000000
    2      -33.310518   1.000000
    3      -29.447787   1.000000
    4      -29.375019   1.000000
    5      -29.366854   1.000000
    6      -15.512309   1.000000
    7      -15.476978   1.000000
    8      -15.432712   1.000000
    9      -15.387992   1.000000
   10      -15.311214   1.000000
   11      -15.268982   1.000000
   12       -6.210075   1.000000
   13       -4.942124   1.000000
   14       -3.002509   1.000000
   15       -2.718600   1.000000
   16       -2.298551   1.000000
   17       -1.667809   1.000000
   18       -1.650323   1.000000
   19       -0.745084   1.000000
   20       -0.534372   1.000000
   21        1.861587   0.000039
   22        3.658309   0.000000
   23        3.762958   0.000000
   24        4.007935   0.000000
   25        4.635607   0.000000
   26        5.239575   0.000000
   27        5.811838   0.000000
   28        6.138903   0.000000
 
  0.2727273E+00  0.2857143E+00  0.4440892E-15  0.4329004E-02
    1      -33.319494   1.000000
    2      -33.305772   1.000000
    3      -29.468925   1.000000
    4      -29.373541   1.000000
    5      -29.365554   1.000000
    6      -15.516646   1.000000
    7      -15.480817   1.000000
    8      -15.451458   1.000000
    9      -15.426297   1.000000
   10      -15.370871   1.000000
   11      -15.285237   1.000000
   12       -6.035899   1.000000
   13       -4.626007   1.000000
   14       -2.802212   1.000000
   15       -2.649525   1.000000
   16       -2.196237   1.000000
   17       -1.724023   1.000000
   18       -1.617610   1.000000
   19       -1.109605   1.000000
   20       -0.653386   1.000000
   21        1.462576   0.985038
   22        3.509015   0.000000
   23        3.726098   0.000000
   24        3.908389   0.000000
   25        4.894212   0.000000
   26        5.333077   0.000000
   27        5.868674   0.000000
   28        6.289997   0.000000
 
  0.3636364E+00  0.2857143E+00  0.4440892E-15  0.4329004E-02
    1      -33.312740   1.000000
    2      -33.301603   1.000000
    3      -29.488171   1.000000
    4      -29.372213   1.000000
    5      -29.364248   1.000000
    6      -15.591370   1.000000
    7      -15.506008   1.000000
    8      -15.471731   1.000000
    9      -15.425093   1.000000
   10      -15.366253   1.000000
   11      -15.295046   1.000000
   12       -5.873393   1.000000
   13       -4.297291   1.000000
   14       -2.757357   1.000000
   15       -2.452510   1.000000
   16       -2.098258   1.000000
   17       -1.837052   1.000000
   18       -1.680490   1.000000
   19       -1.287190   1.000000
   20       -0.718524   1.000000
   21        1.152644   0.999994
   22        3.323669   0.000000
   23        3.612954   0.000000
   24        3.938542   0.000000
   25        4.819902   0.000000
   26        5.353312   0.000000
   27        5.903705   0.000000
   28        6.279489   0.000000
 
  0.4545455E+00  0.2857143E+00  0.4440892E-15  0.4329004E-02
    1      -33.308534   1.000000
    2      -33.299308   1.000000
    3      -29.499517   1.000000
    4      -29.371347   1.000000
    5      -29.363517   1.000000
    6      -15.642443   1.000000
    7      -15.549434   1.000000
    8      -15.472793   1.000000
    9      -15.410319   1.000000
   10      -15.340318   1.000000
   11      -15.311734   1.000000
   12       -5.773826   1.000000
   13       -4.096592   1.000000
   14       -2.681270   1.000000
   15       -2.291503   1.000000
   16       -2.125817   1.000000
   17       -2.020174   1.000000
   18       -1.709150   1.000000
   19       -1.254278   1.000000
   20       -0.773379   1.000000
   21        1.003187   1.000000
   22        3.263029   0.000000
   23        3.490879   0.000000
   24        3.975429   0.000000
   25        4.501170   0.000000
   26        5.426045   0.000000
   27        5.896327   0.000000
   28        6.325074   0.000000
 
 -0.4545455E+00  0.2857143E+00  0.2775558E-15  0.4329004E-02
    1      -33.308506   1.000000
    2      -33.299337   1.000000
    3      -29.499521   1.000000
    4      -29.371310   1.000000
    5      -29.363454   1.000000
    6      -15.642862   1.000000
    7      -15.549578   1.000000
    8      -15.477312   1.000000
    9      -15.406057   1.000000
   10      -15.334729   1.000000
   11      -15.316281   1.000000
   12       -5.773303   1.000000
   13       -4.117205   1.000000
   14       -2.529205   1.000000
   15       -2.347752   1.000000
   16       -2.203427   1.000000
   17       -2.037781   1.000000
   18       -1.687180   1.000000
   19       -1.238811   1.000000
   20       -0.794651   1.000000
   21        1.030982   1.000000
   22        3.257538   0.000000
   23        3.434298   0.000000
   24        4.000693   0.000000
   25        4.448411   0.000000
   26        5.449481   0.000000
   27        5.928576   0.000000
   28        6.370472   0.000000
 
 -0.3636364E+00  0.2857143E+00  0.3053113E-15  0.4329004E-02
    1      -33.312731   1.000000
    2      -33.301630   1.000000
    3      -29.488179   1.000000
    4      -29.372191   1.000000
    5      -29.364270   1.000000
    6      -15.592430   1.000000
    7      -15.505804   1.000000
    8      -15.485869   1.000000
    9      -15.412923   1.000000
   10      -15.358943   1.000000
   11      -15.299702   1.000000
   12       -5.874313   1.000000
   13       -4.325564   1.000000
   14       -2.616163   1.000000
   15       -2.409195   1.000000
   16       -2.176975   1.000000
   17       -1.983097   1.000000
   18       -1.634059   1.000000
   19       -1.267232   1.000000
   20       -0.725042   1.000000
   21        1.210761   0.999826
   22        3.219983   0.000000
   23        3.594942   0.000000
   24        4.013817   0.000000
   25        4.626929   0.000000
   26        5.403242   0.000000
   27        6.101122   0.000000
   28        6.293265   0.000000
 
 -0.2727273E+00  0.2857143E+00  0.4024558E-15  0.4329004E-02
    1      -33.319543   1.000000
    2      -33.305727   1.000000
    3      -29.468814   1.000000
    4      -29.373501   1.000000
    5      -29.365381   1.000000
    6      -15.517968   1.000000
    7      -15.492938   1.000000
    8      -15.454555   1.000000
    9      -15.408392   1.000000
   10      -15.367395   1.000000
   11      -15.289402   1.000000
   12       -6.035915   1.000000
   13       -4.630548   1.000000
   14       -2.812356   1.000000
   15       -2.518107   1.000000
   16       -2.235008   1.000000
   17       -1.880784   1.000000
   18       -1.573700   1.000000
   19       -1.098072   1.000000
   20       -0.611355   1.000000
   21        1.512591   0.599089
   22        3.311418   0.000000
   23        3.809212   0.000000
   24        4.009104   0.000000
   25        4.728521   0.000000
   26        5.326371   0.000000
   27        6.060038   0.000000
   28        6.239861   0.000000
 
 -0.1818182E+00  0.2857143E+00  0.3330669E-15  0.4329004E-02
    1      -33.326695   1.000000
    2      -33.310432   1.000000
    3      -29.447738   1.000000
    4      -29.374993   1.000000
    5      -29.366758   1.000000
    6      -15.517730   1.000000
    7      -15.480960   1.000000
    8      -15.418851   1.000000
    9      -15.388323   1.000000
   10      -15.314101   1.000000
   11      -15.269989   1.000000
   12       -6.209768   1.000000
   13       -4.933369   1.000000
   14       -3.051144   1.000000
   15       -2.577067   1.000000
   16       -2.364949   1.000000
   17       -1.870857   1.000000
   18       -1.504326   1.000000
   19       -0.752127   1.000000
   20       -0.482959   1.000000
   21        1.886065   0.000009
   22        3.459427   0.000000
   23        3.913906   0.000000
   24        4.038183   0.000000
   25        4.590103   0.000000
   26        5.313768   0.000000
   27        5.715305   0.000000
   28        6.144056   0.000000
 
 -0.9090909E-01  0.2857143E+00  0.3747003E-15  0.4329004E-02
    1      -33.332006   1.000000
    2      -33.314145   1.000000
    3      -29.431401   1.000000
    4      -29.376143   1.000000
    5      -29.367820   1.000000
    6      -15.527483   1.000000
    7      -15.492389   1.000000
    8      -15.431659   1.000000
    9      -15.321814   1.000000
   10      -15.291589   1.000000
   11      -15.212980   1.000000
   12       -6.341449   1.000000
   13       -5.147940   1.000000
   14       -3.221550   1.000000
   15       -2.655027   1.000000
   16       -2.455042   1.000000
   17       -1.852965   1.000000
   18       -1.468187   1.000000
   19       -0.444873   1.000000
   20       -0.359957   1.000000
   21        2.234253   0.000000
   22        3.533451   0.000000
   23        3.738852   0.000000
   24        4.233127   0.000000
   25        4.507953   0.000000
   26        5.173894   0.000000
   27        5.644384   0.000000
   28        6.152702   0.000000
 
  0.3733247E-15  0.4285714E+00  0.3747003E-15  0.4329004E-02
    1      -33.333777   1.000000
    2      -33.315971   1.000000
    3      -29.425266   1.000000
    4      -29.375960   1.000000
    5      -29.368215   1.000000
    6      -15.533260   1.000000
    7      -15.484938   1.000000
    8      -15.458659   1.000000
    9      -15.311661   1.000000
   10      -15.276004   1.000000
   11      -15.186329   1.000000
   12       -6.200012   1.000000
   13       -5.211354   1.000000
   14       -3.349100   1.000000
   15       -2.846524   1.000000
   16       -2.524492   1.000000
   17       -1.739218   1.000000
   18       -1.575907   1.000000
   19       -0.305019   1.000000
   20       -0.245794   1.000000
   21        2.397558   0.000000
   22        3.473354   0.000000
   23        3.536769   0.000000
   24        4.371685   0.000000
   25        4.419382   0.000000
   26        5.199853   0.000000
   27        5.394819   0.000000
   28        6.104377   0.000000
 
  0.9090909E-01  0.4285714E+00  0.3677614E-15  0.4329004E-02
    1      -33.331777   1.000000
    2      -33.314575   1.000000
    3      -29.431487   1.000000
    4      -29.375558   1.000000
    5      -29.367859   1.000000
    6      -15.528478   1.000000
    7      -15.480692   1.000000
    8      -15.454246   1.000000
    9      -15.322177   1.000000
   10      -15.293742   1.000000
   11      -15.213059   1.000000
   12       -6.166025   1.000000
   13       -5.130238   1.000000
   14       -3.269468   1.000000
   15       -2.840869   1.000000
   16       -2.478321   1.000000
   17       -1.709226   1.000000
   18       -1.597871   1.000000
   19       -0.407157   1.000000
   20       -0.361902   1.000000
   21        2.236625   0.000000
   22        3.511619   0.000000
   23        3.673495   0.000000
   24        4.188828   0.000000
   25        4.501404   0.000000
   26        4.993894   0.000000
   27        5.625507   0.000000
   28        6.130825   0.000000
 
  0.1818182E+00  0.4285714E+00  0.3608225E-15  0.4329004E-02
    1      -33.326403   1.000000
    2      -33.310825   1.000000
    3      -29.447966   1.000000
    4      -29.374620   1.000000