Automatically generated mesh
      37
Reciprocal lattice
    0.00000000000000    0.00000000000000    0.00000000000000             1
    0.12500000000000    0.00000000000000    0.00000000000000             2
    0.25000000000000    0.00000000000000    0.00000000000000             2
    0.37500000000000    0.00000000000000    0.00000000000000             2
    0.50000000000000    0.00000000000000    0.00000000000000             1
    0.00000000000000    0.33333333333333    0.00000000000000             2
    0.12500000000000    0.33333333333333    0.00000000000000             2
    0.25000000000000    0.33333333333333    0.00000000000000             2
    0.37500000000000    0.33333333333333    0.00000000000000             2
    0.50000000000000    0.33333333333333    0.00000000000000             2
   -0.37500000000000    0.33333333333333    0.00000000000000             2
   -0.25000000000000    0.33333333333333    0.00000000000000             2
   -0.12500000000000    0.33333333333333    0.00000000000000             2
    0.00000000000000    0.00000000000000    0.33333333333333             2
    0.12500000000000    0.00000000000000    0.33333333333333             2
    0.25000000000000    0.00000000000000    0.33333333333333             2
    0.37500000000000    0.00000000000000    0.33333333333333             2
    0.50000000000000    0.00000000000000    0.33333333333333             2
   -0.37500000000000    0.00000000000000    0.33333333333333             2
   -0.25000000000000    0.00000000000000    0.33333333333333             2
   -0.12500000000000    0.00000000000000    0.33333333333333             2
    0.00000000000000    0.33333333333333    0.33333333333333             2
    0.12500000000000    0.33333333333333    0.33333333333333             2
    0.25000000000000    0.33333333333333    0.33333333333333             2
    0.37500000000000    0.33333333333333    0.33333333333333             2
    0.50000000000000    0.33333333333333    0.33333333333333             2
   -0.37500000000000    0.33333333333333    0.33333333333333             2
   -0.25000000000000    0.33333333333333    0.33333333333333             2
   -0.12500000000000    0.33333333333333    0.33333333333333             2
    0.00000000000000   -0.33333333333333    0.33333333333333             2
    0.12500000000000   -0.33333333333333    0.33333333333333             2
    0.25000000000000   -0.33333333333333    0.33333333333333             2
    0.37500000000000   -0.33333333333333    0.33333333333333             2
    0.50000000000000   -0.33333333333333    0.33333333333333             2
   -0.37500000000000   -0.33333333333333    0.33333333333333             2
   -0.25000000000000   -0.33333333333333    0.33333333333333             2
   -0.12500000000000   -0.33333333333333    0.33333333333333             2
Tetrahedra
       214    0.00231481481481
         2         1         6         7        23
         2         1         2         7        23
         2         1         2        15        23
         2         1         6        22        23
         2         1        14        22        23
         2         1        14        15        23
         2         2         7         8        24
         2         2         3         8        24
         2         2         3        16        24
         2         2         7        23        24
         2         2        15        23        24
         2         2        15        16        24
         2         3         8         9        25
         2         3         4         9        25
         2         3         4        17        25
         2         3         8        24        25
         2         3        16        24        25
         2         3        16        17        25
         2         4         9        10        26
         2         4         5        10        26
         2         4         5        18        26
         2         4         9        25        26
         2         4        17        25        26
         2         4        17        18        26
         2         5        10        11        27
         2         4         5        11        27
         2         4         5        19        27
         2         5        10        26        27
         2         5        18        26        27
         2         5        18        19        27
         2         4        11        12        28
         2         3         4        12        28
         2         3         4        20        28
         2         4        11        27        28
         2         4        19        27        28
         2         4        19        20        28
         2         3        12        13        29
         2         2         3        13        29
         2         2         3        21        29
         2         3        12        28        29
         2         3        20        28        29
         2         3        20        21        29
         2         2         6        13        22
         2         1         2         6        22
         2         1         2        14        22
         2         2        13        22        29
         2         2        21        22        29
         2         2        14        21        22
         2         6         6        13        31
         2         6         7        13        31
         2         6         7        23        31
         2         6         6        30        31
         2         6        22        30        31
         2         6        22        23        31
         2         7        12        13        32
         2         7         8        12        32
         2         7         8        24        32
         2         7        13        31        32
         2         7        23        31        32
         2         7        23        24        32
         2         8        11        12        33
         2         8         9        11        33
         2         8         9        25        33
         2         8        12        32        33
         2         8        24        32        33
         2         8        24        25        33
         2         9        10        11        34
         2         9        10        10        34
         2         9        10        26        34
         2         9        11        33        34
         2         9        25        33        34
         2         9        25        26        34
         2         9        10        10        35
         2         9        10        11        35
         2        10        11        27        35
         2        10        10        34        35
         2        10        26        34        35
         2        10        26        27        35
         2         8         9        11        36
         2         8        11        12        36
         2        11        12        28        36
         2         9        11        35        36
         2        11        27        35        36
         2        11        27        28        36
         2         7         8        12        37
         2         7        12        13        37
         2        12        13        29        37
         2         8        12        36        37
         2        12        28        36        37
         2        12        28        29        37
         2         6         7        13        30
         2         6         6        13        30
         2         6        13        22        30
         2         7        13        30        37
         2        13        29        30        37
         2        13        22        29        30
         2         1         2         6        15
         2         2         6        13        15
         2         6        13        15        31
         2         1         6        14        15
         2         6        14        15        30
         2         6        15        30        31
         2         2         3        13        16
         2         3        12        13        16
         2        12        13        16        32
         2         2        13        15        16
         2        13        15        16        31
         2        13        16        31        32
         2         3         4        12        17
         2         4        11        12        17
         2        11        12        17        33
         2         3        12        16        17
         2        12        16        17        32
         2        12        17        32        33
         2         4         5        11        18
         2         5        10        11        18
         2        10        11        18        34
         2         4        11        17        18
         2        11        17        18        33
         2        11        18        33        34
         2         4         5        10        19
         2         4         9        10        19
         2         9        10        19        35
         2         5        10        18        19
         2        10        18        19        34
         2        10        19        34        35
         2         3         4         9        20
         2         3         8         9        20
         2         8         9        20        36
         2         4         9        19        20
         2         9        19        20        35
         2         9        20        35        36
         2         2         3         8        21
         2         2         7         8        21
         2         7         8        21        37
         2         3         8        20        21
         2         8        20        21        36
         2         8        21        36        37
         2         1         2         7        14
         2         1         6         7        14
         2         6         7        14        30
         2         2         7        14        21
         2         7        14        21        37
         2         7        14        30        37
         2        14        22        23        37
         2        14        15        23        37
         2        14        15        21        37
         2        14        22        30        37
         2        14        14        30        37
         2        14        14        21        37
         2        15        23        24        36
         2        15        16        24        36
         2        15        16        20        36
         2        15        23        36        37
         2        15        21        36        37
         2        15        20        21        36
         2        16        24        25        35
         2        16        17        25        35
         2        16        17        19        35
         2        16        24        35        36
         2        16        20        35        36
         2        16        19        20        35
         2        17        25        26        34
         2        17        18        26        34
         2        17        18        18        34
         2        17        25        34        35
         2        17        19        34        35
         2        17        18        19        34
         2        18        26        27        33
         2        18        19        27        33
         2        17        18        19        33
         2        18        26        33        34
         2        18        18        33        34
         2        17        18        18        33
         2        19        27        28        32
         2        19        20        28        32
         2        16        19        20        32
         2        19        27        32        33
         2        17        19        32        33
         2        16        17        19        32
         2        20        28        29        31
         2        20        21        29        31
         2        15        20        21        31
         2        20        28        31        32
         2        16        20        31        32
         2        15        16        20        31
         2        21        22        29        30
         2        14        21        22        30
         2        14        14        21        30
         2        21        29        30        31
         2        15        21        30        31
         2        14        15        21        30
         2        22        29        30        31
         2        22        23        29        31
         2        22        23        29        37
         4        22        22        29        30
         2        22        29        30        37
         2        23        28        31        32
         2        23        24        28        32
         2        23        24        28        36
         2        23        28        29        31
         2        23        28        29        37
         2        23        28        36        37
         2        24        27        32        33
         2        24        25        27        33
         2        24        25        27        35
         2        24        27        28        32
         2        24        27        28        36
         2        24        27        35        36
         2        25        26        33        34
         4        25        26        26        34
         2        25        26        27        33
         2        25        26        27        35
         2        25        26        34        35
