unknown system                          
           1
     3.136175    0.021173    0.054316
     0.427452    6.449648    0.502990
     1.563519    1.298764    6.155962
   Sr   Nb   H 
   1   1  12
Direct configuration=     1
   0.96134000  0.06648000  0.18051600
   0.72482800  0.02186700  0.70841900
   0.87605800  0.67789100  0.22938200
   0.00892400  0.65601100  0.31591700
   0.19844300  0.45444400  0.98075600
   0.95292600  0.47836100  0.98860100
   0.83064500  0.25512400  0.45590400
   0.36677800  0.48883200  0.55672200
   0.27011400  0.58872300  0.58881000
   0.16223900  0.18169900  0.77701000
   0.32782800  0.99026000  0.51602200
   0.76553500  0.75115100  0.70104500
   0.18441200  0.85175500  0.83158100
   0.57119100  0.90854600  0.02183400
unknown system                          
           1
     3.167269    0.021515    0.054280
     0.431808    6.515171    0.510855
     1.577918    1.314773    6.217430
   Sr   Nb   H 
   1   1  12
Direct configuration=     2
   0.96184233  0.06627022  0.18046747
   0.72447549  0.02140013  0.70825859
   0.87583411  0.67780353  0.22930428
   0.00942782  0.65579856  0.31589262
   0.19802426  0.45442744  0.98087003
   0.95367308  0.47814148  0.98858208
   0.83019968  0.25489266  0.45605957
   0.36604593  0.48958366  0.55702608
   0.27080648  0.58816922  0.58863458
   0.16209911  0.18156783  0.77713399
   0.32776096  0.99027527  0.51596672
   0.76524828  0.75203446  0.70119926
   0.18453139  0.85202932  0.83135114
   0.57129207  0.90875021  0.02177258
unknown system                          
           1
     3.205052    0.021930    0.054235
     0.437101    6.594790    0.520411
     1.595415    1.334226    6.292122
   Sr   Nb   H 
   1   1  12
Direct configuration=     3
   0.96244665  0.06601785  0.18040925
   0.72405117  0.02083858  0.70806581
   0.87556467  0.67769835  0.22921080
   0.01003392  0.65554299  0.31586346
   0.19752050  0.45440748  0.98100720
   0.95457187  0.47787737  0.98855951
   0.82966392  0.25461427  0.45624682
   0.36516547  0.49048780  0.55739146
   0.27163942  0.58750307  0.58842389
   0.16193083  0.18140997  0.77728323
   0.32768027  0.99029368  0.51590019
   0.76490362  0.75309722  0.70138434
   0.18467499  0.85235945  0.83107445
   0.57141370  0.90899591  0.02169859
unknown system                          
           1
     3.222511    0.022304    0.051160
     0.439229    6.657750    0.525967
     1.597564    1.350066    6.324686
   Sr   Nb   H 
   1   1  12
Direct configuration=     4
   0.96331759  0.06508582  0.18007035
   0.72384382  0.02015296  0.70856292
   0.88001264  0.67701671  0.23208546
   0.00596750  0.65614821  0.31275229
   0.19276339  0.45464335  0.98135252
   0.95973253  0.47707591  0.98846309
   0.82845341  0.25213035  0.45772689
   0.36505935  0.49052238  0.55748965
   0.27165469  0.58779039  0.58849644
   0.16200225  0.17980044  0.77709867
   0.32718620  0.99058026  0.51638389
   0.76425743  0.75580140  0.70157950
   0.18503787  0.85410915  0.82974179
   0.57197232  0.91028665  0.02071554
unknown system                          
           1
     3.216065    0.022166    0.052295
     0.438444    6.634507    0.523916
     1.596771    1.344218    6.312664
   Sr   Nb   H 
   1   1  12
Direct configuration=     5
   0.96299837  0.06542653  0.18019462
   0.72391974  0.02040392  0.70838034
   0.87837788  0.67726767  0.23102864
   0.00746240  0.65592510  0.31389590
   0.19450934  0.45455701  0.98122665
   0.95783840  0.47736923  0.98849744
   0.82889729  0.25303939  0.45718339
   0.36509823  0.49050978  0.55745361
   0.27164896  0.58768536  0.58846980
   0.16197657  0.18038895  0.77716639
   0.32736714  0.99047567  0.51620633
   0.76449381  0.75481257  0.70150805
   0.18490522  0.85346865  0.83023129
   0.57176767  0.90981417  0.02107656
unknown system                          
           1
     3.224915    0.021777    0.051481
     0.438405    6.678492    0.524379
     1.599230    1.352843    6.319709
   Sr   Nb   H 
   1   1  12
Direct configuration=     6
   0.96407131  0.06406398  0.17976073
   0.72374963  0.02006753  0.70899220
   0.87848287  0.67741234  0.23099655
   0.00783132  0.65584143  0.31361964
   0.19408433  0.45427926  0.98149114
   0.95862084  0.47691336  0.98859827
   0.82733493  0.24933768  0.45928280
   0.36446786  0.49103275  0.55772294
   0.27216962  0.58753536  0.58838105
   0.16225664  0.17796100  0.77677486
   0.32661387  0.99092720  0.51701177
   0.76374748  0.75820576  0.70172889
   0.18538945  0.85592851  0.82840547
   0.57244086  0.91163784  0.01975269
unknown system                          
           1
     3.251463    0.020611    0.049038
     0.438288    6.810450    0.525770
     1.606606    1.378717    6.340845
   Sr   Nb   H 
   1   1  12
Direct configuration=     7
   0.96727838  0.06000519  0.17845891
   0.72323988  0.01906311  0.71082536
   0.87879726  0.67784355  0.23090061
   0.00893486  0.65559304  0.31279175
   0.19281223  0.45345066  0.98228323
   0.96096055  0.47555465  0.98890015
   0.82265283  0.23829981  0.46556858
   0.36258308  0.49259021  0.55853058
   0.27372690  0.58708869  0.58811508
   0.16308960  0.17072717  0.77559813
   0.32436114  0.99227002  0.51942595
   0.76152172  0.76831649  0.70239527
   0.18684369  0.86326474  0.82293734
   0.57445890  0.91707666  0.01578806
unknown system                          
           1
     3.256731    0.019632    0.048740
     0.436615    6.873829    0.517942
     1.608127    1.383484    6.344511
   Sr   Nb   H 
   1   1  12
Direct configuration=     8
   0.96826100  0.05845555  0.17848382
   0.72312263  0.02090168  0.70988262
   0.87751201  0.67830162  0.22988884
   0.01079712  0.65536893  0.31331770
   0.19541492  0.45270088  0.98256583
   0.95861682  0.47520077  0.98920272
   0.82145337  0.23515052  0.46663835
   0.36229484  0.49253981  0.55872751
   0.27379438  0.58746033  0.58825990
   0.16353044  0.16851128  0.77526394
   0.32360040  0.99280935  0.52017725
   0.76116683  0.76976092  0.70264141
   0.18711632  0.86519608  0.82173274
   0.57457991  0.91878630  0.01573636
unknown system                          
           1
     3.257307    0.019524    0.048707
     0.436432    6.880763    0.517085
     1.608293    1.384005    6.344912
   Sr   Nb   H 
   1   1  12
Direct configuration=     9
   0.96836819  0.05828765  0.17848620
   0.72311000  0.02110096  0.70977994
   0.87737169  0.67835130  0.22977830
   0.01100050  0.65534464  0.31337517
   0.19569914  0.45261965  0.98259658
   0.95836078  0.47516237  0.98923571
   0.82132207  0.23480919  0.46675463
   0.36226335  0.49253433  0.55874904
   0.27380178  0.58750058  0.58827582
   0.16357840  0.16827120  0.77522691
   0.32351734  0.99286773  0.52025952
   0.76112820  0.76991741  0.70266864
   0.18714629  0.86540543  0.82160144
   0.57459328  0.91897155  0.01573109
unknown system                          
           1
     3.252143    0.019452    0.047591
     0.435302    6.939586    0.500659
     1.603623    1.381060    6.340414
   Sr   Nb   H 
   1   1  12
Direct configuration=    10
   0.96898536  0.05703702  0.17890057
   0.72291733  0.02220107  0.70880991
   0.87801123  0.67854311  0.22988394
   0.01091612  0.65559425  0.31266498
   0.19502560  0.45207457  0.98300538
   0.95913253  0.47439989  0.98951976
   0.82099944  0.23337733  0.46599197
   0.36137015  0.49300070  0.55916241
   0.27439252  0.58721718  0.58830234
   0.16403195  0.16702244  0.77505428
   0.32297800  0.99345959  0.52063918
   0.76108462  0.77025690  0.70278308
   0.18713498  0.86663818  0.82114597
   0.57428117  0.92032178  0.01665522
unknown system                          
           1
     3.242645    0.019318    0.045538
     0.433225    7.047761    0.470451
     1.595034    1.375644    6.332143
   Sr   Nb   H 
   1   1  12
Direct configuration=    11
   0.97012303  0.05475827  0.17965568
   0.72256046  0.02420521  0.70703143
   0.87918933  0.67889265  0.23007972
   0.01075927  0.65604873  0.31135952
   0.19378593  0.45108155  0.98375417
   0.96055458  0.47301059  0.99003809
   0.82040390  0.23076776  0.46457964
   0.35972582  0.49385080  0.55992570
   0.27548063  0.58670074  0.58834960
   0.16486712  0.16474679  0.77472912
   0.32198531  0.99453834  0.52134131
   0.76100453  0.77087559  0.70299573
   0.18711313  0.86888428  0.82031528
   0.57370797  0.92278270  0.01836402
unknown system                          
           1
     3.238409    0.019203    0.044906
     0.432256    7.094214    0.455101
     1.591770    1.371265    6.326695
   Sr   Nb   H 
   1   1  12
Direct configuration=    12
   0.97052851  0.05387641  0.18012182
   0.72229508  0.02341127  0.70712315
   0.87901758  0.67922700  0.22964541
   0.01141550  0.65619828  0.31121350
   0.19384291  0.45052786  0.98408706
   0.96050933  0.47239871  0.99032884
   0.82041111  0.23007436  0.46333381
   0.35913739  0.49399624  0.56022315
   0.27577597  0.58663405  0.58847842
   0.16515234  0.16418657  0.77467138
   0.32166975  0.99504846  0.52139616
   0.76091141  0.77186773  0.70295419
   0.18701526  0.86987846  0.82004329
   0.57357884  0.92381860  0.01889883
unknown system                          
           1
     3.231560    0.019017    0.043885
     0.430689    7.169305    0.430289
     1.586494    1.364186    6.317887
   Sr   Nb   H 
   1   1  12
Direct configuration=    13
   0.97118549  0.05246137  0.18087182
   0.72186588  0.02213705  0.70726775
   0.87873911  0.67976330  0.22894432
   0.01247747  0.65643819  0.31097807
   0.19393561  0.44963942  0.98462300
   0.96043654  0.47141685  0.99079633
   0.82042192  0.22896051  0.46131495
   0.35818520  0.49422990  0.56070498
   0.27625413  0.58652711  0.58868655
   0.16561412  0.16328738  0.77457535
   0.32115890  0.99586726  0.52148727
   0.76076034  0.77346009  0.70289169
   0.18685631  0.87147392  0.81960796
   0.57336998  0.92548162  0.01976897
unknown system                          
           1
     3.232863    0.019062    0.043785
     0.430969    7.161856    0.432041
     1.587011    1.364595    6.313699
   Sr   Nb   H 
   1   1  12
Direct configuration=    14
   0.97101846  0.05266768  0.18104631
   0.72197339  0.02142147  0.70775114
   0.87870549  0.67986879  0.22879084
   0.01255487  0.65654429  0.31100314
   0.19463751  0.44948072  0.98463724
   0.95963383  0.47138635  0.99089370
   0.82046714  0.22883588  0.46133293
   0.35820320  0.49411416  0.56070533
   0.27617958  0.58651494  0.58878517
   0.16545278  0.16365608  0.77473176
   0.32135561  0.99577632  0.52111707
   0.76068478  0.77421808  0.70270513
   0.18670141  0.87136190  0.81982490
   0.57369295  0.92529732  0.01919434
unknown system                          
           1
     3.235923    0.019167    0.043549
     0.431625    7.144352    0.436157
     1.588225    1.365555    6.303859
   Sr   Nb   H 
   1   1  12
Direct configuration=    15
   0.97062594  0.05315290  0.18145640
   0.72222546  0.01973805  0.70888829
   0.87862667  0.68011700  0.22842987
   0.01273659  0.65679385  0.31106199
   0.19628604  0.44910739  0.98467090
   0.95774844  0.47131459  0.99112263
   0.82057335  0.22854270  0.46137532
   0.35824550  0.49384189  0.56070625
   0.27600437  0.58648627  0.58901706
   0.16507363  0.16452328  0.77509920
   0.32181803  0.99556258  0.52024675
   0.76050741  0.77600115  0.70226587
   0.18633740  0.87109830  0.82033506
   0.57445217  0.92486405  0.01784344
unknown system                          
           1
     3.233502    0.019680    0.043254
     0.432403    7.142837    0.436394
     1.586754    1.366096    6.297963
   Sr   Nb   H 
   1   1  12
Direct configuration=    16
   0.97059648  0.05318840  0.18164552
   0.72225720  0.02093149  0.70831649
   0.87900834  0.68024912  0.22843659
   0.01251885  0.65705079  0.31077202
   0.19349451  0.44909969  0.98488614
   0.96039721  0.47076694  0.99123568
   0.82054577  0.22815970  0.46139682
   0.35800886  0.49386332  0.56082531
   0.27612344  0.58628907  0.58912860
   0.16505128  0.16466222  0.77524923
   0.32194496  0.99545379  0.51993089
   0.76061206  0.77586010  0.70210741
   0.18612481  0.87087882  0.82078739
   0.57457723  0.92469056  0.01780092
unknown system                          
           1
     3.233761    0.019626    0.043286
     0.432320    7.142999    0.436369
     1.586912    1.366038    6.298593
   Sr   Nb   H 
   1   1  12
Direct configuration=    17
   0.97059963  0.05318461  0.18162529
   0.72225383  0.02080389  0.70837766
   0.87896752  0.68023500  0.22843587
   0.01254215  0.65702331  0.31080304
   0.19379307  0.44910049  0.98486313
   0.96011391  0.47082551  0.99122357
   0.82054871  0.22820064  0.46139452
   0.35803417  0.49386103  0.56081258
   0.27611070  0.58631016  0.58911666
   0.16505367  0.16464737  0.77523318
   0.32193139  0.99546541  0.51996467
   0.76060087  0.77587518  0.70212436
   0.18614754  0.87090229  0.82073900
   0.57456385  0.92470911  0.01780546
