       N       E                     dE             d eps       ncg     rms          rms(c)
DAV:   1     0.224544506030E+03    0.22454E+03   -0.19508E+04  6144   0.828E+02
DAV:   2    -0.386760797625E+02   -0.26322E+03   -0.25034E+03  6560   0.239E+02
DAV:   3    -0.550215502541E+02   -0.16345E+02   -0.16165E+02 10544   0.543E+01
DAV:   4    -0.553754035939E+02   -0.35385E+00   -0.35340E+00  7536   0.579E+00
DAV:   5    -0.553834180316E+02   -0.80144E-02   -0.80164E-02  9504   0.793E-01    0.405E+01
RMM:   6    -0.557878513626E+02   -0.40443E+00   -0.57075E+00  6527   0.759E+00    0.199E+01
RMM:   7    -0.552644336114E+02    0.52342E+00   -0.12938E+00  6672   0.513E+00    0.102E+01
RMM:   8    -0.552753068006E+02   -0.10873E-01   -0.26915E-01  6589   0.289E+00    0.443E+00
RMM:   9    -0.552976994376E+02   -0.22393E-01   -0.76934E-02  6475   0.133E+00    0.192E+00
RMM:  10    -0.553012736013E+02   -0.35742E-02   -0.16899E-02  6301   0.832E-01    0.111E+00
RMM:  11    -0.553023209746E+02   -0.10474E-02   -0.43544E-03  5811   0.362E-01    0.258E-01
RMM:  12    -0.553027286389E+02   -0.40766E-03   -0.94873E-04  4957   0.197E-01
   1 F= -.55302729E+02 E0= -.55302729E+02  d E =-.553027E+02  mag=    -0.0010
       N       E                     dE             d eps       ncg     rms          rms(c)
DAV:   1    -0.555505211571E+02   -0.24820E+00   -0.34301E+00  8688   0.867E+00    0.435E+00
RMM:   2    -0.554107761817E+02    0.13974E+00   -0.37804E-01  6615   0.258E+00    0.121E+00
RMM:   3    -0.553727707197E+02    0.38005E-01   -0.39155E-02  6368   0.139E+00    0.102E+00
RMM:   4    -0.553650345746E+02    0.77361E-02   -0.15060E-02  6496   0.626E-01    0.941E-01
RMM:   5    -0.553645091815E+02    0.52539E-03   -0.69695E-03  6717   0.527E-01
   2 F= -.55364509E+02 E0= -.55364509E+02  d E =-.617805E-01  mag=    -0.0000
       N       E                     dE             d eps       ncg     rms          rms(c)
DAV:   1    -0.565310404068E+02   -0.11660E+01   -0.21312E+01  6704   0.214E+01    0.109E+01
RMM:   2    -0.557076891985E+02    0.82335E+00   -0.23684E+00  6542   0.641E+00    0.329E+00
RMM:   3    -0.554001547496E+02    0.30753E+00   -0.26352E-01  6344   0.364E+00    0.265E+00
RMM:   4    -0.553554640469E+02    0.44691E-01   -0.83538E-02  6757   0.145E+00    0.282E+00
RMM:   5    -0.553507022886E+02    0.47618E-02   -0.42542E-02  7417   0.126E+00    0.877E-01
RMM:   6    -0.553504702616E+02    0.23203E-03   -0.45459E-02  7580   0.682E-01    0.291E-01
RMM:   7    -0.553517687539E+02   -0.12985E-02   -0.11390E-02  7197   0.573E-01    0.219E-01
RMM:   8    -0.553521814630E+02   -0.41271E-03   -0.32687E-03  6044   0.161E-01
   3 F= -.55352181E+02 E0= -.55352181E+02  d E =-.494528E-01  mag=     0.0000
       N       E                     dE             d eps       ncg     rms          rms(c)
DAV:   1    -0.556494083298E+02   -0.29764E+00   -0.45715E+00  8256   0.968E+00    0.483E+00
RMM:   2    -0.554493698114E+02    0.20004E+00   -0.49826E-01  6729   0.300E+00    0.141E+00
RMM:   3    -0.554006141134E+02    0.48756E-01   -0.48421E-02  6525   0.131E+00    0.102E+00
RMM:   4    -0.553859302117E+02    0.14684E-01   -0.27420E-02  6581   0.796E-01    0.830E-01
RMM:   5    -0.553862605316E+02   -0.33032E-03   -0.84965E-03  6689   0.572E-01    0.287E-01
RMM:   6    -0.553865262325E+02   -0.26570E-03   -0.61912E-03  6666   0.247E-01
   4 F= -.55386526E+02 E0= -.55386526E+02  d E =-.837976E-01  mag=     0.0000
       N       E                     dE             d eps       ncg     rms          rms(c)
DAV:   1    -0.553767841756E+02    0.94764E-02   -0.25632E+00  6144   0.797E+00    0.177E+00
RMM:   2    -0.553747020492E+02    0.20821E-02   -0.18319E-01  6414   0.173E+00    0.120E+00
RMM:   3    -0.553692287362E+02    0.54733E-02   -0.17752E-02  6320   0.132E+00    0.413E-01
RMM:   4    -0.553694022975E+02   -0.17356E-03   -0.54090E-03  6268   0.299E-01
   5 F= -.55369402E+02 E0= -.55369402E+02  d E =0.171239E-01  mag=     0.0000
       N       E                     dE             d eps       ncg     rms          rms(c)
DAV:   1    -0.554050788296E+02   -0.35850E-01   -0.88175E-01  6144   0.469E+00    0.104E+00
RMM:   2    -0.554054060913E+02   -0.32726E-03   -0.63242E-02  6518   0.101E+00    0.654E-01
RMM:   3    -0.554035179057E+02    0.18882E-02   -0.45946E-03  5926   0.669E-01    0.181E-01
RMM:   4    -0.554033635033E+02    0.15440E-03   -0.94852E-04  4830   0.162E-01
   6 F= -.55403364E+02 E0= -.55403364E+02  d E =-.168373E-01  mag=    -0.0000
       N       E                     dE             d eps       ncg     rms          rms(c)
DAV:   1    -0.554173449563E+02   -0.13827E-01   -0.92268E-01  6688   0.513E+00    0.574E-01
RMM:   2    -0.554195760883E+02   -0.22311E-02   -0.59143E-02  6348   0.994E-01    0.302E-01
RMM:   3    -0.554189361967E+02    0.63989E-03   -0.33226E-03  5539   0.618E-01
   7 F= -.55418936E+02 E0= -.55418936E+02  d E =-.155727E-01  mag=    -0.0000
       N       E                     dE             d eps       ncg     rms          rms(c)
DAV:   1    -0.554205424855E+02   -0.96640E-03   -0.15120E-01  8688   0.207E+00    0.492E-01
RMM:   2    -0.554204314837E+02    0.11100E-03   -0.89342E-03  6322   0.380E-01    0.282E-01
RMM:   3    -0.554201964107E+02    0.23507E-03   -0.40869E-04  3488   0.204E-01
   8 F= -.55420196E+02 E0= -.55420196E+02  d E =-.168329E-01  mag=    -0.0000
       N       E                     dE             d eps       ncg     rms          rms(c)
DAV:   1    -0.554417012282E+02   -0.21270E-01   -0.76375E-01  7168   0.462E+00    0.889E-01
RMM:   2    -0.554334638483E+02    0.82374E-02   -0.57728E-02  6524   0.975E-01    0.383E-01
RMM:   3    -0.554306961421E+02    0.27677E-02   -0.35382E-03  5822   0.441E-01    0.281E-01
RMM:   4    -0.554304108819E+02    0.28526E-03   -0.19785E-03  5373   0.191E-01
   9 F= -.55430411E+02 E0= -.55430411E+02  d E =-.102145E-01  mag=    -0.0000
       N       E                     dE             d eps       ncg     rms          rms(c)
DAV:   1    -0.554484590912E+02   -0.17763E-01   -0.10903E+00  7168   0.555E+00    0.103E+00
RMM:   2    -0.554367934676E+02    0.11666E-01   -0.82839E-02  6526   0.116E+00    0.453E-01
RMM:   3    -0.554329107336E+02    0.38827E-02   -0.55368E-03  6348   0.517E-01    0.355E-01
RMM:   4    -0.554325634002E+02    0.34733E-03   -0.32465E-03  5718   0.219E-01
  10 F= -.55432563E+02 E0= -.55432563E+02  d E =-.123670E-01  mag=    -0.0000
       N       E                     dE             d eps       ncg     rms          rms(c)
DAV:   1    -0.554609558652E+02   -0.28045E-01   -0.66669E-01  8512   0.410E+00    0.122E+00
RMM:   2    -0.554436841329E+02    0.17272E-01   -0.52940E-02  6600   0.946E-01    0.442E-01
RMM:   3    -0.554395620292E+02    0.41221E-02   -0.56486E-03  6332   0.436E-01    0.302E-01
RMM:   4    -0.554391422466E+02    0.41978E-03   -0.49436E-03  5796   0.261E-01
  11 F= -.55439142E+02 E0= -.55439142E+02  d E =-.657885E-02  mag=    -0.0000
       N       E                     dE             d eps       ncg     rms          rms(c)
DAV:   1    -0.556319994898E+02   -0.19244E+00   -0.61012E+00  7168   0.123E+01    0.376E+00
RMM:   2    -0.554826070089E+02    0.14939E+00   -0.48632E-01  6600   0.285E+00    0.134E+00
RMM:   3    -0.554442537116E+02    0.38353E-01   -0.49621E-02  6688   0.132E+00    0.853E-01
RMM:   4    -0.554402099089E+02    0.40438E-02   -0.39671E-02  7115   0.674E-01    0.871E-01
RMM:   5    -0.554429074759E+02   -0.26976E-02   -0.81579E-03  6652   0.494E-01    0.362E-01
RMM:   6    -0.554435092676E+02   -0.60179E-03   -0.92320E-03  6916   0.297E-01    0.752E-02
RMM:   7    -0.554437588924E+02   -0.24962E-03   -0.21804E-03  5742   0.244E-01
  12 F= -.55443759E+02 E0= -.55443759E+02  d E =-.111955E-01  mag=    -0.0000
       N       E                     dE             d eps       ncg     rms          rms(c)
DAV:   1    -0.554572105049E+02   -0.13701E-01   -0.63281E-01  9024   0.423E+00    0.784E-01
RMM:   2    -0.554531548876E+02    0.40556E-02   -0.39467E-02  6652   0.758E-01    0.292E-01
RMM:   3    -0.554513935114E+02    0.17614E-02   -0.21199E-03  5265   0.333E-01    0.186E-01
RMM:   4    -0.554511546193E+02    0.23889E-03   -0.13729E-03  5009   0.188E-01
  13 F= -.55451155E+02 E0= -.55451155E+02  d E =-.739573E-02  mag=    -0.0000
       N       E                     dE             d eps       ncg     rms          rms(c)
DAV:   1    -0.554557352125E+02   -0.43417E-02   -0.40088E-01  7424   0.339E+00    0.589E-01
RMM:   2    -0.554527801748E+02    0.29550E-02   -0.25260E-02  6666   0.607E-01    0.238E-01
RMM:   3    -0.554515548468E+02    0.12253E-02   -0.13323E-03  5063   0.258E-01    0.197E-01
RMM:   4    -0.554513901021E+02    0.16474E-03   -0.93480E-04  4742   0.154E-01
  14 F= -.55451390E+02 E0= -.55451390E+02  d E =-.763121E-02  mag=    -0.0000
       N       E                     dE             d eps       ncg     rms          rms(c)
DAV:   1    -0.554620224964E+02   -0.10468E-01   -0.53064E-01  6752   0.330E+00    0.718E-01
RMM:   2    -0.554573216482E+02    0.47008E-02   -0.30099E-02  6460   0.699E-01    0.317E-01
RMM:   3    -0.554554710368E+02    0.18506E-02   -0.26692E-03  5704   0.470E-01    0.207E-01
RMM:   4    -0.554551137297E+02    0.35731E-03   -0.98143E-04  4693   0.160E-01
  15 F= -.55455114E+02 E0= -.55455114E+02  d E =-.372363E-02  mag=    -0.0000
       N       E                     dE             d eps       ncg     rms          rms(c)
DAV:   1    -0.554553609504E+02    0.11009E-03   -0.26796E-02  8192   0.785E-01    0.177E-01
RMM:   2    -0.554549597568E+02    0.40119E-03   -0.14388E-03  4082   0.158E-01
  16 F= -.55454960E+02 E0= -.55454960E+02  d E =-.356965E-02  mag=    -0.0000
