       N       E                     dE             d eps       ncg     rms          rms(c)
DAV:   1     0.119227300861E+03    0.11923E+03   -0.10879E+04 20240   0.646E+02
DAV:   2    -0.483555439319E+02   -0.16758E+03   -0.16122E+03 24764   0.250E+02
DAV:   3    -0.584534738917E+02   -0.10098E+02   -0.10027E+02 32584   0.503E+01
DAV:   4    -0.588773853768E+02   -0.42391E+00   -0.42249E+00 31760   0.844E+00
DAV:   5    -0.588840936008E+02   -0.67082E-02   -0.67074E-02 29620   0.904E-01    0.365E+01
DAV:   6    -0.557644951109E+02    0.31196E+01   -0.61657E+00 29032   0.164E+01    0.143E+01
DAV:   7    -0.550998341624E+02    0.66466E+00   -0.13191E+00 29464   0.607E+00    0.867E+00
DAV:   8    -0.550189136328E+02    0.80921E-01   -0.47900E-01 28336   0.371E+00    0.194E+00
DAV:   9    -0.550193195136E+02   -0.40588E-03   -0.31497E-02 23420   0.110E+00    0.847E-01
DAV:  10    -0.550213038778E+02   -0.19844E-02   -0.81615E-03 26944   0.462E-01    0.178E-01
DAV:  11    -0.550217074063E+02   -0.40353E-03   -0.61312E-04 24356   0.147E-01    0.935E-02
DAV:  12    -0.550220465806E+02   -0.33917E-03   -0.31004E-04 22900   0.809E-02    0.362E-02
DAV:  13    -0.550220589680E+02   -0.12387E-04   -0.20319E-05 19392   0.278E-02
   1 F= -.55022059E+02 E0= -.55022087E+02  d E =-.550221E+02
       N       E                     dE             d eps       ncg     rms          rms(c)
DAV:   1    -0.550276322019E+02   -0.55856E-02   -0.20065E+00 22796   0.113E+01    0.626E-01
DAV:   2    -0.550479738374E+02   -0.20342E-01   -0.23974E-01 21976   0.260E+00    0.352E-01
DAV:   3    -0.550473265709E+02    0.64727E-03   -0.30495E-03 29160   0.352E-01    0.216E-01
DAV:   4    -0.550470779877E+02    0.24858E-03   -0.12224E-03 25272   0.236E-01    0.492E-02
DAV:   5    -0.550470994594E+02   -0.21472E-04   -0.31979E-04 19780   0.109E-01
   2 F= -.55047099E+02 E0= -.55047122E+02  d E =-.250405E-01
       N       E                     dE             d eps       ncg     rms          rms(c)
DAV:   1    -0.550471099792E+02   -0.31992E-04   -0.30144E-03 24656   0.440E-01    0.284E-02
DAV:   2    -0.550471440412E+02   -0.34062E-04   -0.37915E-04 21868   0.105E-01
   3 F= -.55047144E+02 E0= -.55047166E+02  d E =-.250851E-01
       N       E                     dE             d eps       ncg     rms          rms(c)
DAV:   1    -0.550651268960E+02   -0.18017E-01   -0.33687E-01 21624   0.405E+00    0.361E-01
DAV:   2    -0.550661736166E+02   -0.10467E-02   -0.24180E-02 24456   0.974E-01    0.174E-01
DAV:   3    -0.550659164771E+02    0.25714E-03   -0.66132E-04 28848   0.154E-01    0.100E-01
DAV:   4    -0.550658280519E+02    0.88425E-04   -0.28032E-04 23392   0.112E-01
   4 F= -.55065828E+02 E0= -.55065847E+02  d E =-.186840E-01
       N       E                     dE             d eps       ncg     rms          rms(c)
DAV:   1    -0.550909184392E+02   -0.25002E-01   -0.30226E+00 21136   0.121E+01    0.105E+00
DAV:   2    -0.551007156798E+02   -0.97972E-02   -0.21986E-01 24280   0.296E+00    0.520E-01
DAV:   3    -0.550984461780E+02    0.22695E-02   -0.58914E-03 29192   0.463E-01    0.300E-01
DAV:   4    -0.550977096252E+02    0.73655E-03   -0.26414E-03 30336   0.334E-01    0.135E-01
DAV:   5    -0.550977640635E+02   -0.54438E-04   -0.50657E-04 23292   0.122E-01
   5 F= -.55097764E+02 E0= -.55097764E+02  d E =-.506200E-01
       N       E                     dE             d eps       ncg     rms          rms(c)
DAV:   1    -0.550995802832E+02   -0.18707E-02   -0.46008E-01 21656   0.474E+00    0.408E-01
DAV:   2    -0.551010037436E+02   -0.14235E-02   -0.33317E-02 24360   0.114E+00    0.205E-01
DAV:   3    -0.551006626731E+02    0.34107E-03   -0.89425E-04 29592   0.178E-01    0.117E-01
DAV:   4    -0.551005418901E+02    0.12078E-03   -0.38624E-04 25480   0.130E-01    0.526E-02
DAV:   5    -0.551005495021E+02   -0.76120E-05   -0.78638E-05 14396   0.526E-02
   6 F= -.55100550E+02 E0= -.55100564E+02  d E =-.534055E-01
       N       E                     dE             d eps       ncg     rms          rms(c)
DAV:   1    -0.551165267249E+02   -0.15985E-01   -0.40208E-01 22656   0.472E+00    0.346E-01
DAV:   2    -0.551186886135E+02   -0.21619E-02   -0.38168E-02 22576   0.109E+00    0.167E-01
DAV:   3    -0.551183926832E+02    0.29593E-03   -0.78164E-04 27988   0.173E-01    0.963E-02
DAV:   4    -0.551183076897E+02    0.84994E-04   -0.26956E-04 20416   0.104E-01
   7 F= -.55118308E+02 E0= -.55118353E+02  d E =-.177582E-01
       N       E                     dE             d eps       ncg     rms          rms(c)
DAV:   1    -0.551284248733E+02   -0.10032E-01   -0.36183E+00 22216   0.141E+01    0.101E+00
DAV:   2    -0.551487873412E+02   -0.20362E-01   -0.35103E-01 22608   0.331E+00    0.506E-01
DAV:   3    -0.551461191698E+02    0.26682E-02   -0.71574E-03 27968   0.528E-01    0.299E-01
DAV:   4    -0.551450791352E+02    0.10400E-02   -0.26139E-03 27068   0.314E-01    0.835E-02
DAV:   5    -0.551451004631E+02   -0.21328E-04   -0.36078E-04 20948   0.116E-01
   8 F= -.55145100E+02 E0= -.55145219E+02  d E =-.445510E-01
       N       E                     dE             d eps       ncg     rms          rms(c)
DAV:   1    -0.551526649494E+02   -0.75858E-02   -0.11019E-01 22756   0.258E+00    0.317E-01
DAV:   2    -0.551532067643E+02   -0.54181E-03   -0.11874E-02 22796   0.625E-01    0.159E-01
DAV:   3    -0.551533505403E+02   -0.14378E-03   -0.43889E-04 31556   0.117E-01    0.699E-02
DAV:   4    -0.551533321194E+02    0.18421E-04   -0.84206E-05 13948   0.689E-02
   9 F= -.55153332E+02 E0= -.55153332E+02  d E =-.823166E-02
       N       E                     dE             d eps       ncg     rms          rms(c)
DAV:   1    -0.551618915349E+02   -0.85410E-02   -0.98832E-01 22656   0.776E+00    0.982E-01
DAV:   2    -0.551667672605E+02   -0.48757E-02   -0.10667E-01 22564   0.187E+00    0.483E-01
DAV:   3    -0.551655354050E+02    0.12319E-02   -0.40965E-03 32744   0.356E-01    0.210E-01
DAV:   4    -0.551654695179E+02    0.65887E-04   -0.99713E-04 33484   0.191E-01
  10 F= -.55165470E+02 E0= -.55165568E+02  d E =-.203691E-01
       N       E                     dE             d eps       ncg     rms          rms(c)
DAV:   1    -0.551738268298E+02   -0.82914E-02   -0.18921E-01 19844   0.284E+00    0.362E-01
DAV:   2    -0.551737696178E+02    0.57212E-04   -0.12282E-02 26432   0.755E-01    0.158E-01
DAV:   3    -0.551735578599E+02    0.21176E-03   -0.59138E-04 29148   0.142E-01    0.962E-02
DAV:   4    -0.551735229630E+02    0.34897E-04   -0.28164E-04 24804   0.990E-02
  11 F= -.55173523E+02 E0= -.55173612E+02  d E =-.805345E-02
       N       E                     dE             d eps       ncg     rms          rms(c)
DAV:   1    -0.551781394388E+02   -0.45816E-02   -0.39021E-01 19828   0.409E+00    0.502E-01
DAV:   2    -0.551781547455E+02   -0.15307E-04   -0.25521E-02 26488   0.108E+00    0.224E-01
DAV:   3    -0.551777274423E+02    0.42730E-03   -0.11487E-03 29568   0.202E-01    0.126E-01
DAV:   4    -0.551776339178E+02    0.93524E-04   -0.53134E-04 30656   0.136E-01
  12 F= -.55177634E+02 E0= -.55177713E+02  d E =-.121644E-01
       N       E                     dE             d eps       ncg     rms          rms(c)
DAV:   1    -0.551829654752E+02   -0.52380E-02   -0.13488E-01 19844   0.235E+00    0.230E-01
DAV:   2    -0.551830949822E+02   -0.12951E-03   -0.81304E-03 26624   0.631E-01    0.146E-01
DAV:   3    -0.551830184530E+02    0.76529E-04   -0.27034E-04 22732   0.981E-02
  13 F= -.55183018E+02 E0= -.55183096E+02  d E =-.538454E-02
       N       E                     dE             d eps       ncg     rms          rms(c)
DAV:   1    -0.551925332900E+02   -0.94383E-02   -0.12008E+00 19824   0.703E+00    0.686E-01
DAV:   2    -0.551939408226E+02   -0.14075E-02   -0.72644E-02 26680   0.188E+00    0.412E-01
DAV:   3    -0.551933225177E+02    0.61830E-03   -0.25086E-03 28984   0.292E-01    0.239E-01
DAV:   4    -0.551930911646E+02    0.23135E-03   -0.10333E-03 32236   0.184E-01    0.106E-01
DAV:   5    -0.551931164999E+02   -0.25335E-04   -0.10131E-04 15700   0.578E-02
  14 F= -.55193116E+02 E0= -.55193192E+02  d E =-.154826E-01
       N       E                     dE             d eps       ncg     rms          rms(c)
DAV:   1    -0.551833969716E+02    0.96942E-02   -0.48530E+00 19824   0.141E+01    0.144E+00
DAV:   2    -0.551897256446E+02   -0.63287E-02   -0.29728E-01 26376   0.377E+00    0.768E-01
DAV:   3    -0.551871377571E+02    0.25879E-02   -0.10124E-02 28980   0.590E-01    0.435E-01
DAV:   4    -0.551862063876E+02    0.93137E-03   -0.38921E-03 32252   0.361E-01    0.199E-01
DAV:   5    -0.551863029311E+02   -0.96543E-04   -0.47843E-04 27616   0.112E-01
  15 F= -.55186303E+02 E0= -.55186380E+02  d E =-.866901E-02
       N       E                     dE             d eps       ncg     rms          rms(c)
DAV:   1    -0.551936120589E+02   -0.74057E-02   -0.22753E+00 19824   0.967E+00    0.938E-01
DAV:   2    -0.551966064393E+02   -0.29944E-02   -0.13740E-01 26480   0.260E+00    0.543E-01
DAV:   3    -0.551953784607E+02    0.12280E-02   -0.47053E-03 28372   0.409E-01    0.313E-01
DAV:   4    -0.551948592218E+02    0.51924E-03   -0.20403E-03 31900   0.255E-01    0.136E-01
DAV:   5    -0.551948923993E+02   -0.33178E-04   -0.21555E-04 23680   0.778E-02
  16 F= -.55194892E+02 E0= -.55194968E+02  d E =-.172585E-01
       N       E                     dE             d eps       ncg     rms          rms(c)
DAV:   1    -0.552020455531E+02   -0.71863E-02   -0.38015E-01 22656   0.470E+00    0.273E-01
DAV:   2    -0.552043940762E+02   -0.23485E-02   -0.34702E-02 23260   0.108E+00    0.173E-01
DAV:   3    -0.552042728664E+02    0.12121E-03   -0.53385E-04 27464   0.146E-01    0.101E-01
DAV:   4    -0.552042220243E+02    0.50842E-04   -0.20586E-04 21944   0.927E-02
  17 F= -.55204222E+02 E0= -.55204303E+02  d E =-.932962E-02
       N       E                     dE             d eps       ncg     rms          rms(c)
DAV:   1    -0.551997191935E+02    0.45537E-02   -0.25053E+00 22664   0.121E+01    0.696E-01
DAV:   2    -0.552150992729E+02   -0.15380E-01   -0.22765E-01 23248   0.276E+00    0.445E-01
DAV:   3    -0.552142915395E+02    0.80773E-03   -0.35191E-03 27624   0.374E-01    0.263E-01
DAV:   4    -0.552139588887E+02    0.33265E-03   -0.14238E-03 25172   0.240E-01    0.519E-02
DAV:   5    -0.552139908602E+02   -0.31971E-04   -0.36022E-04 20552   0.102E-01
  18 F= -.55213991E+02 E0= -.55214088E+02  d E =-.190985E-01
       N       E                     dE             d eps       ncg     rms          rms(c)
DAV:   1    -0.552229025624E+02   -0.89437E-02   -0.40361E-01 22224   0.442E+00    0.285E-01
DAV:   2    -0.552242902708E+02   -0.13877E-02   -0.26333E-02 23888   0.971E-01    0.223E-01
DAV:   3    -0.552240839717E+02    0.20630E-03   -0.51721E-04 27436   0.145E-01    0.125E-01
DAV:   4    -0.552240033305E+02    0.80641E-04   -0.27374E-04 22576   0.106E-01
  19 F= -.55224003E+02 E0= -.55224099E+02  d E =-.100125E-01
       N       E                     dE             d eps       ncg     rms          rms(c)
DAV:   1    -0.552275192062E+02   -0.34352E-02   -0.17949E+00 22376   0.931E+00    0.597E-01
DAV:   2    -0.552336042449E+02   -0.60850E-02   -0.11575E-01 23864   0.203E+00    0.463E-01
DAV:   3    -0.552326902609E+02    0.91398E-03   -0.22419E-03 28136   0.302E-01    0.260E-01
DAV:   4    -0.552323207298E+02    0.36953E-03   -0.12023E-03 25760   0.220E-01    0.397E-02
DAV:   5    -0.552323420482E+02   -0.21318E-04   -0.20056E-04 19724   0.807E-02
  20 F= -.55232342E+02 E0= -.55232440E+02  d E =-.183512E-01
       N       E                     dE             d eps       ncg     rms          rms(c)
DAV:   1    -0.552370356339E+02   -0.47149E-02   -0.15111E-01 20004   0.273E+00    0.171E-01
DAV:   2    -0.552378578109E+02   -0.82218E-03   -0.10947E-02 23100   0.606E-01    0.106E-01
DAV:   3    -0.552377943112E+02    0.63500E-04   -0.17564E-04 24740   0.830E-02
  21 F= -.55237794E+02 E0= -.55237887E+02  d E =-.545226E-02
       N       E                     dE             d eps       ncg     rms          rms(c)
DAV:   1    -0.552379986498E+02   -0.14084E-03   -0.87044E-01 20008   0.656E+00    0.408E-01
DAV:   2    -0.552426909596E+02   -0.46923E-02   -0.62905E-02 23124   0.145E+00    0.255E-01
DAV:   3    -0.552423312556E+02    0.35970E-03   -0.11175E-03 29112   0.200E-01    0.137E-01
DAV:   4    -0.552422347966E+02    0.96459E-04   -0.42143E-04 24376   0.121E-01
  22 F= -.55242235E+02 E0= -.55242319E+02  d E =-.989275E-02
       N       E                     dE             d eps       ncg     rms          rms(c)
DAV:   1    -0.552450841870E+02   -0.27529E-02   -0.51067E-02 20088   0.152E+00    0.112E-01
DAV:   2    -0.552452864074E+02   -0.20222E-03   -0.29360E-03 23856   0.330E-01    0.633E-02
DAV:   3    -0.552452606588E+02    0.25749E-04   -0.59502E-05 17720   0.504E-02
  23 F= -.55245261E+02 E0= -.55245343E+02  d E =-.302586E-02
       N       E                     dE             d eps       ncg     rms          rms(c)
DAV:   1    -0.552503752640E+02   -0.50889E-02   -0.45698E-01 19824   0.455E+00    0.351E-01
DAV:   2    -0.552521562437E+02   -0.17810E-02   -0.26375E-02 24144   0.989E-01    0.200E-01
DAV:   3    -0.552519168221E+02    0.23942E-03   -0.64811E-04 27740   0.152E-01    0.811E-02
DAV:   4    -0.552518985378E+02    0.18284E-04   -0.18448E-04 21336   0.761E-02
  24 F= -.55251899E+02 E0= -.55251975E+02  d E =-.966374E-02
       N       E                     dE             d eps       ncg     rms          rms(c)
DAV:   1    -0.552481999737E+02    0.37168E-02   -0.18404E+00 19824   0.913E+00    0.705E-01
DAV:   2    -0.552554747054E+02   -0.72747E-02   -0.10678E-01 24048   0.199E+00    0.398E-01
DAV:   3    -0.552545004747E+02    0.97423E-03   -0.25403E-03 27784   0.302E-01    0.160E-01
DAV:   4    -0.552544218776E+02    0.78597E-04   -0.75487E-04 26256   0.153E-01
  25 F= -.55254422E+02 E0= -.55254486E+02  d E =-.121871E-01
       N       E                     dE             d eps       ncg     rms          rms(c)
DAV:   1    -0.552575405857E+02   -0.30401E-02   -0.26676E-01 22688   0.383E+00    0.310E-01
DAV:   2    -0.552589874292E+02   -0.14468E-02   -0.24319E-02 22524   0.849E-01    0.173E-01
DAV:   3    -0.552588676227E+02    0.11981E-03   -0.44740E-04 28092   0.130E-01    0.745E-02
DAV:   4    -0.552588557677E+02    0.11855E-04   -0.10709E-04 14384   0.660E-02
  26 F= -.55258856E+02 E0= -.55258921E+02  d E =-.443389E-02
       N       E                     dE             d eps       ncg     rms          rms(c)
DAV:   1    -0.552583530062E+02    0.51462E-03   -0.30517E-01 22672   0.411E+00    0.337E-01
DAV:   2    -0.552604808468E+02   -0.21278E-02   -0.27885E-02 22464   0.908E-01    0.197E-01
DAV:   3    -0.552603466047E+02    0.13424E-03   -0.53182E-04 30032   0.140E-01    0.856E-02
DAV:   4    -0.552603331488E+02    0.13456E-04   -0.11413E-04 14744   0.675E-02
  27 F= -.55260333E+02 E0= -.55260405E+02  d E =-.591127E-02
       N       E                     dE             d eps       ncg     rms          rms(c)
DAV:   1    -0.552628100883E+02   -0.24635E-02   -0.10025E-01 22676   0.254E+00    0.138E-01
DAV:   2    -0.552638023077E+02   -0.99222E-03   -0.11470E-02 21024   0.553E-01    0.745E-02
DAV:   3    -0.552637834495E+02    0.18858E-04   -0.13681E-04 25212   0.720E-02
  28 F= -.55263783E+02 E0= -.55263783E+02  d E =-.345030E-02
       N       E                     dE             d eps       ncg     rms          rms(c)
DAV:   1    -0.552621743264E+02    0.16280E-02   -0.32918E-01 22656   0.460E+00    0.249E-01
DAV:   2    -0.552654149748E+02   -0.32406E-02   -0.37570E-02 21088   0.100E+00    0.141E-01
DAV:   3    -0.552653577901E+02    0.57185E-04   -0.47548E-04 27268   0.130E-01
  29 F= -.55265358E+02 E0= -.55265430E+02  d E =-.502464E-02
       N       E                     dE             d eps       ncg     rms          rms(c)
DAV:   1    -0.552678253096E+02   -0.24103E-02   -0.78261E-02 19856   0.196E+00    0.185E-01
DAV:   2    -0.552680803260E+02   -0.25502E-03   -0.54809E-03 24628   0.468E-01    0.909E-02
DAV:   3    -0.552680210880E+02    0.59238E-04   -0.15384E-04 19496   0.777E-02
  30 F= -.55268021E+02 E0= -.55268095E+02  d E =-.266330E-02
       N       E                     dE             d eps       ncg     rms          rms(c)
DAV:   1    -0.552691889297E+02   -0.11086E-02   -0.54178E-01 19824   0.514E+00    0.461E-01
DAV:   2    -0.552710318650E+02   -0.18429E-02   -0.37653E-02 24548   0.122E+00    0.233E-01
DAV:   3    -0.552706610108E+02    0.37085E-03   -0.12046E-03 30324   0.200E-01    0.128E-01
DAV:   4    -0.552705767103E+02    0.84301E-04   -0.30045E-04 24696   0.116E-01
  31 F= -.55270577E+02 E0= -.55270655E+02  d E =-.521892E-02
       N       E                     dE             d eps       ncg     rms          rms(c)
DAV:   1    -0.552726468739E+02   -0.19859E-02   -0.93663E-02 19832   0.217E+00    0.162E-01
DAV:   2    -0.552730854524E+02   -0.43858E-03   -0.69920E-03 24128   0.494E-01    0.989E-02
DAV:   3    -0.552730349596E+02    0.50493E-04   -0.13641E-04 21084   0.772E-02
  32 F= -.55273035E+02 E0= -.55273112E+02  d E =-.245825E-02
       N       E                     dE             d eps       ncg     rms          rms(c)
DAV:   1    -0.552729968371E+02    0.88615E-04   -0.33233E-01 19824   0.409E+00    0.287E-01
DAV:   2    -0.552746100583E+02   -0.16132E-02   -0.24715E-02 24208   0.925E-01    0.172E-01
DAV:   3    -0.552744663508E+02    0.14371E-03   -0.54888E-04 29644   0.141E-01    0.893E-02
DAV:   4    -0.552744267711E+02    0.39580E-04   -0.12347E-04 15608   0.779E-02
  33 F= -.55274427E+02 E0= -.55274505E+02  d E =-.385006E-02
       N       E                     dE             d eps       ncg     rms          rms(c)
DAV:   1    -0.552757379470E+02   -0.12716E-02   -0.70257E-02 22700   0.195E+00    0.124E-01
DAV:   2    -0.552761518838E+02   -0.41394E-03   -0.58011E-03 22676   0.419E-01    0.671E-02
DAV:   3    -0.552761282325E+02    0.23651E-04   -0.85802E-05 21536   0.602E-02
  34 F= -.55276128E+02 E0= -.55276208E+02  d E =-.170146E-02
       N       E                     dE             d eps       ncg     rms          rms(c)
DAV:   1    -0.552744577971E+02    0.16941E-02   -0.59193E-01 22656   0.565E+00    0.355E-01
DAV:   2    -0.552779749826E+02   -0.35172E-02   -0.49031E-02 22544   0.121E+00    0.196E-01
DAV:   3    -0.552777934602E+02    0.18152E-03   -0.85582E-04 28660   0.174E-01    0.116E-01
DAV:   4    -0.552777196289E+02    0.73831E-04   -0.23964E-04 19736   0.105E-01
  35 F= -.55277720E+02 E0= -.55277804E+02  d E =-.329286E-02
       N       E                     dE             d eps       ncg     rms          rms(c)
DAV:   1    -0.552795076733E+02   -0.17142E-02   -0.47606E-02 20048   0.123E+00    0.140E-01
DAV:   2    -0.552794732821E+02    0.34391E-04   -0.14396E-03 26696   0.261E-01    0.589E-02
DAV:   3    -0.552794403285E+02    0.32954E-04   -0.61839E-05 13888   0.516E-02
  36 F= -.55279440E+02 E0= -.55279525E+02  d E =-.172070E-02
       N       E                     dE             d eps       ncg     rms          rms(c)
DAV:   1    -0.552832571639E+02   -0.37839E-02   -0.42671E-01 19824   0.370E+00    0.434E-01
DAV:   2    -0.552828982497E+02    0.35891E-03   -0.13163E-02 26576   0.788E-01    0.176E-01
DAV:   3    -0.552825813967E+02    0.31685E-03   -0.66487E-04 27072   0.157E-01    0.100E-01
DAV:   4    -0.552824936683E+02    0.87728E-04   -0.35886E-04 24836   0.115E-01
  37 F= -.55282494E+02 E0= -.55282580E+02  d E =-.477404E-02
       N       E                     dE             d eps       ncg     rms          rms(c)
DAV:   1    -0.552834143327E+02   -0.83294E-03   -0.25854E-02 22756   0.127E+00    0.884E-02
DAV:   2    -0.552836165437E+02   -0.20221E-03   -0.26806E-03 22580   0.289E-01    0.527E-02
DAV:   3    -0.552836049661E+02    0.11578E-04   -0.38822E-05 18132   0.430E-02
  38 F= -.55283605E+02 E0= -.55283691E+02  d E =-.111130E-02
       N       E                     dE             d eps       ncg     rms          rms(c)
DAV:   1    -0.552837191169E+02   -0.10257E-03   -0.43307E-02 22672   0.164E+00    0.112E-01
DAV:   2    -0.552840531111E+02   -0.33399E-03   -0.45330E-03 22768   0.374E-01    0.681E-02
DAV:   3    -0.552840324445E+02    0.20667E-04   -0.66256E-05 21812   0.562E-02
  39 F= -.55284032E+02 E0= -.55284117E+02  d E =-.153878E-02
       N       E                     dE             d eps       ncg     rms          rms(c)
DAV:   1    -0.552847242223E+02   -0.67111E-03   -0.14236E-02 19856   0.721E-01    0.828E-02
DAV:   2    -0.552847421097E+02   -0.17887E-04   -0.77746E-04 26544   0.168E-01
  40 F= -.55284742E+02 E0= -.55284827E+02  d E =-.709665E-03
       N       E                     dE             d eps       ncg     rms          rms(c)
DAV:   1    -0.552854985203E+02   -0.77430E-03   -0.13037E-01 19824   0.219E+00    0.256E-01
DAV:   2    -0.552856145843E+02   -0.11606E-03   -0.70990E-03 26504   0.518E-01    0.154E-01
DAV:   3    -0.552854723215E+02    0.14226E-03   -0.31947E-04 24772   0.107E-01    0.598E-02
DAV:   4    -0.552854591892E+02    0.13132E-04   -0.69431E-05 13788   0.609E-02
  41 F= -.55285459E+02 E0= -.55285543E+02  d E =-.142674E-02
       N       E                     dE             d eps       ncg     rms          rms(c)
DAV:   1    -0.552858770770E+02   -0.40476E-03   -0.34285E-02 22672   0.150E+00    0.840E-02
DAV:   2    -0.552862010933E+02   -0.32402E-03   -0.38463E-03 21616   0.330E-01    0.494E-02
DAV:   3    -0.552861934876E+02    0.76057E-05   -0.39051E-05 19700   0.428E-02
  42 F= -.55286193E+02 E0= -.55286276E+02  d E =-.734298E-03
       N       E                     dE             d eps       ncg     rms          rms(c)
DAV:   1    -0.552858878959E+02    0.31320E-03   -0.71835E-02 22656   0.217E+00    0.116E-01
DAV:   2    -0.552865591261E+02   -0.67123E-03   -0.79721E-03 21672   0.474E-01    0.683E-02
DAV:   3    -0.552865454997E+02    0.13626E-04   -0.86054E-05 23440   0.617E-02
  43 F= -.55286545E+02 E0= -.55286628E+02  d E =-.108631E-02
       N       E                     dE             d eps       ncg     rms          rms(c)
DAV:   1    -0.552869336762E+02   -0.37455E-03   -0.17974E-02 22964   0.999E-01    0.901E-02
DAV:   2    -0.552870313917E+02   -0.97716E-04   -0.16561E-03 23004   0.225E-01    0.398E-02
DAV:   3    -0.552870205033E+02    0.10888E-04   -0.35110E-05 14808   0.392E-02
  44 F= -.55287021E+02 E0= -.55287101E+02  d E =-.475004E-03
       N       E                     dE             d eps       ncg     rms          rms(c)
DAV:   1    -0.552870611124E+02   -0.29721E-04   -0.13406E-02 22792   0.863E-01    0.778E-02
DAV:   2    -0.552871326781E+02   -0.71566E-04   -0.12335E-03 23644   0.193E-01    0.340E-02
DAV:   3    -0.552871248002E+02    0.78779E-05   -0.27040E-05 14356   0.341E-02
  45 F= -.55287125E+02 E0= -.55287204E+02  d E =-.579301E-03
