unknown system                          
           1
     4.224189    0.013525    0.052794
     0.029842    5.426094    0.042403
    -1.789427    0.047167    5.971520
   H    Nb   H    Sr
   2   1   6   2
Direct configuration=     1
   0.08736727  0.91679219  0.71389051
   0.25113845  0.91556032  0.80606657
   0.70518252  0.42002449  0.19087773
   0.53531828  0.48114600  0.88950832
   0.40648552  0.18857054  0.05833137
   0.87278227  0.68184974  0.06034263
   0.87898220  0.17699925  0.05491668
   0.79788934  0.66917382  0.42353964
   0.81180763  0.16316648  0.42176453
   0.99308806  0.41209347  0.76019775
   0.25942446  0.92423370  0.31631928
unknown system                          
           1
     4.221535    0.013860    0.056191
     0.030267    5.428750    0.043433
    -1.783512    0.048144    5.972401
   H    Nb   H    Sr
   2   1   6   2
Direct configuration=     2
   0.08601623  0.91682950  0.71296263
   0.25243011  0.91515844  0.80686040
   0.70540829  0.42010656  0.19097856
   0.53528790  0.48161556  0.88953411
   0.40634605  0.18864239  0.05817258
   0.87321518  0.68159914  0.06045747
   0.87894333  0.17706800  0.05495324
   0.79786224  0.66912542  0.42352793
   0.81143312  0.16312349  0.42174107
   0.99309566  0.41209365  0.76011514
   0.25942790  0.92424786  0.31645187
unknown system                          
           1
     4.222767    0.013704    0.054614
     0.030070    5.427517    0.042955
    -1.786258    0.047690    5.971992
   H    Nb   H    Sr
   2   1   6   2
Direct configuration=     3
   0.08664308  0.91681207  0.71339299
   0.25183072  0.91534502  0.80649222
   0.70530351  0.42006849  0.19093182
   0.53530206  0.48139767  0.88952217
   0.40641072  0.18860903  0.05824626
   0.87301418  0.68171545  0.06040426
   0.87896141  0.17703610  0.05493626
   0.79787481  0.66914788  0.42353335
   0.81160704  0.16314343  0.42175185
   0.99309208  0.41209356  0.76015349
   0.25942639  0.92424130  0.31639033
