unknown system                          
           1
     3.539015    0.305422   -0.376558
    -0.689057    5.619147   -1.614734
    -2.455457   -3.506003    7.369789
   H    Sr   H    Nb   H    Sr   H 
   1   1   3   1   2   1   1
Direct configuration=     1
   0.99711715  0.46737510  0.03298036
   0.32569023  0.12648365  0.86382627
   0.62748527  0.25802009  0.67340034
   0.29959998  0.68420734  0.82353566
   0.05478469  0.11601380  0.10122094
   0.89083204  0.68606775  0.94130144
   0.21473696  0.90541724  0.25144532
   0.53901134  0.68817891  0.06402113
   0.88536720  0.24531054  0.42399701
   0.65004215  0.68582658  0.67535553
unknown system                          
           1
     3.539011    0.306092   -0.377634
    -0.687037    5.615847   -1.613048
    -2.459397   -3.505870    7.360143
   H    Sr   H    Nb   H    Sr   H 
   1   1   3   1   2   1   1
Direct configuration=     2
   0.99730272  0.46720562  0.03309372
   0.32582198  0.12665863  0.86401675
   0.62725426  0.25765192  0.67322382
   0.29957867  0.68425098  0.82351102
   0.05477865  0.11584206  0.10123897
   0.89080810  0.68692499  0.94154455
   0.21497568  0.90532946  0.25151027
   0.53897121  0.68806196  0.06387617
   0.88519576  0.24514420  0.42379914
   0.64997998  0.68583119  0.67526958
unknown system                          
           1
     3.539009    0.306448   -0.378207
    -0.685963    5.614091   -1.612151
    -2.461494   -3.505800    7.355010
   H    Sr   H    Nb   H    Sr   H 
   1   1   3   1   2   1   1
Direct configuration=     3
   0.99740167  0.46711543  0.03315416
   0.32589229  0.12675187  0.86411827
   0.62713120  0.25745582  0.67312974
   0.29956728  0.68427420  0.82349788
   0.05477551  0.11575063  0.10124860
   0.89079541  0.68738152  0.94167407
   0.21510283  0.90528275  0.25154491
   0.53894970  0.68799963  0.06379892
   0.88510432  0.24505555  0.42369367
   0.64994678  0.68583360  0.67522377
