       N       E                     dE             d eps       ncg     rms          rms(c)
DAV:   1     0.239332350597E+03    0.23933E+03   -0.14023E+04 19464   0.845E+02
DAV:   2    -0.329069967565E+02   -0.27224E+03   -0.26493E+03 23068   0.382E+02
DAV:   3    -0.500335193174E+02   -0.17127E+02   -0.16845E+02 32352   0.809E+01
DAV:   4    -0.508548124560E+02   -0.82129E+00   -0.81861E+00 30832   0.133E+01
DAV:   5    -0.508723085508E+02   -0.17496E-01   -0.17483E-01 31296   0.188E+00    0.588E+01
DAV:   6    -0.470276435414E+02    0.38447E+01   -0.15042E+01 29392   0.246E+01    0.240E+01
DAV:   7    -0.465434405818E+02    0.48420E+00   -0.38675E+00 29356   0.130E+01    0.116E+01
DAV:   8    -0.464550640236E+02    0.88377E-01   -0.22883E+00 30152   0.104E+01    0.470E+00
DAV:   9    -0.463942947202E+02    0.60769E-01   -0.55525E-01 31060   0.512E+00    0.146E+00
DAV:  10    -0.463925390174E+02    0.17557E-02   -0.34832E-02 24736   0.119E+00    0.296E-01
DAV:  11    -0.463927074583E+02   -0.16844E-03   -0.65753E-03 27752   0.735E-01    0.181E-01
DAV:  12    -0.463928829297E+02   -0.17547E-03   -0.68014E-04 24256   0.230E-01    0.634E-02
DAV:  13    -0.463929857460E+02   -0.10282E-03   -0.14338E-04 16312   0.900E-02    0.153E-02
DAV:  14    -0.463930020496E+02   -0.16304E-04   -0.26929E-05 13476   0.497E-02
   1 F= -.46393002E+02 E0= -.46392938E+02  d E =-.463930E+02
       N       E                     dE             d eps       ncg     rms          rms(c)
DAV:   1    -0.518990767656E+02   -0.55061E+01   -0.39272E+02 18928   0.176E+02    0.199E+01
DAV:   2    -0.494574182078E+02    0.24417E+01   -0.57709E+01 25512   0.535E+01    0.803E+00
DAV:   3    -0.489738036055E+02    0.48361E+00   -0.57071E+00 26744   0.156E+01    0.762E+00
DAV:   4    -0.487477735241E+02    0.22603E+00   -0.15638E+00 29912   0.742E+00    0.657E+00
DAV:   5    -0.486913911757E+02    0.56382E-01   -0.51005E-01 35188   0.523E+00    0.536E+00
DAV:   6    -0.486849911118E+02    0.64001E-02   -0.13204E-01 34988   0.214E+00    0.213E+00
DAV:   7    -0.486793229286E+02    0.56682E-02   -0.83862E-02 31160   0.139E+00    0.420E-01
DAV:   8    -0.486801471799E+02   -0.82425E-03   -0.11916E-02 27776   0.549E-01    0.271E-01
DAV:   9    -0.486803466496E+02   -0.19947E-03   -0.67880E-04 25400   0.158E-01    0.163E-01
DAV:  10    -0.486803254230E+02    0.21227E-04   -0.12419E-04 13468   0.801E-02
   2 F= -.48680325E+02 E0= -.48680498E+02  d E =-.228732E+01
       N       E                     dE             d eps       ncg     rms          rms(c)
DAV:   1    -0.487930136681E+02   -0.11267E+00   -0.93891E+00 18928   0.258E+01    0.375E+00
DAV:   2    -0.487380959159E+02    0.54918E-01   -0.16949E+00 23172   0.935E+00    0.121E+00
DAV:   3    -0.487267996398E+02    0.11296E-01   -0.23048E-01 29036   0.391E+00    0.942E-01
DAV:   4    -0.487163333003E+02    0.10466E-01   -0.77705E-02 30460   0.193E+00    0.661E-01
DAV:   5    -0.487139055534E+02    0.24277E-02   -0.14334E-02 34112   0.791E-01    0.600E-01
DAV:   6    -0.487144975566E+02   -0.59200E-03   -0.24454E-03 29944   0.294E-01    0.282E-01
DAV:   7    -0.487144245782E+02    0.72978E-04   -0.17039E-03 30104   0.187E-01    0.647E-02
DAV:   8    -0.487144188754E+02    0.57028E-05   -0.33735E-04 20096   0.109E-01
   3 F= -.48714419E+02 E0= -.48714502E+02  d E =-.232142E+01
       N       E                     dE             d eps       ncg     rms          rms(c)
DAV:   1    -0.480014530763E+02    0.71297E+00   -0.26640E+02 18928   0.141E+02    0.112E+01
DAV:   2    -0.497741052381E+02   -0.17727E+01   -0.36278E+01 19160   0.399E+01    0.391E+00
DAV:   3    -0.497192038224E+02    0.54901E-01   -0.13523E+00 27136   0.786E+00    0.254E+00
DAV:   4    -0.496885783634E+02    0.30625E-01   -0.52820E-01 28876   0.470E+00    0.204E+00
DAV:   5    -0.496578384760E+02    0.30740E-01   -0.24485E-01 34088   0.318E+00    0.120E+00
DAV:   6    -0.496572878350E+02    0.55064E-03   -0.21372E-02 26000   0.927E-01    0.816E-01
DAV:   7    -0.496582131467E+02   -0.92531E-03   -0.39588E-03 30624   0.360E-01    0.398E-01
DAV:   8    -0.496582160904E+02   -0.29437E-05   -0.17565E-03 29732   0.232E-01    0.512E-02
DAV:   9    -0.496581935202E+02    0.22570E-04   -0.15699E-04 14216   0.102E-01
   4 F= -.49658194E+02 E0= -.49658336E+02  d E =-.943775E+00
       N       E                     dE             d eps       ncg     rms          rms(c)
DAV:   1    -0.496581753053E+02    0.40785E-04   -0.11482E-03 21092   0.286E-01    0.296E-02
DAV:   2    -0.496581881556E+02   -0.12850E-04   -0.20373E-04 17844   0.888E-02
   5 F= -.49658188E+02 E0= -.49658330E+02  d E =-.943769E+00
       N       E                     dE             d eps       ncg     rms          rms(c)
DAV:   1    -0.497340583489E+02   -0.75883E-01   -0.30109E+01 18928   0.447E+01    0.533E+00
DAV:   2    -0.500200631008E+02   -0.28600E+00   -0.48679E+00 19508   0.145E+01    0.217E+00
DAV:   3    -0.500107891717E+02    0.92739E-02   -0.31371E-01 28424   0.402E+00    0.130E+00
DAV:   4    -0.500025191777E+02    0.82700E-02   -0.12903E-01 29984   0.257E+00    0.113E+00
DAV:   5    -0.499985443338E+02    0.39748E-02   -0.32190E-02 33264   0.125E+00    0.525E-01
DAV:   6    -0.499988661292E+02   -0.32180E-03   -0.37172E-03 28488   0.377E-01    0.395E-01
DAV:   7    -0.499991399043E+02   -0.27378E-03   -0.85489E-04 29252   0.198E-01    0.953E-02
DAV:   8    -0.499990978922E+02    0.42012E-04   -0.30205E-04 14160   0.157E-01
   6 F= -.49999098E+02 E0= -.49999311E+02  d E =-.340910E+00
       N       E                     dE             d eps       ncg     rms          rms(c)
DAV:   1    -0.499478448881E+02    0.51295E-01   -0.13157E+01 18928   0.298E+01    0.329E+00
DAV:   2    -0.500728242583E+02   -0.12498E+00   -0.21365E+00 20324   0.980E+00    0.154E+00
DAV:   3    -0.500681730461E+02    0.46512E-02   -0.16008E-01 28460   0.287E+00    0.797E-01
DAV:   4    -0.500639426647E+02    0.42304E-02   -0.60624E-02 28816   0.188E+00    0.733E-01
DAV:   5    -0.500623815027E+02    0.15612E-02   -0.13812E-02 32824   0.808E-01    0.343E-01
DAV:   6    -0.500625576205E+02   -0.17612E-03   -0.14920E-03 29120   0.233E-01    0.250E-01
DAV:   7    -0.500626704107E+02   -0.11279E-03   -0.29639E-04 17936   0.126E-01    0.589E-02
DAV:   8    -0.500626520492E+02    0.18361E-04   -0.13723E-04 13236   0.110E-01
   7 F= -.50062652E+02 E0= -.50062906E+02  d E =-.404464E+00
       N       E                     dE             d eps       ncg     rms          rms(c)
DAV:   1    -0.502801278661E+02   -0.21746E+00   -0.85247E+00 18928   0.224E+01    0.262E+00
DAV:   2    -0.502940612342E+02   -0.13933E-01   -0.93120E-01 21396   0.691E+00    0.944E-01
DAV:   3    -0.502890452417E+02    0.50160E-02   -0.44390E-02 28088   0.140E+00    0.724E-01
DAV:   4    -0.502880781480E+02    0.96709E-03   -0.20442E-02 34304   0.105E+00    0.535E-01
DAV:   5    -0.502868348559E+02    0.12433E-02   -0.10695E-02 33808   0.751E-01    0.379E-01
DAV:   6    -0.502869396729E+02   -0.10482E-03   -0.11557E-03 28200   0.223E-01    0.244E-01
DAV:   7    -0.502870277302E+02   -0.88057E-04   -0.12945E-04 14132   0.811E-02
   8 F= -.50287028E+02 E0= -.50287262E+02  d E =-.224376E+00
       N       E                     dE             d eps       ncg     rms          rms(c)
DAV:   1    -0.504022907151E+02   -0.11535E+00   -0.59052E+01 20376   0.598E+01    0.775E+00
DAV:   2    -0.505162754273E+02   -0.11398E+00   -0.62639E+00 21164   0.182E+01    0.245E+00
DAV:   3    -0.504753010115E+02    0.40974E-01   -0.31782E-01 31444   0.373E+00    0.188E+00
DAV:   4    -0.504686371924E+02    0.66638E-02   -0.13216E-01 34388   0.257E+00    0.139E+00
DAV:   5    -0.504614909042E+02    0.71463E-02   -0.68325E-02 32884   0.195E+00    0.100E+00
DAV:   6    -0.504623413972E+02   -0.85049E-03   -0.80756E-03 32752   0.609E-01    0.607E-01
DAV:   7    -0.504628717375E+02   -0.53034E-03   -0.12686E-03 32816   0.229E-01    0.123E-01
DAV:   8    -0.504628792844E+02   -0.75469E-05   -0.29197E-04 17720   0.130E-01
   9 F= -.50462879E+02 E0= -.50463008E+02  d E =-.400227E+00
       N       E                     dE             d eps       ncg     rms          rms(c)
DAV:   1    -0.505026891837E+02   -0.39817E-01   -0.30738E+01 19016   0.471E+01    0.373E+00
DAV:   2    -0.507856441533E+02   -0.28295E+00   -0.47783E+00 19476   0.142E+01    0.192E+00
DAV:   3    -0.507571544789E+02    0.28490E-01   -0.41820E-01 28464   0.503E+00    0.151E+00
DAV:   4    -0.507392185163E+02    0.17936E-01   -0.10479E-01 27780   0.222E+00    0.873E-01
DAV:   5    -0.507340107783E+02    0.52077E-02   -0.27108E-02 26984   0.130E+00    0.410E-01
DAV:   6    -0.507342016123E+02   -0.19083E-03   -0.33307E-03 27144   0.402E-01    0.151E-01
DAV:   7    -0.507342454549E+02   -0.43843E-04   -0.36183E-04 22400   0.129E-01
  10 F= -.50734245E+02 E0= -.50734412E+02  d E =-.271366E+00
       N       E                     dE             d eps       ncg     rms          rms(c)
DAV:   1    -0.504537066338E+02    0.28049E+00   -0.48341E+01 18928   0.593E+01    0.477E+00
DAV:   2    -0.509011245187E+02   -0.44742E+00   -0.75264E+00 19428   0.179E+01    0.241E+00
DAV:   3    -0.508523926855E+02    0.48732E-01   -0.66664E-01 27968   0.633E+00    0.178E+00
DAV:   4    -0.508240731112E+02    0.28320E-01   -0.16349E-01 27656   0.269E+00    0.106E+00
DAV:   5    -0.508151472290E+02    0.89259E-02   -0.46204E-02 29048   0.169E+00    0.523E-01
DAV:   6    -0.508153600124E+02   -0.21278E-03   -0.50282E-03 26176   0.509E-01    0.203E-01
DAV:   7    -0.508154408692E+02   -0.80857E-04   -0.66851E-04 28408   0.160E-01
  11 F= -.50815441E+02 E0= -.50815284E+02  d E =-.352562E+00
       N       E                     dE             d eps       ncg     rms          rms(c)
DAV:   1    -0.508004969651E+02    0.14863E-01   -0.38151E+01 18928   0.513E+01    0.367E+00
DAV:   2    -0.511682471683E+02   -0.36775E+00   -0.60026E+00 19936   0.163E+01    0.300E+00
DAV:   3    -0.511084290519E+02    0.59818E-01   -0.68970E-01 26964   0.564E+00    0.171E+00
DAV:   4    -0.510908723808E+02    0.17557E-01   -0.91857E-02 27108   0.214E+00    0.120E+00
DAV:   5    -0.510836210823E+02    0.72513E-02   -0.37586E-02 26648   0.160E+00    0.261E-01
DAV:   6    -0.510838338225E+02   -0.21274E-03   -0.33887E-03 21832   0.452E-01    0.100E-01
DAV:   7    -0.510838383676E+02   -0.45452E-05   -0.20899E-04 17584   0.118E-01
  12 F= -.51083838E+02 E0= -.51083770E+02  d E =-.268397E+00
       N       E                     dE             d eps       ncg     rms          rms(c)
DAV:   1    -0.508565412351E+02    0.22729E+00   -0.46211E+01 18928   0.568E+01    0.434E+00
DAV:   2    -0.512933042360E+02   -0.43676E+00   -0.72774E+00 20216   0.181E+01    0.322E+00
DAV:   3    -0.512218381214E+02    0.71466E-01   -0.91899E-01 27168   0.607E+00    0.177E+00
DAV:   4    -0.511981194576E+02    0.23719E-01   -0.13614E-01 27128   0.266E+00    0.124E+00
DAV:   5    -0.511893357455E+02    0.87837E-02   -0.47676E-02 26676   0.171E+00    0.285E-01
DAV:   6    -0.511896123723E+02   -0.27663E-03   -0.42723E-03 22076   0.505E-01    0.101E-01
DAV:   7    -0.511896199561E+02   -0.75838E-05   -0.25455E-04 18364   0.125E-01
  13 F= -.51189620E+02 E0= -.51189799E+02  d E =-.374179E+00
       N       E                     dE             d eps       ncg     rms          rms(c)
DAV:   1    -0.511664103929E+02    0.23202E-01   -0.28480E+01 19176   0.452E+01    0.501E+00
DAV:   2    -0.514533326372E+02   -0.28692E+00   -0.40093E+00 19336   0.137E+01    0.185E+00
DAV:   3    -0.514484526280E+02    0.48800E-02   -0.18730E-01 30008   0.324E+00    0.939E-01
DAV:   4    -0.514453668703E+02    0.30858E-02   -0.10655E-01 30792   0.255E+00    0.896E-01
DAV:   5    -0.514407423795E+02    0.46245E-02   -0.32187E-02 33800   0.128E+00    0.335E-01
DAV:   6    -0.514409666400E+02   -0.22426E-03   -0.19920E-03 26960   0.298E-01    0.191E-01
DAV:   7    -0.514410142790E+02   -0.47639E-04   -0.23989E-04 15832   0.132E-01
  14 F= -.51441014E+02 E0= -.51441173E+02  d E =-.251394E+00
       N       E                     dE             d eps       ncg     rms          rms(c)
DAV:   1    -0.514080406139E+02    0.32926E-01   -0.68439E+00 18928   0.224E+01    0.232E+00
DAV:   2    -0.514767339840E+02   -0.68693E-01   -0.98556E-01 20076   0.686E+00    0.103E+00
DAV:   3    -0.514758916256E+02    0.84236E-03   -0.57030E-02 29452   0.184E+00    0.507E-01
DAV:   4    -0.514746279000E+02    0.12637E-02   -0.31075E-02 28440   0.147E+00    0.468E-01
DAV:   5    -0.514735743401E+02    0.10536E-02   -0.81296E-03 33908   0.652E-01    0.163E-01
DAV:   6    -0.514736235794E+02   -0.49239E-04   -0.43566E-04 22208   0.145E-01
  15 F= -.51473624E+02 E0= -.51473674E+02  d E =-.284004E+00
       N       E                     dE             d eps       ncg     rms          rms(c)
DAV:   1    -0.515470778385E+02   -0.73503E-01   -0.10470E+01 18928   0.255E+01    0.173E+00
DAV:   2    -0.516238371819E+02   -0.76759E-01   -0.11640E+00 21580   0.759E+00    0.130E+00
DAV:   3    -0.516182931030E+02    0.55441E-02   -0.11103E-01 31596   0.281E+00    0.705E-01
DAV:   4    -0.516149982772E+02    0.32948E-02   -0.24004E-02 30008   0.110E+00    0.430E-01
DAV:   5    -0.516143512065E+02    0.64707E-03   -0.60489E-03 26412   0.638E-01    0.759E-02
DAV:   6    -0.516143350722E+02    0.16134E-04   -0.52902E-04 21664   0.198E-01
  16 F= -.51614335E+02 E0= -.51614342E+02  d E =-.140711E+00
       N       E                     dE             d eps       ncg     rms          rms(c)
DAV:   1    -0.515873236983E+02    0.27028E-01   -0.12721E+01 18928   0.282E+01    0.192E+00
DAV:   2    -0.516793755648E+02   -0.92052E-01   -0.13712E+00 21188   0.825E+00    0.139E+00
DAV:   3    -0.516744609015E+02    0.49147E-02   -0.11007E-01 32384   0.281E+00    0.770E-01
DAV:   4    -0.516709138025E+02    0.35471E-02   -0.28674E-02 30304   0.127E+00    0.480E-01
DAV:   5    -0.516701113945E+02    0.80241E-03   -0.81636E-03 27560   0.741E-01    0.858E-02
DAV:   6    -0.516700801916E+02    0.31203E-04   -0.68992E-04 21732   0.230E-01
  17 F= -.51670080E+02 E0= -.51669902E+02  d E =-.196457E+00
       N       E                     dE             d eps       ncg     rms          rms(c)
DAV:   1    -0.518316654471E+02   -0.16155E+00   -0.11744E+01 18928   0.260E+01    0.329E+00
DAV:   2    -0.518224913033E+02    0.91741E-02   -0.10116E+00 21408   0.755E+00    0.120E+00
DAV:   3    -0.518072294883E+02    0.15262E-01   -0.87103E-02 27976   0.218E+00    0.755E-01
DAV:   4    -0.518041903145E+02    0.30392E-02   -0.41370E-02 28656   0.166E+00    0.607E-01
DAV:   5    -0.518029101485E+02    0.12802E-02   -0.11174E-02 35200   0.847E-01    0.402E-01
DAV:   6    -0.518030690500E+02   -0.15890E-03   -0.11363E-03 28760   0.221E-01    0.732E-02
DAV:   7    -0.518030595227E+02    0.95273E-05   -0.20780E-04 15364   0.974E-02
  18 F= -.51803060E+02 E0= -.51803035E+02  d E =-.132979E+00
       N       E                     dE             d eps       ncg     rms          rms(c)
DAV:   1    -0.519501498854E+02   -0.14708E+00   -0.26244E+01 18928   0.386E+01    0.462E+00
DAV:   2    -0.519153745372E+02    0.34775E-01   -0.22508E+00 21464   0.112E+01    0.178E+00
DAV:   3    -0.518830632665E+02    0.32311E-01   -0.20453E-01 28664   0.325E+00    0.109E+00
DAV:   4    -0.518754012456E+02    0.76620E-02   -0.98471E-02 28420   0.250E+00    0.911E-01
DAV:   5    -0.518721500663E+02    0.32512E-02   -0.24378E-02 34860   0.119E+00    0.584E-01
DAV:   6    -0.518725028453E+02   -0.35278E-03   -0.26247E-03 30488   0.323E-01    0.117E-01
DAV:   7    -0.518724962506E+02    0.65947E-05   -0.48254E-04 21080   0.137E-01
  19 F= -.51872496E+02 E0= -.51872552E+02  d E =-.202416E+00
       N       E                     dE             d eps       ncg     rms          rms(c)
DAV:   1    -0.519472217005E+02   -0.74719E-01   -0.49779E+00 18928   0.162E+01    0.136E+00
DAV:   2    -0.519601539580E+02   -0.12932E-01   -0.38582E-01 21560   0.440E+00    0.632E-01
DAV:   3    -0.519559516653E+02    0.42023E-02   -0.16190E-02 29684   0.803E-01    0.302E-01
DAV:   4    -0.519550502264E+02    0.90144E-03   -0.45630E-03 27464   0.517E-01    0.131E-01
DAV:   5    -0.519549557759E+02    0.94451E-04   -0.17285E-03 27040   0.359E-01    0.800E-02
DAV:   6    -0.519549523319E+02    0.34440E-05   -0.16995E-04 13512   0.115E-01
  20 F= -.51954952E+02 E0= -.51955047E+02  d E =-.824561E-01
       N       E                     dE             d eps       ncg     rms          rms(c)
DAV:   1    -0.520150744757E+02   -0.60119E-01   -0.44684E+01 18928   0.487E+01    0.441E+00
DAV:   2    -0.521395753782E+02   -0.12450E+00   -0.34601E+00 21528   0.131E+01    0.188E+00
DAV:   3    -0.520991997786E+02    0.40376E-01   -0.13646E-01 29748   0.234E+00    0.890E-01
DAV:   4    -0.520896653715E+02    0.95344E-02   -0.26268E-02 26984   0.102E+00    0.287E-01
DAV:   5    -0.520898874679E+02   -0.22210E-03   -0.33529E-03 29628   0.403E-01    0.184E-01
DAV:   6    -0.520899648609E+02   -0.77393E-04   -0.12186E-03 27024   0.300E-01    0.106E-01
DAV:   7    -0.520899530374E+02    0.11823E-04   -0.33394E-04 15524   0.165E-01
  21 F= -.52089953E+02 E0= -.52089971E+02  d E =-.217457E+00
       N       E                     dE             d eps       ncg     rms          rms(c)
DAV:   1    -0.521706527011E+02   -0.80688E-01   -0.10467E+01 19136   0.277E+01    0.317E+00
DAV:   2    -0.522418324543E+02   -0.71180E-01   -0.13331E+00 20808   0.796E+00    0.906E-01
DAV:   3    -0.522362937620E+02    0.55387E-02   -0.57394E-02 29784   0.185E+00    0.499E-01
DAV:   4    -0.522349468489E+02    0.13469E-02   -0.16569E-02 31616   0.107E+00    0.368E-01
DAV:   5    -0.522341414216E+02    0.80543E-03   -0.65203E-03 34008   0.690E-01    0.272E-01
DAV:   6    -0.522342389686E+02   -0.97547E-04   -0.70235E-04 25920   0.195E-01
  22 F= -.52234239E+02 E0= -.52234218E+02  d E =-.144286E+00
       N       E                     dE             d eps       ncg     rms          rms(c)
DAV:   1    -0.521263294331E+02    0.10781E+00   -0.26507E+01 19104   0.444E+01    0.555E+00
DAV:   2    -0.523187009215E+02   -0.19237E+00   -0.34205E+00 20844   0.128E+01    0.150E+00
DAV:   3    -0.523015461921E+02    0.17155E-01   -0.13534E-01 29748   0.279E+00    0.759E-01
DAV:   4    -0.522979158600E+02    0.36303E-02   -0.31877E-02 30632   0.144E+00    0.563E-01
DAV:   5    -0.522968079412E+02    0.11079E-02   -0.12199E-02 34240   0.968E-01    0.443E-01
DAV:   6    -0.522970531945E+02   -0.24525E-03   -0.15263E-03 32116   0.304E-01    0.263E-01
DAV:   7    -0.522972349578E+02   -0.18176E-03   -0.41230E-04 24464   0.125E-01    0.392E-02
DAV:   8    -0.522972272057E+02    0.77521E-05   -0.85328E-05 13532   0.833E-02
  23 F= -.52297227E+02 E0= -.52297306E+02  d E =-.207274E+00
       N       E                     dE             d eps       ncg     rms          rms(c)
DAV:   1    -0.522940160412E+02    0.32189E-02   -0.16407E+00 18932   0.112E+01    0.120E+00
DAV:   2    -0.523048504939E+02   -0.10834E-01   -0.20983E-01 20676   0.321E+00    0.403E-01
DAV:   3    -0.523040490656E+02    0.80143E-03   -0.86098E-03 29376   0.720E-01    0.202E-01
DAV:   4    -0.523038080528E+02    0.24101E-03   -0.21727E-03 31396   0.392E-01    0.154E-01
DAV:   5    -0.523037042670E+02    0.10379E-03   -0.80967E-04 24520   0.250E-01    0.114E-01
DAV:   6    -0.523037091627E+02   -0.48958E-05   -0.11370E-04 14376   0.888E-02
  24 F= -.52303709E+02 E0= -.52303759E+02  d E =-.213756E+00
       N       E                     dE             d eps       ncg     rms          rms(c)
DAV:   1    -0.523514715320E+02   -0.47767E-01   -0.51966E+00 19104   0.183E+01    0.142E+00
DAV:   2    -0.523880020942E+02   -0.36531E-01   -0.49937E-01 23048   0.518E+00    0.850E-01
DAV:   3    -0.523864152147E+02    0.15869E-02   -0.35900E-02 29204   0.178E+00    0.488E-01
DAV:   4    -0.523854306700E+02    0.98454E-03   -0.87374E-03 28092   0.803E-01    0.286E-01
DAV:   5    -0.523852637108E+02    0.16696E-03   -0.21697E-03 32504   0.378E-01    0.113E-01
DAV:   6    -0.523852694554E+02   -0.57446E-05   -0.21528E-04 16092   0.123E-01
  25 F= -.52385269E+02 E0= -.52385294E+02  d E =-.815603E-01
       N       E                     dE             d eps       ncg     rms          rms(c)
DAV:   1    -0.523830310958E+02    0.22326E-02   -0.41601E+00 19032   0.163E+01    0.124E+00
DAV:   2    -0.524119952563E+02   -0.28964E-01   -0.39703E-01 23056   0.461E+00    0.720E-01
DAV:   3    -0.524107340751E+02    0.12612E-02   -0.29110E-02 29204   0.157E+00    0.414E-01
DAV:   4    -0.524099044106E+02    0.82966E-03   -0.71121E-03 27944   0.718E-01    0.248E-01
DAV:   5    -0.524097554287E+02    0.14898E-03   -0.17413E-03 31656   0.334E-01    0.100E-01
DAV:   6    -0.524097617413E+02   -0.63126E-05   -0.16674E-04 14864   0.109E-01
  26 F= -.52409762E+02 E0= -.52409751E+02  d E =-.106053E+00
       N       E                     dE             d eps       ncg     rms          rms(c)
DAV:   1    -0.524253156725E+02   -0.15560E-01   -0.56059E+00 18928   0.201E+01    0.120E+00
DAV:   2    -0.524724681693E+02   -0.47152E-01   -0.66237E-01 19844   0.536E+00    0.636E-01
DAV:   3    -0.524709998337E+02    0.14683E-02   -0.18347E-02 28712   0.105E+00    0.386E-01
DAV:   4    -0.524703103947E+02    0.68944E-03   -0.73383E-03 29188   0.745E-01    0.219E-01
DAV:   5    -0.524698723844E+02    0.43801E-03   -0.35276E-03 28508   0.508E-01    0.705E-02
DAV:   6    -0.524698741978E+02   -0.18134E-05   -0.23353E-04 15956   0.118E-01
  27 F= -.52469874E+02 E0= -.52469840E+02  d E =-.601125E-01
       N       E                     dE             d eps       ncg     rms          rms(c)
DAV:   1    -0.524617760494E+02    0.80963E-02   -0.25030E+00 18928   0.134E+01    0.809E-01
DAV:   2    -0.524829425813E+02   -0.21167E-01   -0.29671E-01 20192   0.359E+00    0.428E-01
DAV:   3    -0.524822786778E+02    0.66390E-03   -0.82523E-03 28712   0.709E-01    0.260E-01
DAV:   4    -0.524819761868E+02    0.30249E-03   -0.34201E-03 29136   0.509E-01    0.149E-01
DAV:   5    -0.524817734065E+02    0.20278E-03   -0.16327E-03 28028   0.343E-01    0.475E-02
DAV:   6    -0.524817744358E+02   -0.10293E-05   -0.10535E-04 13480   0.812E-02
  28 F= -.52481774E+02 E0= -.52481722E+02  d E =-.720127E-01
       N       E                     dE             d eps       ncg     rms          rms(c)
DAV:   1    -0.525026546249E+02   -0.20881E-01   -0.27250E+00 18928   0.136E+01    0.174E+00
DAV:   2    -0.525097948491E+02   -0.71402E-02   -0.34336E-01 20844   0.423E+00    0.509E-01
DAV:   3    -0.525071412814E+02    0.26536E-02   -0.20545E-02 29536   0.117E+00    0.383E-01
DAV:   4    -0.525064402401E+02    0.70104E-03   -0.64818E-03 28684   0.698E-01    0.263E-01
DAV:   5    -0.525060274290E+02    0.41281E-03   -0.26390E-03 34660   0.421E-01    0.169E-01
DAV:   6    -0.525060583736E+02   -0.30945E-04   -0.31903E-04 17636   0.135E-01
  29 F= -.52506058E+02 E0= -.52506010E+02  d E =-.242839E-01
       N       E                     dE             d eps       ncg     rms          rms(c)
DAV:   1    -0.525082858580E+02   -0.22584E-02   -0.70214E-01 18928   0.694E+00    0.868E-01
DAV:   2    -0.525100213388E+02   -0.17355E-02   -0.88371E-02 20992   0.215E+00    0.261E-01
DAV:   3    -0.525093468512E+02    0.67449E-03   -0.52716E-03 29544   0.591E-01    0.194E-01
DAV:   4    -0.525091779624E+02    0.16889E-03   -0.16547E-03 27048   0.357E-01    0.135E-01
DAV:   5    -0.525090810529E+02    0.96910E-04   -0.65344E-04 27316   0.216E-01
  30 F= -.52509081E+02 E0= -.52509032E+02  d E =-.273066E-01
       N       E                     dE             d eps       ncg     rms          rms(c)
DAV:   1    -0.525068054929E+02    0.23725E-02   -0.23970E+00 18928   0.129E+01    0.127E+00
DAV:   2    -0.525243487280E+02   -0.17543E-01   -0.31508E-01 19356   0.401E+00    0.488E-01
DAV:   3    -0.525230107360E+02    0.13380E-02   -0.17922E-02 28688   0.121E+00    0.302E-01
DAV:   4    -0.525224328488E+02    0.57789E-03   -0.58208E-03 30848   0.667E-01    0.234E-01
DAV:   5    -0.525222231702E+02    0.20968E-03   -0.16119E-03 33484   0.324E-01    0.145E-01
DAV:   6    -0.525222549610E+02   -0.31791E-04   -0.21666E-04 15192   0.122E-01
  31 F= -.52522255E+02 E0= -.52522206E+02  d E =-.131739E-01
       N       E                     dE             d eps       ncg     rms          rms(c)
DAV:   1    -0.525220544562E+02    0.16871E-03   -0.84411E-02 19000   0.243E+00    0.228E-01
DAV:   2    -0.525226638559E+02   -0.60940E-03   -0.10950E-02 20716   0.747E-01    0.915E-02
DAV:   3    -0.525226145288E+02    0.49327E-04   -0.53180E-04 23384   0.209E-01
  32 F= -.52522615E+02 E0= -.52522567E+02  d E =-.135335E-01
       N       E                     dE             d eps       ncg     rms          rms(c)
DAV:   1    -0.525291377451E+02   -0.64739E-02   -0.11195E+00 18928   0.784E+00    0.639E-01
DAV:   2    -0.525333504324E+02   -0.42127E-02   -0.98795E-02 23516   0.246E+00    0.415E-01
DAV:   3    -0.525324934567E+02    0.85698E-03   -0.11463E-02 29152   0.101E+00    0.210E-01
DAV:   4    -0.525319768563E+02    0.51660E-03   -0.29335E-03 28304   0.453E-01    0.116E-01
DAV:   5    -0.525319018916E+02    0.74965E-04   -0.64364E-04 24120   0.199E-01
  33 F= -.52531902E+02 E0= -.52531875E+02  d E =-.928736E-02
       N       E                     dE             d eps       ncg     rms          rms(c)
DAV:   1    -0.525322800647E+02   -0.30321E-03   -0.18797E-01 18936   0.322E+00    0.260E-01
DAV:   2    -0.525330249590E+02   -0.74489E-03   -0.16925E-02 23736   0.102E+00    0.173E-01
DAV:   3    -0.525328747996E+02    0.15016E-03   -0.20135E-03 28332   0.428E-01    0.865E-02
DAV:   4    -0.525327880941E+02    0.86705E-04   -0.44465E-04 18032   0.183E-01
  34 F= -.52532788E+02 E0= -.52532771E+02  d E =-.101736E-01
       N       E                     dE             d eps       ncg     rms          rms(c)
DAV:   1    -0.525313319710E+02    0.15428E-02   -0.11475E+00 18928   0.915E+00    0.883E-01
DAV:   2    -0.525396108405E+02   -0.82789E-02   -0.19281E-01 19796   0.298E+00    0.465E-01
DAV:   3    -0.525387321973E+02    0.87864E-03   -0.17680E-02 28264   0.123E+00    0.211E-01
DAV:   4    -0.525382203498E+02    0.51185E-03   -0.39344E-03 27900   0.557E-01    0.177E-01
DAV:   5    -0.525380458262E+02    0.17452E-03   -0.11241E-03 31992   0.258E-01    0.886E-02
DAV:   6    -0.525380515944E+02   -0.57682E-05   -0.11359E-04 14228   0.734E-02
  35 F= -.52538052E+02 E0= -.52538018E+02  d E =-.526350E-02
       N       E                     dE             d eps       ncg     rms          rms(c)
DAV:   1    -0.525379792523E+02    0.66574E-04   -0.26714E-02 18988   0.140E+00    0.134E-01
DAV:   2    -0.525381707876E+02   -0.19154E-03   -0.44405E-03 20632   0.448E-01    0.788E-02
DAV:   3    -0.525381488638E+02    0.21924E-04   -0.32780E-04 18860   0.171E-01
  36 F= -.52538149E+02 E0= -.52538110E+02  d E =-.536077E-02
       N       E                     dE             d eps       ncg     rms          rms(c)
DAV:   1    -0.525391760364E+02   -0.10052E-02   -0.18947E-01 20936   0.358E+00    0.251E-01
DAV:   2    -0.525405000896E+02   -0.13241E-02   -0.20951E-02 21900   0.971E-01    0.232E-01
DAV:   3    -0.525404065669E+02    0.93523E-04   -0.13161E-03 26084   0.332E-01    0.130E-01
DAV:   4    -0.525403690285E+02    0.37538E-04   -0.39330E-04 19036   0.177E-01
  37 F= -.52540369E+02 E0= -.52540323E+02  d E =-.222016E-02
       N       E                     dE             d eps       ncg     rms          rms(c)
DAV:   1    -0.525400151653E+02    0.39140E-03   -0.12599E-01 20720   0.292E+00    0.190E-01
DAV:   2    -0.525409124545E+02   -0.89729E-03   -0.14110E-02 21672   0.801E-01    0.182E-01
DAV:   3    -0.525408535584E+02    0.58896E-04   -0.92150E-04 26160   0.279E-01
  38 F= -.52540854E+02 E0= -.52540792E+02  d E =-.270469E-02
       N       E                     dE             d eps       ncg     rms          rms(c)
DAV:   1    -0.525400794019E+02    0.83305E-03   -0.28951E-01 20888   0.448E+00    0.256E-01
DAV:   2    -0.525422036169E+02   -0.21242E-02   -0.29261E-02 20324   0.115E+00    0.159E-01
DAV:   3    -0.525421663019E+02    0.37315E-04   -0.79874E-04 27900   0.211E-01
  39 F= -.52542166E+02 E0= -.52542101E+02  d E =-.131274E-02
       N       E                     dE             d eps       ncg     rms          rms(c)
DAV:   1    -0.525421251246E+02    0.78492E-04   -0.63830E-03 21024   0.666E-01    0.662E-02
DAV:   2    -0.525421621833E+02   -0.37059E-04   -0.12127E-03 25448   0.288E-01    0.751E-02
DAV:   3    -0.525421275534E+02    0.34630E-04   -0.23796E-04 13240   0.151E-01
  40 F= -.52542128E+02 E0= -.52542060E+02  d E =-.127400E-02
       N       E                     dE             d eps       ncg     rms          rms(c)
DAV:   1    -0.525428698949E+02   -0.70771E-03   -0.30905E-01 18932   0.424E+00    0.432E-01
DAV:   2    -0.525436598923E+02   -0.79000E-03   -0.26960E-02 20972   0.121E+00    0.170E-01
DAV:   3    -0.525434980467E+02    0.16185E-03   -0.24851E-03 32760   0.442E-01    0.109E-01
DAV:   4    -0.525433850357E+02    0.11301E-03   -0.86299E-04 22588   0.257E-01    0.662E-02
DAV:   5    -0.525433579024E+02    0.27133E-04   -0.13887E-04 13096   0.110E-01
  41 F= -.52543358E+02 E0= -.52543281E+02  d E =-.123035E-02
       N       E                     dE             d eps       ncg     rms          rms(c)
DAV:   1    -0.525433505337E+02    0.34502E-04   -0.17929E-02 19072   0.103E+00    0.111E-01
DAV:   2    -0.525433923856E+02   -0.41852E-04   -0.16230E-03 21452   0.303E-01    0.473E-02
DAV:   3    -0.525433797922E+02    0.12593E-04   -0.16822E-04 13620   0.128E-01
  42 F= -.52543380E+02 E0= -.52543299E+02  d E =-.125224E-02
       N       E                     dE             d eps       ncg     rms          rms(c)
DAV:   1    -0.525424861483E+02    0.90624E-03   -0.16713E-01 18932   0.355E+00    0.300E-01
DAV:   2    -0.525440643689E+02   -0.15782E-02   -0.22537E-02 19968   0.102E+00    0.110E-01
DAV:   3    -0.525440293860E+02    0.34983E-04   -0.97259E-04 27308   0.272E-01
  43 F= -.52544029E+02 E0= -.52543942E+02  d E =-.649594E-03
       N       E                     dE             d eps       ncg     rms          rms(c)
DAV:   1    -0.525439787856E+02    0.85583E-04   -0.29547E-03 20816   0.478E-01    0.579E-02
DAV:   2    -0.525439903677E+02   -0.11582E-04   -0.45497E-04 18780   0.169E-01
  44 F= -.52543990E+02 E0= -.52543903E+02  d E =-.610575E-03
