 running on   32 total cores
 distrk:  each k-point on   32 cores,    1 groups
 distr:  one band on    8 cores,    4 groups
 using from now: INCAR     
 vasp.5.4.4.18Apr17-6-g9f103f2a35 (build Nov 01 2019 12:17:22) complex          
  
 POSCAR found type information on POSCAR  H  Nb H  Sr
 POSCAR found :  4 types and      17 ions

 ----------------------------------------------------------------------------- 
|                                                                             |
|  ADVICE TO THIS USER RUNNING 'VASP/VAMP'   (HEAR YOUR MASTER'S VOICE ...):  |
|                                                                             |
|      You have a (more or less) 'large supercell' and for larger cells       |
|      it might be more efficient to use real space projection opertators     |
|      So try LREAL= Auto  in the INCAR   file.                               |
|      Mind:          For very  accurate calculation you might also keep the  |
|      reciprocal projection scheme          (i.e. LREAL=.FALSE.)             |
|                                                                             |
 ----------------------------------------------------------------------------- 

 LDA part: xc-table for Pade appr. of Perdew
 generate k-points for:    7    8    8
 POSCAR, INCAR and KPOINTS ok, starting setup
 FFT: planning ...
 WAVECAR not read
 entering main loop
       N       E                     dE             d eps       ncg     rms          rms(c)
DAV:   1     0.117497664253E+03    0.11750E+03   -0.11668E+04 13336   0.667E+02
DAV:   2    -0.547430549921E+02   -0.17224E+03   -0.16737E+03 15852   0.257E+02
DAV:   3    -0.652312040850E+02   -0.10488E+02   -0.10435E+02 20760   0.518E+01
DAV:   4    -0.656666881337E+02   -0.43548E+00   -0.43423E+00 20560   0.881E+00
DAV:   5    -0.656740796949E+02   -0.73916E-02   -0.73908E-02 19304   0.899E-01    0.391E+01
DAV:   6    -0.630691486239E+02    0.26049E+01   -0.36635E+00 18556   0.131E+01    0.176E+01
DAV:   7    -0.621532113106E+02    0.91594E+00   -0.16128E+00 18064   0.594E+00    0.640E+00
DAV:   8    -0.621228388940E+02    0.30372E-01   -0.33605E-01 18376   0.318E+00    0.194E+00
DAV:   9    -0.621276347054E+02   -0.47958E-02   -0.15816E-02 16744   0.694E-01    0.123E+00
DAV:  10    -0.621342372594E+02   -0.66026E-02   -0.10902E-02 15372   0.622E-01    0.132E-01
DAV:  11    -0.621349984760E+02   -0.76122E-03   -0.18438E-03 17608   0.233E-01    0.117E-01
DAV:  12    -0.621353625038E+02   -0.36403E-03   -0.45182E-04 14484   0.119E-01    0.368E-02
DAV:  13    -0.621353959771E+02   -0.33473E-04   -0.45688E-05 12912   0.428E-02
   1 F= -.62135396E+02 E0= -.62135733E+02  d E =-.621354E+02
 curvature:   0.00 expect dE= 0.000E+00 dE for cont linesearch  0.000E+00
 trial: gam= 0.00000 g(F)=  0.145E-02 g(S)=  0.127E-03 ort = 0.000E+00 (trialstep = 0.100E+01)
 search vector abs. value=  0.158E-02
 bond charge predicted
       N       E                     dE             d eps       ncg     rms          rms(c)
DAV:   1    -0.621357426361E+02   -0.38013E-03   -0.35211E-02 14200   0.113E+00    0.887E-02
DAV:   2    -0.621358458081E+02   -0.10317E-03   -0.19510E-03 17408   0.271E-01    0.746E-02
DAV:   3    -0.621358079765E+02    0.37832E-04   -0.40105E-05  9076   0.481E-02
   2 F= -.62135808E+02 E0= -.62136146E+02  d E =-.411999E-03
 trial-energy change:   -0.000412  1 .order   -0.000473   -0.001580    0.000634
 step:   0.7135(harm=  0.7135)  dis= 0.00184  next Energy=   -62.135960 (dE=-0.564E-03)
 bond charge predicted
       N       E                     dE             d eps       ncg     rms          rms(c)
DAV:   1    -0.621359165633E+02   -0.70755E-04   -0.34163E-03 14084   0.350E-01    0.257E-02
DAV:   2    -0.621359341946E+02   -0.17631E-04   -0.25946E-04 12380   0.953E-02
   3 F= -.62135934E+02 E0= -.62136272E+02  d E =-.538217E-03
 curvature:  -0.36 expect dE=-0.603E-03 dE for cont linesearch -0.563E-05
 trial: gam= 1.16969 g(F)=  0.157E-02 g(S)=  0.117E-03 ort =-0.158E-03 (trialstep = 0.428E+00)
 search vector abs. value=  0.348E-02
 reached required accuracy - stopping structural energy minimisation
