unknown system                          
           1
     5.482794   -0.255287   -0.581758
     0.364312    5.003429   -0.581584
     0.292048   -0.548357    4.959695
   H    Nb   H    Sr
  11   1   4   1
Direct configuration=     1
   0.93001561  0.15614252  0.20137514
   0.04160233  0.24221566  0.21109775
   0.33479684  0.44387922  0.98861292
   0.63939433  0.11075395  0.95249424
   0.07249300  0.24720804  0.66821893
   0.46408975  0.82043951  0.65618160
   0.09421390  0.13258246  0.77765719
   0.34024743  0.03961471  0.28994752
   0.30002699  0.91557019  0.36338948
   0.27277053  0.02024547  0.92187936
   0.93302584  0.77252624  0.97233128
   0.41949272  0.17689526  0.68782659
   0.04005808  0.67608935  0.98309763
   0.31463223  0.41538718  0.47083655
   0.64846443  0.43621899  0.75214062
   0.68772981  0.06966292  0.46747276
   0.67390019  0.55688334  0.28429644
unknown system                          
           1
     5.484264   -0.256307   -0.582997
     0.363658    5.002695   -0.580812
     0.290989   -0.547641    4.958257
   H    Nb   H    Sr
  11   1   4   1
Direct configuration=     2
   0.93037605  0.15657328  0.20100724
   0.04123036  0.24215272  0.21138056
   0.33489565  0.44393253  0.98858526
   0.63932025  0.11083107  0.95258398
   0.07291407  0.24708732  0.66831089
   0.46426921  0.82056368  0.65633841
   0.09448193  0.13252585  0.77771844
   0.34017038  0.03948491  0.28995524
   0.30002579  0.91533181  0.36352968
   0.27286994  0.02023102  0.92200997
   0.93239688  0.77297692  0.97202317
   0.41944180  0.17700436  0.68770760
   0.04037772  0.67572974  0.98297428
   0.31477440  0.41519777  0.47075202
   0.64828449  0.43606249  0.75212417
   0.68746761  0.06970877  0.46751420
   0.67365744  0.55692076  0.28434090
unknown system                          
           1
     5.483843   -0.256015   -0.582642
     0.363845    5.002905   -0.581033
     0.291292   -0.547846    4.958669
   H    Nb   H    Sr
  11   1   4   1
Direct configuration=     3
   0.93027284  0.15644983  0.20111265
   0.04133687  0.24217078  0.21129955
   0.33486735  0.44391725  0.98859318
   0.63934146  0.11080898  0.95255827
   0.07279349  0.24712188  0.66828451
   0.46421781  0.82052810  0.65629347
   0.09440517  0.13254205  0.77770087
   0.34019245  0.03952210  0.28995303
   0.30002614  0.91540011  0.36348950
   0.27284147  0.02023515  0.92197254
   0.93257700  0.77284783  0.97211152
   0.41945639  0.17697310  0.68774171
   0.04028620  0.67583274  0.98300959
   0.31473369  0.41525202  0.47077623
   0.64833603  0.43610734  0.75212889
   0.68754269  0.06969565  0.46750234
   0.67372696  0.55691006  0.28432817
