  12  12   0   0
  0.1058940E+02  0.5764959E-09  0.4239451E-09  0.7663605E-09  0.5000000E-15
  1.000000000000000E-004
  CAR 
 unknown system                          
      9.75476023    -34.92204152  301      3.42172057      1.00000000
    -34.922  0.0000E+00  0.0000E+00
    -34.773  0.0000E+00  0.0000E+00
    -34.624  0.0000E+00  0.0000E+00
    -34.475  0.0000E+00  0.0000E+00
    -34.326  0.0000E+00  0.0000E+00
    -34.177  0.0000E+00  0.0000E+00
    -34.029  0.0000E+00  0.0000E+00
    -33.880  0.0000E+00  0.0000E+00
    -33.731  0.9248E-30  0.1377E-30
    -33.582  0.4911E-20  0.7313E-21
    -33.433  0.2704E-12  0.4026E-13
    -33.284  0.1356E-06  0.2019E-07
    -33.135  0.3892E-03  0.5798E-04
    -32.986 -0.9817E-02 -0.1404E-02
    -32.837  0.2154E+00  0.3068E-01
    -32.688  0.2518E+00  0.6818E-01
    -32.539 -0.1073E-01  0.6658E-01
    -32.390  0.5865E-03  0.6667E-01
    -32.241  0.3620E-06  0.6667E-01
    -32.093  0.1154E-11  0.6667E-01
    -31.944  0.0000E+00  0.6667E-01
    -31.795  0.0000E+00  0.6667E-01
    -31.646  0.0000E+00  0.6667E-01
    -31.497  0.0000E+00  0.6667E-01
    -31.348  0.0000E+00  0.6667E-01
    -31.199  0.0000E+00  0.6667E-01
    -31.050  0.0000E+00  0.6667E-01
    -30.901  0.0000E+00  0.6667E-01
    -30.752  0.0000E+00  0.6667E-01
    -30.603  0.0000E+00  0.6667E-01
    -30.454  0.0000E+00  0.6667E-01
    -30.305  0.0000E+00  0.6667E-01
    -30.157  0.0000E+00  0.6667E-01
    -30.008  0.0000E+00  0.6667E-01
    -29.859  0.0000E+00  0.6667E-01
    -29.710  0.0000E+00  0.6667E-01
    -29.561  0.0000E+00  0.6667E-01
    -29.412  0.1316E-32  0.6667E-01
    -29.263  0.2424E-22  0.6667E-01
    -29.114  0.4605E-14  0.6667E-01
    -28.965  0.8105E-08  0.6667E-01
    -28.816  0.9601E-04  0.6668E-01
    -28.667 -0.3753E-02  0.6612E-01
    -28.518  0.1293E+00  0.8538E-01
    -28.369  0.1008E+00  0.1004E+00
    -28.221 -0.1880E-01  0.9759E-01
    -28.072  0.3867E+00  0.1552E+00
    -27.923  0.7731E-01  0.1667E+00
    -27.774 -0.2265E-03  0.1667E+00
    -27.625  0.5316E-04  0.1667E+00
    -27.476  0.4060E-08  0.1667E+00
    -27.327  0.2437E-14  0.1667E+00
    -27.178  0.0000E+00  0.1667E+00
    -27.029  0.0000E+00  0.1667E+00
    -26.880  0.0000E+00  0.1667E+00
    -26.731  0.0000E+00  0.1667E+00
    -26.582  0.0000E+00  0.1667E+00
    -26.433  0.0000E+00  0.1667E+00
    -26.285  0.0000E+00  0.1667E+00
    -26.136  0.0000E+00  0.1667E+00
    -25.987  0.0000E+00  0.1667E+00
    -25.838  0.0000E+00  0.1667E+00
    -25.689  0.0000E+00  0.1667E+00
    -25.540  0.0000E+00  0.1667E+00
    -25.391  0.0000E+00  0.1667E+00
    -25.242  0.0000E+00  0.1667E+00
    -25.093  0.0000E+00  0.1667E+00
    -24.944  0.0000E+00  0.1667E+00
    -24.795  0.0000E+00  0.1667E+00
    -24.646  0.0000E+00  0.1667E+00
    -24.497  0.0000E+00  0.1667E+00
    -24.349  0.0000E+00  0.1667E+00
    -24.200  0.0000E+00  0.1667E+00
    -24.051  0.0000E+00  0.1667E+00
    -23.902  0.0000E+00  0.1667E+00
    -23.753  0.0000E+00  0.1667E+00
    -23.604  0.0000E+00  0.1667E+00
    -23.455  0.0000E+00  0.1667E+00
    -23.306  0.0000E+00  0.1667E+00
    -23.157  0.0000E+00  0.1667E+00
    -23.008  0.0000E+00  0.1667E+00
    -22.859  0.0000E+00  0.1667E+00
    -22.710  0.0000E+00  0.1667E+00
    -22.561  0.0000E+00  0.1667E+00
    -22.413  0.0000E+00  0.1667E+00
    -22.264  0.0000E+00  0.1667E+00
    -22.115  0.0000E+00  0.1667E+00
    -21.966  0.0000E+00  0.1667E+00
    -21.817  0.0000E+00  0.1667E+00
    -21.668  0.0000E+00  0.1667E+00
    -21.519  0.0000E+00  0.1667E+00
    -21.370  0.0000E+00  0.1667E+00
    -21.221  0.0000E+00  0.1667E+00
    -21.072  0.0000E+00  0.1667E+00
    -20.923  0.0000E+00  0.1667E+00
    -20.774  0.0000E+00  0.1667E+00
    -20.625  0.0000E+00  0.1667E+00
    -20.477  0.0000E+00  0.1667E+00
    -20.328  0.0000E+00  0.1667E+00
    -20.179  0.0000E+00  0.1667E+00
    -20.030  0.0000E+00  0.1667E+00
    -19.881  0.0000E+00  0.1667E+00
    -19.732  0.0000E+00  0.1667E+00
    -19.583  0.0000E+00  0.1667E+00
    -19.434  0.0000E+00  0.1667E+00
    -19.285  0.0000E+00  0.1667E+00
    -19.136  0.0000E+00  0.1667E+00
    -18.987  0.0000E+00  0.1667E+00
    -18.838  0.0000E+00  0.1667E+00
    -18.689  0.0000E+00  0.1667E+00
    -18.541  0.0000E+00  0.1667E+00
    -18.392  0.0000E+00  0.1667E+00
    -18.243  0.0000E+00  0.1667E+00
    -18.094  0.0000E+00  0.1667E+00
    -17.945  0.0000E+00  0.1667E+00
    -17.796  0.0000E+00  0.1667E+00
    -17.647  0.0000E+00  0.1667E+00
    -17.498  0.0000E+00  0.1667E+00
    -17.349  0.0000E+00  0.1667E+00
    -17.200  0.0000E+00  0.1667E+00
    -17.051  0.0000E+00  0.1667E+00
    -16.902  0.0000E+00  0.1667E+00
    -16.753  0.0000E+00  0.1667E+00
    -16.605  0.0000E+00  0.1667E+00
    -16.456  0.0000E+00  0.1667E+00
    -16.307  0.0000E+00  0.1667E+00
    -16.158  0.0000E+00  0.1667E+00
    -16.009  0.3805E-29  0.1667E+00
    -15.860  0.8398E-20  0.1667E+00
    -15.711  0.2068E-12  0.1667E+00
    -15.562  0.5612E-07  0.1667E+00
    -15.413  0.1474E-03  0.1667E+00
    -15.264 -0.2703E-02  0.1663E+00
    -15.115  0.1229E+00  0.1846E+00
    -14.966  0.5233E+00  0.2625E+00
    -14.817  0.5016E+00  0.3372E+00
    -14.669  0.1832E+00  0.3645E+00
    -14.520  0.1449E-01  0.3667E+00
    -14.371  0.2274E-04  0.3667E+00
    -14.222  0.1001E-04  0.3667E+00
    -14.073  0.5443E-09  0.3667E+00
    -13.924  0.2288E-15  0.3667E+00
    -13.775  0.0000E+00  0.3667E+00
    -13.626  0.0000E+00  0.3667E+00
    -13.477  0.0000E+00  0.3667E+00
    -13.328  0.0000E+00  0.3667E+00
    -13.179  0.0000E+00  0.3667E+00
    -13.030  0.0000E+00  0.3667E+00
    -12.881  0.0000E+00  0.3667E+00
    -12.733  0.0000E+00  0.3667E+00
    -12.584  0.0000E+00  0.3667E+00
    -12.435  0.0000E+00  0.3667E+00
    -12.286  0.0000E+00  0.3667E+00
    -12.137  0.0000E+00  0.3667E+00
    -11.988  0.0000E+00  0.3667E+00
    -11.839  0.0000E+00  0.3667E+00
    -11.690  0.0000E+00  0.3667E+00
    -11.541  0.0000E+00  0.3667E+00
    -11.392  0.0000E+00  0.3667E+00
    -11.243  0.0000E+00  0.3667E+00
    -11.094  0.0000E+00  0.3667E+00
    -10.945  0.0000E+00  0.3667E+00
    -10.797  0.0000E+00  0.3667E+00
    -10.648  0.0000E+00  0.3667E+00
    -10.499  0.0000E+00  0.3667E+00
    -10.350  0.0000E+00  0.3667E+00
    -10.201  0.0000E+00  0.3667E+00
    -10.052  0.0000E+00  0.3667E+00
     -9.903  0.0000E+00  0.3667E+00
     -9.754  0.0000E+00  0.3667E+00
     -9.605  0.0000E+00  0.3667E+00
     -9.456  0.0000E+00  0.3667E+00
     -9.307  0.0000E+00  0.3667E+00
     -9.158  0.0000E+00  0.3667E+00
     -9.009  0.0000E+00  0.3667E+00
     -8.861  0.0000E+00  0.3667E+00
     -8.712  0.0000E+00  0.3667E+00
     -8.563  0.0000E+00  0.3667E+00
     -8.414  0.0000E+00  0.3667E+00
     -8.265  0.0000E+00  0.3667E+00
     -8.116  0.0000E+00  0.3667E+00
     -7.967  0.1933E-34  0.3667E+00
     -7.818  0.2464E-24  0.3667E+00
     -7.669  0.3381E-16  0.3667E+00
     -7.520  0.4875E-10  0.3667E+00
     -7.371  0.6851E-06  0.3667E+00
     -7.222  0.3024E-04  0.3667E+00
     -7.074  0.6689E-03  0.3668E+00
     -6.925  0.2081E-01  0.3699E+00
     -6.776  0.4641E-01  0.3768E+00
     -6.627  0.9009E-01  0.3902E+00
     -6.478  0.6505E-01  0.3999E+00
     -6.329  0.5991E-03  0.4000E+00
     -6.180  0.1650E-03  0.4000E+00
     -6.031  0.9401E-06  0.4000E+00
     -5.882  0.1907E-10  0.4000E+00
     -5.733  0.6529E-16  0.4000E+00
     -5.584  0.7178E-10  0.4000E+00
     -5.435  0.5904E-06  0.4000E+00
     -5.286 -0.6561E-05  0.4000E+00
     -5.138  0.6102E-03  0.4001E+00
     -4.989  0.4817E-02  0.4008E+00
     -4.840  0.9057E-02  0.4022E+00
     -4.691  0.1519E-01  0.4044E+00
     -4.542  0.1440E-01  0.4066E+00
     -4.393  0.1408E-01  0.4087E+00
     -4.244  0.2036E-01  0.4117E+00
     -4.095  0.1711E-01  0.4142E+00
     -3.946  0.2275E-01  0.4176E+00
     -3.797  0.2565E-01  0.4214E+00
     -3.648  0.2361E-01  0.4250E+00
     -3.499  0.2520E-01  0.4287E+00
     -3.350  0.2457E-01  0.4324E+00
     -3.202  0.6987E-02  0.4334E+00
     -3.053  0.7366E-02  0.4345E+00
     -2.904  0.1724E-01  0.4371E+00
     -2.755  0.2277E-01  0.4405E+00
     -2.606  0.3700E-01  0.4460E+00
     -2.457  0.3008E-01  0.4505E+00
     -2.308  0.3693E-01  0.4560E+00
     -2.159  0.6038E-01  0.4650E+00
     -2.010  0.7749E-01  0.4765E+00
     -1.861  0.1121E+00  0.4932E+00
     -1.712  0.1625E+00  0.5174E+00
     -1.563  0.8807E-01  0.5305E+00
     -1.414  0.3630E-01  0.5359E+00
     -1.266  0.3389E-01  0.5410E+00
     -1.117  0.4312E-01  0.5474E+00
     -0.968  0.4962E-01  0.5548E+00
     -0.819  0.5546E-01  0.5630E+00
     -0.670  0.6480E-01  0.5727E+00
     -0.521  0.5599E-01  0.5810E+00
     -0.372  0.1339E+00  0.6010E+00
     -0.223  0.7985E-01  0.6129E+00
     -0.074  0.5283E-01  0.6207E+00
      0.075  0.2850E-01  0.6250E+00
      0.224  0.2833E-01  0.6292E+00
      0.373  0.1177E-01  0.6309E+00
      0.522  0.1445E-01  0.6331E+00
      0.670  0.1663E-02  0.6333E+00
      0.819 -0.2843E-04  0.6333E+00
      0.968  0.3614E-05  0.6333E+00
      1.117 -0.1491E-04  0.6333E+00
      1.266  0.9754E-03  0.6335E+00
      1.415  0.4812E-02  0.6342E+00
      1.564  0.1090E-01  0.6358E+00
      1.713  0.7815E-02  0.6370E+00
      1.862  0.1804E-01  0.6397E+00
      2.011  0.1029E-01  0.6412E+00
      2.160  0.1785E-01  0.6439E+00
      2.309  0.2183E-01  0.6471E+00
      2.458  0.2115E-01  0.6503E+00
      2.606  0.2286E-01  0.6537E+00
      2.755  0.1880E-01  0.6565E+00
      2.904  0.1966E-01  0.6594E+00
      3.053  0.2218E-01  0.6627E+00
      3.202  0.7398E-02  0.6638E+00
      3.351  0.1230E-01  0.6656E+00
      3.500  0.3718E-01  0.6712E+00
      3.649  0.9033E-01  0.6846E+00
      3.798  0.6051E-01  0.6936E+00
      3.947  0.4719E-01  0.7007E+00
      4.096  0.7410E-01  0.7117E+00
      4.245  0.8255E-01  0.7240E+00
      4.394  0.1123E+00  0.7407E+00
      4.542  0.8933E-01  0.7540E+00
      4.691  0.6745E-01  0.7640E+00
      4.840  0.4623E-01  0.7709E+00
      4.989  0.6807E-01  0.7811E+00
      5.138  0.7502E-01  0.7922E+00
      5.287  0.7880E-01  0.8040E+00
      5.436  0.7241E-01  0.8148E+00
      5.585  0.8990E-01  0.8281E+00
      5.734  0.8610E-01  0.8410E+00
      5.883  0.8662E-01  0.8539E+00
      6.032  0.6943E-01  0.8642E+00
      6.181  0.6690E-01  0.8742E+00
      6.330  0.4460E-01  0.8808E+00
      6.478  0.4701E-01  0.8878E+00
      6.627  0.6767E-01  0.8979E+00
      6.776  0.6398E-01  0.9074E+00
      6.925  0.5151E-01  0.9151E+00
      7.074  0.4543E-01  0.9219E+00
      7.223  0.3910E-01  0.9277E+00
      7.372  0.2212E-01  0.9310E+00
      7.521  0.1228E-01  0.9328E+00
      7.670  0.2695E-02  0.9332E+00
      7.819  0.8831E-03  0.9333E+00
      7.968 -0.2847E-04  0.9333E+00
      8.117  0.1704E-05  0.9333E+00
      8.266  0.8645E-09  0.9333E+00
      8.414  0.2322E-14  0.9333E+00
      8.563  0.0000E+00  0.9333E+00
      8.712  0.0000E+00  0.9333E+00
      8.861  0.0000E+00  0.9333E+00
      9.010  0.0000E+00  0.9333E+00
      9.159  0.0000E+00  0.9333E+00
      9.308  0.0000E+00  0.9333E+00
      9.457  0.0000E+00  0.9333E+00
      9.606  0.0000E+00  0.9333E+00
      9.755  0.0000E+00  0.9333E+00
