   24   24   60    1
  0.5652315E+01  0.4739248E-09  0.4753496E-09  0.6541550E-09  0.5000000E-15
  1.000000000000000E-004
  CAR 
 unknown system                          
     24    284     28
 
  0.3742002E-15  0.3742002E-15  0.3742002E-15  0.1763668E-02
    1      -12.611646   1.000000
    2      -10.813396   1.000000
    3       -9.209952   1.000000
    4       -7.866045   1.000000
    5       -7.712343   1.000000
    6       -7.326659   1.000000
    7       -6.818054   1.000000
    8       -6.437711   1.000000
    9       -5.872028   1.000000
   10       -4.729696   1.000000
   11       -4.611072   1.000000
   12       -4.259077   1.000000
   13       -3.757697   1.000000
   14        2.669319   0.000000
   15        2.905744   0.000000
   16        3.625188   0.000000
   17        4.455891   0.000000
   18        5.024931   0.000000
   19        5.461330   0.000000
   20        6.129609   0.000000
   21        6.952332   0.000000
   22        7.951922   0.000000
   23        8.180674   0.000000
   24        8.757189   0.000000
   25        9.426622   0.000000
   26        9.751857   0.000000
   27       10.389955   0.000000
   28       10.649833   0.000000
 
  0.1111111E+00  0.3757845E-15  0.3747003E-15  0.3527337E-02
    1      -12.548710   1.000000
    2      -10.777977   1.000000
    3       -9.176482   1.000000
    4       -8.071024   1.000000
    5       -7.660666   1.000000
    6       -7.417455   1.000000
    7       -6.815052   1.000000
    8       -6.410863   1.000000
    9       -5.919638   1.000000
   10       -5.565766   1.000000
   11       -4.449691   1.000000
   12       -4.037508   1.000000
   13       -3.048404   1.000000
   14        2.731682   0.000000
   15        3.171450   0.000000
   16        3.688905   0.000000
   17        4.420629   0.000000
   18        4.770661   0.000000
   19        5.511754   0.000000
   20        6.192253   0.000000
   21        6.911377   0.000000
   22        7.608208   0.000000
   23        8.353615   0.000000
   24        8.931515   0.000000
   25        9.467717   0.000000
   26        9.790218   0.000000
   27       10.290573   0.000000
   28       10.644519   0.000000
 
  0.2222222E+00  0.3755676E-15  0.3885781E-15  0.3527337E-02
    1      -12.371993   1.000000
    2      -10.690701   1.000000
    3       -9.136049   1.000000
    4       -8.522254   1.000000
    5       -7.713058   1.000000
    6       -7.490976   1.000000
    7       -6.790631   1.000000
    8       -6.371108   1.000000
    9       -6.323705   1.000000
   10       -6.001311   1.000000
   11       -4.441705   1.000000
   12       -4.163369   1.000000
   13       -1.538506   1.045426
   14        2.978869   0.000000
   15        3.626381   0.000000
   16        3.879332   0.000000
   17        4.388177   0.000000
   18        4.583577   0.000000
   19        5.380756   0.000000
   20        6.234632   0.000000
   21        6.868267   0.000000
   22        7.057497   0.000000
   23        8.284915   0.000000
   24        9.172208   0.000000
   25        9.500145   0.000000
   26        9.638754   0.000000
   27       10.043039   0.000000
   28       10.469561   0.000000
 
  0.3333333E+00  0.3651593E-15  0.3608225E-15  0.3527337E-02
    1      -12.113115   1.000000
    2      -10.572745   1.000000
    3       -9.410811   1.000000
    4       -8.718631   1.000000
    5       -7.915709   1.000000
    6       -7.312995   1.000000
    7       -6.907666   1.000000
    8       -6.721558   1.000000
    9       -6.367870   1.000000
   10       -6.115394   1.000000
   11       -4.461740   1.000000
   12       -4.320543   1.000000
   13        0.211904   0.000000
   14        3.208820   0.000000
   15        3.743467   0.000000
   16        4.157373   0.000000
   17        4.339064   0.000000
   18        5.136307   0.000000
   19        5.228233   0.000000
   20        6.013203   0.000000
   21        6.572826   0.000000
   22        6.869353   0.000000
   23        7.062202   0.000000
   24        8.316691   0.000000
   25        9.448281   0.000000
   26        9.900434   0.000000
   27       10.204079   0.000000
   28       10.572336   0.000000
 
  0.4444444E+00  0.3720982E-15  0.3608225E-15  0.3527337E-02
    1      -11.881225   1.000000
    2      -10.487684   1.000000
    3       -9.789190   1.000000
    4       -8.728684   1.000000
    5       -7.876096   1.000000
    6       -7.421412   1.000000
    7       -7.008948   1.000000
    8       -6.727055   1.000000
    9       -6.522684   1.000000
   10       -6.099095   1.000000
   11       -4.530638   1.000000
   12       -4.376260   1.000000
   13        2.106262   0.000000
   14        3.327575   0.000000
   15        3.579624   0.000000
   16        4.153677   0.000000
   17        4.299255   0.000000
   18        4.686119   0.000000
   19        5.306637   0.000000
   20        5.712273   0.000000
   21        6.298997   0.000000
   22        6.765955   0.000000
   23        7.046000   0.000000
   24        8.006904   0.000000
   25        8.832526   0.000000
   26        9.394861   0.000000
   27       10.334449   0.000000
   28       10.697584   0.000000
 
  0.3741921E-15  0.1111111E+00  0.3816392E-15  0.3527337E-02
    1      -12.547260   1.000000
    2      -10.790623   1.000000
    3       -9.182669   1.000000
    4       -7.859161   1.000000
    5       -7.830467   1.000000
    6       -7.425792   1.000000
    7       -7.110882   1.000000
    8       -6.180004   1.000000
    9       -5.904474   1.000000
   10       -5.284494   1.000000
   11       -4.705693   1.000000
   12       -4.144816   1.000000
   13       -2.925807   1.000000
   14        2.699944   0.000000
   15        2.945004   0.000000
   16        3.705523   0.000000
   17        4.416881   0.000000
   18        5.038551   0.000000
   19        5.561062   0.000000
   20        6.123388   0.000000
   21        6.930955   0.000000
   22        7.876607   0.000000
   23        8.263822   0.000000
   24        8.527344   0.000000
   25        9.463118   0.000000
   26        9.820484   0.000000
   27       10.205349   0.000000
   28       10.873841   0.000000
 
  0.1111111E+00  0.1111111E+00  0.3747003E-15  0.3527337E-02
    1      -12.486224   1.000000
    2      -10.775767   1.000000
    3       -9.157422   1.000000
    4       -8.028128   1.000000
    5       -7.770522   1.000000
    6       -7.410256   1.000000
    7       -7.045645   1.000000
    8       -6.280418   1.000000
    9       -5.991338   1.000000
   10       -5.749240   1.000000
   11       -5.103811   1.000000
   12       -3.151828   1.000000
   13       -2.872340   1.000000
   14        2.750264   0.000000
   15        3.201852   0.000000
   16        3.618422   0.000000
   17        4.371920   0.000000
   18        4.852862   0.000000
   19        5.615172   0.000000
   20        6.308686   0.000000
   21        6.860862   0.000000
   22        7.779917   0.000000
   23        8.350509   0.000000
   24        8.864528   0.000000
   25        9.388098   0.000000
   26       10.056096   0.000000
   27       10.730155   0.000000
   28       10.925274   0.000000
 
  0.2222222E+00  0.1111111E+00  0.3885781E-15  0.3527337E-02
    1      -12.302303   1.000000
    2      -10.690059   1.000000
    3       -9.135536   1.000000
    4       -8.430693   1.000000
    5       -7.686532   1.000000
    6       -7.520492   1.000000
    7       -6.900733   1.000000
    8       -6.487884   1.000000
    9       -6.396391   1.000000
   10       -6.141128   1.000000
   11       -5.210195   1.000000
   12       -3.006504   1.000000
   13       -1.524569   1.051586
   14        3.001375   0.000000
   15        3.602488   0.000000
   16        3.757853   0.000000
   17        4.355050   0.000000
   18        4.761618   0.000000
   19        5.453304   0.000000
   20        6.533111   0.000000
   21        6.734582   0.000000
   22        7.273047   0.000000
   23        8.430769   0.000000
   24        9.185800   0.000000
   25        9.364335   0.000000
   26        9.637979   0.000000
   27       10.268661   0.000000
   28       11.031688   0.000000
 
  0.3333333E+00  0.1111111E+00  0.3608225E-15  0.3527337E-02
    1      -12.040576   1.000000
    2      -10.565402   1.000000
    3       -9.416476   1.000000
    4       -8.617508   1.000000
    5       -7.842633   1.000000
    6       -7.391028   1.000000
    7       -7.012711   1.000000
    8       -6.681231   1.000000
    9       -6.588737   1.000000
   10       -6.361887   1.000000
   11       -5.268447   1.000000
   12       -3.062280   1.000000
   13        0.218742   0.000000
   14        3.273961   0.000000
   15        3.624057   0.000000
   16        4.121908   0.000000
   17        4.485887   0.000000
   18        5.161599   0.000000
   19        5.327059   0.000000
   20        6.130413   0.000000
   21        6.629752   0.000000
   22        6.970048   0.000000
   23        7.208665   0.000000
   24        8.479614   0.000000
   25        9.378799   0.000000
   26        9.783983   0.000000
   27       10.086295   0.000000
   28       10.945074   0.000000
 
  0.4444444E+00  0.1111111E+00  0.3330669E-15  0.3527337E-02
    1      -11.803277   1.000000
    2      -10.454088   1.000000
    3       -9.781151   1.000000
    4       -8.664438   1.000000
    5       -7.831613   1.000000
    6       -7.493478   1.000000
    7       -7.135975   1.000000
    8       -6.853326   1.000000
    9       -6.584830   1.000000
   10       -6.343220   1.000000
   11       -5.298905   1.000000
   12       -3.110588   1.000000
   13        2.114261   0.000000
   14        3.449839   0.000000
   15        3.530750   0.000000
   16        4.253513   0.000000
   17        4.441495   0.000000
   18        4.638401   0.000000
   19        5.248944   0.000000
   20        5.887908   0.000000
   21        6.428039   0.000000
   22        6.788217   0.000000
   23        6.986281   0.000000
   24        8.131195   0.000000
   25        8.881254   0.000000
   26        9.460896   0.000000
   27        9.914293   0.000000
   28       10.880848   0.000000
 
 -0.4444444E+00  0.1111111E+00  0.3330669E-15  0.3527337E-02
    1      -11.802546   1.000000
    2      -10.436383   1.000000
    3       -9.742363   1.000000
    4       -8.733250   1.000000
    5       -7.899887   1.000000
    6       -7.421831   1.000000
    7       -7.208979   1.000000
    8       -7.024764   1.000000
    9       -6.519317   1.000000
   10       -6.108285   1.000000
   11       -5.289546   1.000000
   12       -3.127376   1.000000
   13        2.141287   0.000000
   14        3.411906   0.000000
   15        3.774798   0.000000
   16        4.150819   0.000000
   17        4.398131   0.000000
   18        4.807940   0.000000
   19        5.212826   0.000000
   20        5.712518   0.000000
   21        6.168234   0.000000
   22        6.898928   0.000000
   23        7.185426   0.000000
   24        7.946352   0.000000
   25        8.795480   0.000000
   26        9.338841   0.000000
   27        9.703837   0.000000
   28       10.856969   0.000000
 
 -0.3333333E+00  0.1111111E+00  0.3608225E-15  0.3527337E-02
    1      -12.037641   1.000000
    2      -10.510463   1.000000
    3       -9.322358   1.000000
    4       -8.769063   1.000000
    5       -7.961185   1.000000
    6       -7.475440   1.000000
    7       -7.253736   1.000000
    8       -6.848116   1.000000
    9       -6.306765   1.000000
   10       -5.956055   1.000000
   11       -5.233025   1.000000
   12       -3.108728   1.000000
   13        0.238492   0.000000
   14        3.347641   0.000000
   15        3.914302   0.000000
   16        4.309556   0.000000
   17        4.470992   0.000000
   18        5.083594   0.000000
   19        5.248084   0.000000
   20        5.822922   0.000000
   21        6.461080   0.000000
   22        6.951180   0.000000
   23        7.170478   0.000000
   24        8.197654   0.000000
   25        9.082369   0.000000
   26        9.556602   0.000000
   27       10.023115   0.000000
   28       10.263731   0.000000
 
 -0.2222222E+00  0.1111111E+00  0.3677614E-15  0.3527337E-02
    1      -12.301318   1.000000
    2      -10.633257   1.000000
    3       -9.069469   1.000000
    4       -8.530332   1.000000
    5       -7.785373   1.000000
    6       -7.661059   1.000000
    7       -7.317096   1.000000
    8       -6.315103   1.000000
    9       -6.153974   1.000000
   10       -5.878576   1.000000
   11       -5.147903   1.000000
   12       -3.057538   1.000000
   13       -1.522721   1.051604
   14        3.130938   0.000000
   15        3.658723   0.000000
   16        4.019956   0.000000
   17        4.554073   0.000000
   18        4.703629   0.000000
   19        5.391814   0.000000
   20        5.789684   0.000000
   21        7.014654   0.000000
   22        7.234226   0.000000
   23        7.999534   0.000000
   24        8.771823   0.000000
   25        9.094386   0.000000
   26        9.376067   0.000000
   27        9.838074   0.000000
   28       10.418273   0.000000
 
 -0.1111111E+00  0.1111111E+00  0.3792539E-15  0.3527337E-02
    1      -12.482618   1.000000
    2      -10.737207   1.000000
    3       -9.139021   1.000000
    4       -8.047986   1.000000
    5       -7.807729   1.000000
    6       -7.540139   1.000000
    7       -7.245298   1.000000
    8       -6.128687   1.000000
    9       -5.911564   1.000000
   10       -5.570608   1.000000
   11       -5.067806   1.000000
   12       -3.156231   1.000000
   13       -2.912991   1.000000
   14        2.816115   0.000000
   15        3.200366   0.000000
   16        3.857197   0.000000
   17        4.417263   0.000000
   18        4.912893   0.000000
   19        5.495352   0.000000
   20        5.993369   0.000000
   21        7.035548   0.000000
   22        7.617013   0.000000
   23        8.124500   0.000000
   24        8.428693   0.000000
   25        9.391292   0.000000
   26        9.769107   0.000000
   27       10.036542   0.000000
   28       10.772664   0.000000
 
  0.3752424E-15  0.2222222E+00  0.3747003E-15  0.3527337E-02
    1      -12.356910   1.000000
    2      -10.729387   1.000000
    3       -9.137741   1.000000
    4       -8.369876   1.000000
    5       -7.897227   1.000000
    6       -7.529514   1.000000
    7       -7.099675   1.000000
    8       -6.083218   1.000000
    9       -6.018033   1.000000
   10       -5.921902   1.000000
   11       -4.661834   1.000000
   12       -4.172988   1.000000
   13       -1.453073   0.756033
   14        2.717817   0.000000
   15        3.059598   0.000000
   16        3.951817   0.000000
   17        4.187145   0.000000
   18        5.387015   0.000000
   19        5.652858   0.000000
   20        6.138453   0.000000
   21        6.912686   0.000000
   22        7.701253   0.000000
   23        8.047175   0.000000
   24        8.719991   0.000000
   25        9.182923   0.000000
   26        9.291598   0.000000
   27        9.888097   0.000000
   28       10.431349   0.000000
 
  0.1111111E+00  0.2222222E+00  0.3608225E-15  0.3527337E-02
    1      -12.292031   1.000000
    2      -10.723330   1.000000
    3       -9.121926   1.000000
    4       -8.302244   1.000000
    5       -7.937721   1.000000
    6       -7.502329   1.000000
    7       -7.085163   1.000000
    8       -6.310522   1.000000
    9       -6.244897   1.000000
   10       -5.949387   1.000000
   11       -5.378917   1.000000
   12       -3.063480   1.000000
   13       -1.458112   0.800262
   14        2.863683   0.000000
   15        3.170615   0.000000
   16        3.746610   0.000000
   17        4.232109   0.000000
   18        5.206046   0.000000
   19        5.749651   0.000000
   20        6.355530   0.000000
   21        6.967438   0.000000
   22        7.874016   0.000000
   23        8.309500   0.000000
   24        8.673428   0.000000
   25        9.257702   0.000000
   26        9.412329   0.000000
   27       10.246710   0.000000
   28       10.774570   0.000000
 
  0.2222222E+00  0.2222222E+00  0.3330669E-15  0.3527337E-02
    1      -12.104990   1.000000
    2      -10.640598   1.000000
    3       -9.094022   1.000000
    4       -8.383046   1.000000
    5       -8.057326   1.000000
    6       -7.528057   1.000000
    7       -7.129939   1.000000
    8       -6.732679   1.000000
    9       -6.593816   1.000000
   10       -6.163034   1.000000
   11       -5.615780   1.000000
   12       -1.575189   1.012749
   13       -1.419856   0.418119
   14        3.134274   0.000000
   15        3.535525   0.000000
   16        3.842895   0.000000
   17        4.309914   0.000000
   18        5.116639   0.000000
   19        5.709679   0.000000
   20        6.474284   0.000000
   21        7.001483   0.000000
   22        7.543217   0.000000
   23        8.492134   0.000000
   24        8.817552   0.000000
   25        9.231711   0.000000
   26        9.406445   0.000000
   27        9.639833   0.000000
   28       10.353673   0.000000
 
  0.3333333E+00  0.2222222E+00  0.3885781E-15  0.3527337E-02
    1      -11.830771   1.000000
    2      -10.499039   1.000000
    3       -9.330295   1.000000
    4       -8.577408   1.000000
    5       -7.903870   1.000000
    6       -7.760434   1.000000
    7       -7.195439   1.000000
    8       -6.967840   1.000000
    9       -6.824704   1.000000
   10       -6.447924   1.000000
   11       -5.642429   1.000000
   12       -1.508015   1.041753
   13        0.246684   0.000000
   14        3.400765   0.000000
   15        3.637941   0.000000
   16        4.252283   0.000000
   17        4.721652   0.000000
   18        5.189014   0.000000
   19        5.570271   0.000000
   20        6.337097   0.000000
   21        6.642412   0.000000
   22        7.263948   0.000000
   23        7.355538   0.000000
   24        8.601205   0.000000
   25        9.020311   0.000000
   26        9.259961   0.000000
   27        9.462392   0.000000
   28       10.369752   0.000000
 
  0.4444444E+00  0.2222222E+00  0.3608225E-15  0.3527337E-02
    1      -11.573876   1.000000
    2      -10.347235   1.000000
    3       -9.713273   1.000000
    4       -8.609283   1.000000
    5       -7.928278   1.000000
    6       -7.776833   1.000000
    7       -7.422867   1.000000
    8       -7.189867   1.000000
    9       -6.716366   1.000000
   10       -6.528559   1.000000
   11       -5.654533   1.000000
   12       -1.517933   1.050493
   13        2.150492   0.000000
   14        3.494012   0.000000
   15        3.778850   0.000000
   16        4.380977   0.000000
   17        4.695202   0.000000
   18        4.791116   0.000000
   19        5.236832   0.000000
   20        6.120476   0.000000
   21        6.528622   0.000000
   22        6.795392   0.000000
   23        7.209371   0.000000
   24        8.219238   0.000000
   25        8.889965   0.000000
   26        9.105766   0.000000
   27        9.358172   0.000000
   28        9.930963   0.000000
 
 -0.4444444E+00  0.2222222E+00  0.3469447E-15  0.3527337E-02
    1      -11.569817   1.000000
    2      -10.310270   1.000000
    3       -9.659924   1.000000
    4       -8.722761   1.000000
    5       -8.025620   1.000000
    6       -7.760461   1.000000
    7       -7.442705   1.000000
    8       -7.367286   1.000000
    9       -6.638622   1.000000
   10       -6.238235   1.000000
   11       -5.675501   1.000000
   12       -1.517900   1.050479
   13        2.198230   0.000000
   14        3.638084   0.000000
   15        3.866339   0.000000
   16        4.310980   0.000000
   17        4.724381   0.000000
   18        4.901925   0.000000
   19        5.174181   0.000000
   20        5.748852   0.000000
   21        6.356381   0.000000
   22        7.064672   0.000000
   23        7.423717   0.000000
   24        7.832637   0.000000
   25        8.688384   0.000000
   26        8.812598   0.000000
   27        9.342832   0.000000
   28        9.832240   0.000000
 
 -0.3333333E+00  0.2222222E+00  0.3469447E-15  0.3527337E-02
    1      -11.824218   1.000000
    2      -10.394577   1.000000
    3       -9.193352   1.000000
    4       -8.778800   1.000000
    5       -8.170112   1.000000
    6       -7.789645   1.000000
    7       -7.654033   1.000000
    8       -7.012880   1.000000
    9       -6.350234   1.000000
   10       -5.988242   1.000000
   11       -5.708041   1.000000
   12       -1.510122   1.044431
   13        0.284466   0.000000
   14        3.567823   0.000000
   15        4.007070   0.000000
   16        4.470028   0.000000
   17        4.875793   0.000000
   18        5.078566   0.000000
   19        5.422229   0.000000
   20        5.711254   0.000000
   21        6.527862   0.000000
   22        7.053807   0.000000
   23        7.336793   0.000000
   24        8.185151   0.000000
   25        8.566408   0.000000
   26        8.973864   0.000000
   27        9.412439   0.000000
   28       10.016934   0.000000
 
 -0.2222222E+00  0.2222222E+00  0.3733992E-15  0.3527337E-02
    1      -12.100608   1.000000
    2      -10.533647   1.000000
    3       -9.001910   1.000000
    4       -8.446957   1.000000
    5       -8.235425   1.000000
    6       -7.852399   1.000000
    7       -7.596015   1.000000
    8       -6.536603   1.000000
    9       -6.092041   1.000000
   10       -5.804786   1.000000
   11       -5.712404   1.000000
   12       -1.538025   1.045773
   13       -1.448213   0.710703
   14        3.258019   0.000000
   15        3.792227   0.000000
   16        4.062912   0.000000
   17        4.854095   0.000000
   18        5.149411   0.000000
   19        5.364295   0.000000
   20        5.600665   0.000000
   21        7.026387   0.000000
   22        7.369699   0.000000
   23        7.830074   0.000000
   24        8.409283   0.000000
   25        8.718510   0.000000
   26        9.137487   0.000000
   27        9.450212   0.000000
   28        9.755055   0.000000
 
 -0.1111111E+00  0.2222222E+00  0.3608225E-15  0.3527337E-02
    1      -12.289300   1.000000
    2      -10.659245   1.000000
    3       -9.084707   1.000000
    4       -8.367605   1.000000
    5       -7.958513   1.000000
    6       -7.765899   1.000000
    7       -7.305642   1.000000
    8       -6.139094   1.000000
    9       -5.998475   1.000000
   10       -5.845717   1.000000
   11       -5.311400   1.000000
   12       -3.078062   1.000000
   13       -1.463502   0.843991
   14        2.849181   0.000000
   15        3.355592   0.000000
   16        4.027482   0.000000
   17        4.387092   0.000000
   18        5.339148   0.000000
   19        5.526173   0.000000
   20        5.952739   0.000000
   21        6.993591   0.000000
   22        7.348627   0.000000
   23        7.848727   0.000000
   24        8.587667   0.000000
   25        8.988193   0.000000
   26        9.320052   0.000000
   27        9.719061   0.000000
   28       10.225433   0.000000
 
  0.3723421E-15  0.3333333E+00  0.3608225E-15  0.3527337E-02
    1      -12.077671   1.000000
    2      -10.656114   1.000000
    3       -9.367164   1.000000
    4       -8.773220   1.000000
    5       -7.989193   1.000000
    6       -7.355522   1.000000
    7       -6.982833   1.000000
    8       -6.527469   1.000000
    9       -6.230291   1.000000
   10       -6.035285   1.000000
   11       -4.614188   1.000000
   12       -4.205209   1.000000
   13        0.267362   0.000000
   14        2.688876   0.000000
   15        3.171203   0.000000
   16        3.733435   0.000000
   17        4.681086   0.000000
   18        5.497562   0.000000
   19        5.625798   0.000000
   20        6.260959   0.000000
   21        6.941434   0.000000
   22        7.110759   0.000000
   23        7.440181   0.000000
   24        8.274859   0.000000
   25        8.607933   0.000000
   26        9.717247   0.000000
   27       10.067475   0.000000
   28       10.488030   0.000000
 
  0.1111111E+00  0.3333333E+00  0.3608225E-15  0.3527337E-02
    1      -12.009421   1.000000
    2      -10.649431   1.000000
    3       -9.346704   1.000000
    4       -8.699689   1.000000
    5       -7.945384   1.000000
    6       -7.420551   1.000000
    7       -6.981330   1.000000
    8       -6.711611   1.000000
    9       -6.481280   1.000000
   10       -6.064423   1.000000
   11       -5.401741   1.000000
   12       -3.049347   1.000000
   13        0.256361   0.000000
   14        2.942618   0.000000
   15        3.112799   0.000000
   16        3.739522   0.000000
   17        4.532851   0.000000
   18        5.515590   0.000000
   19        5.700088   0.000000
   20        6.367431   0.000000
   21        6.989706   0.000000
   22        7.286052   0.000000
   23        7.882724   0.000000
   24        8.136597   0.000000
   25        8.791851   0.000000
   26        9.671508   0.000000
   27       10.105152   0.000000
   28       10.635902   0.000000
 
  0.2222222E+00  0.3333333E+00  0.4163336E-15  0.3527337E-02
    1      -11.808652   1.000000
    2      -10.557907   1.000000
    3       -9.254604   1.000000
    4       -8.653610   1.000000
    5       -8.133691   1.000000
    6       -7.508940   1.000000
    7       -7.240176   1.000000
    8       -7.010538   1.000000
    9       -6.805623   1.000000
   10       -6.174720   1.000000
   11       -5.797294   1.000000
   12       -1.486634   0.983161
   13        0.250822   0.000000
   14        3.189862   0.000000
   15        3.473248   0.000000
   16        4.012591   0.000000
   17        4.469029   0.000000
   18        5.504802   0.000000
   19        5.887629   0.000000
   20        6.505993   0.000000
   21        6.814821   0.000000
   22        7.314738   0.000000
   23        7.695857   0.000000
   24        8.563013   0.000000
   25        8.923877   0.000000
   26        9.162418   0.000000
   27        9.652817   0.000000
   28       10.138528   0.000000
 
  0.3333333E+00  0.3333333E+00  0.3330669E-15  0.3527337E-02
    1      -11.502636   1.000000
    2      -10.399228   1.000000
    3       -9.196673   1.000000
    4       -8.961085   1.000000
    5       -8.189567   1.000000
    6       -7.819192   1.000000
    7       -7.430157   1.000000
    8       -7.140818   1.000000
    9       -6.918235   1.000000
   10       -6.479322   1.000000
   11       -5.873631   1.000000
   12        0.192138   0.000000
   13        0.348054   0.000000
   14        3.304338   0.000000
   15        3.895855   0.000000
   16        4.540015   0.000000
   17        4.793962   0.000000
   18        5.350038   0.000000
   19        5.938832   0.000000
   20        6.516303   0.000000
   21        6.624015   0.000000
   22        6.957713   0.000000
   23        7.235940   0.000000
   24        7.719310   0.000000
   25        8.662067   0.000000
   26        8.983441   0.000000
   27        9.380193   0.000000
   28       10.157106   0.000000
 
  0.4444444E+00  0.3333333E+00  0.3885781E-15  0.3527337E-02
    1      -11.202655   1.000000
    2      -10.215770   1.000000
    3       -9.614733   1.000000
    4       -8.908647   1.000000
    5       -8.355733   1.000000
    6       -7.937994   1.000000
    7       -7.549453   1.000000
    8       -7.278238   1.000000
    9       -6.836471   1.000000
   10       -6.640156   1.000000
   11       -5.899379   1.000000
   12        0.263965   0.000000
   13        2.192825   0.000000
   14        3.394518   0.000000
   15        4.126187   0.000000
   16        4.465158   0.000000
   17        4.929742   0.000000
   18        5.093276   0.000000
   19        5.468840   0.000000
   20        6.144681   0.000000
   21        6.485853   0.000000
   22        6.777853   0.000000
   23        6.991504   0.000000
   24        7.757665   0.000000
   25        8.399465   0.000000
   26        8.736768   0.000000
   27        9.262980   0.000000
   28       10.086663   0.000000
 
 -0.4444444E+00  0.3333333E+00  0.3330669E-15  0.3527337E-02
    1      -11.200477   1.000000
    2      -10.147835   1.000000
    3       -9.613685   1.000000
    4       -8.897817   1.000000
    5       -8.557913   1.000000
    6       -7.867517   1.000000
    7       -7.609246   1.000000
    8       -7.417877   1.000000
    9       -6.781595   1.000000
   10       -6.382685   1.000000
   11       -5.922111   1.000000
   12        0.281458   0.000000
   13        2.241231   0.000000
   14        3.537086   0.000000
   15        4.127227   0.000000
   16        4.440630   0.000000
   17        4.869370   0.000000
   18        5.070759   0.000000
   19        5.623943   0.000000
   20        5.922167   0.000000
   21        6.513369   0.000000
   22        6.674274   0.000000
   23        7.162662   0.000000
   24        7.756387   0.000000
   25        8.023402   0.000000
   26        8.403507   0.000000
   27        9.192889   0.000000
   28        9.965146   0.000000
 
 -0.3333333E+00  0.3333333E+00  0.3773024E-15  0.3527337E-02
    1      -11.498379   1.000000
    2      -10.268221   1.000000
    3       -9.217533   1.000000
    4       -8.831391   1.000000
    5       -8.634534   1.000000
    6       -7.880413   1.000000
    7       -7.642261   1.000000
    8       -7.318206   1.000000
    9       -6.430925   1.000000
   10       -6.183873   1.000000
   11       -5.926286   1.000000
   12        0.280042   0.000000
   13        0.333668   0.000000
   14        3.542384   0.000000
   15        3.981264   0.000000
   16        4.637034   0.000000
   17        5.137733   0.000000
   18        5.328413   0.000000
   19        5.755504   0.000000
   20        6.137411   0.000000
   21        6.489562   0.000000
   22        6.729689   0.000000
   23        6.958146   0.000000
   24        7.615004   0.000000
   25        8.290765   0.000000
   26        8.584487   0.000000
   27        9.279575   0.000000
   28        9.676249   0.000000
 
 -0.2222222E+00  0.3333333E+00  0.3747003E-15  0.3527337E-02
    1      -11.805266   1.000000
    2      -10.438900   1.000000
    3       -9.233931   1.000000
    4       -8.710059   1.000000