Automatically generated mesh
      43
Reciprocal lattice
    0.00000000000000    0.00000000000000    0.00000000000000             1
    0.14285714285714    0.00000000000000    0.00000000000000             2
    0.28571428571429    0.00000000000000    0.00000000000000             2
    0.42857142857143    0.00000000000000    0.00000000000000             2
    0.00000000000000    0.33333333333333    0.00000000000000             2
    0.14285714285714    0.33333333333333    0.00000000000000             2
    0.28571428571429    0.33333333333333    0.00000000000000             2
    0.42857142857143    0.33333333333333    0.00000000000000             2
   -0.42857142857143    0.33333333333333    0.00000000000000             2
   -0.28571428571429    0.33333333333333    0.00000000000000             2
   -0.14285714285714    0.33333333333333    0.00000000000000             2
    0.00000000000000    0.00000000000000    0.25000000000000             2
    0.14285714285714    0.00000000000000    0.25000000000000             2
    0.28571428571429    0.00000000000000    0.25000000000000             2
    0.42857142857143    0.00000000000000    0.25000000000000             2
   -0.42857142857143    0.00000000000000    0.25000000000000             2
   -0.28571428571429    0.00000000000000    0.25000000000000             2
   -0.14285714285714    0.00000000000000    0.25000000000000             2
    0.00000000000000    0.33333333333333    0.25000000000000             2
    0.14285714285714    0.33333333333333    0.25000000000000             2
    0.28571428571429    0.33333333333333    0.25000000000000             2
    0.42857142857143    0.33333333333333    0.25000000000000             2
   -0.42857142857143    0.33333333333333    0.25000000000000             2
   -0.28571428571429    0.33333333333333    0.25000000000000             2
   -0.14285714285714    0.33333333333333    0.25000000000000             2
    0.00000000000000   -0.33333333333333    0.25000000000000             2
    0.14285714285714   -0.33333333333333    0.25000000000000             2
    0.28571428571429   -0.33333333333333    0.25000000000000             2
    0.42857142857143   -0.33333333333333    0.25000000000000             2
   -0.42857142857143   -0.33333333333333    0.25000000000000             2
   -0.28571428571429   -0.33333333333333    0.25000000000000             2
   -0.14285714285714   -0.33333333333333    0.25000000000000             2
    0.00000000000000    0.00000000000000    0.50000000000000             1
    0.14285714285714    0.00000000000000    0.50000000000000             2
    0.28571428571429    0.00000000000000    0.50000000000000             2
    0.42857142857143    0.00000000000000    0.50000000000000             2
    0.00000000000000    0.33333333333333    0.50000000000000             2
    0.14285714285714    0.33333333333333    0.50000000000000             2
    0.28571428571429    0.33333333333333    0.50000000000000             2
    0.42857142857143    0.33333333333333    0.50000000000000             2
   -0.42857142857143    0.33333333333333    0.50000000000000             2
   -0.28571428571429    0.33333333333333    0.50000000000000             2
   -0.14285714285714    0.33333333333333    0.50000000000000             2
Tetrahedra
       250    0.00198412698413
         2         2         5         6        19
         2         1         2         5        19
         2         1         2        12        19
         2         2         6        19        20
         2         2        13        19        20
         2         2        12        13        19
         2         3         6         7        20
         2         2         3         6        20
         2         2         3        13        20
         2         3         7        20        21
         2         3        14        20        21
         2         3        13        14        20
         2         4         7         8        21
         2         3         4         7        21
         2         3         4        14        21
         2         4         8        21        22
         2         4        15        21        22
         2         4        14        15        21
         2         4         8         9        22
         2         4         4         8        22
         2         4         4        15        22
         2         4         9        22        23
         2         4        16        22        23
         2         4        15        16        22
         2         3         9        10        23
         2         3         4         9        23
         2         3         4        16        23
         2         3        10        23        24
         2         3        17        23        24
         2         3        16        17        23
         2         2        10        11        24
         2         2         3        10        24
         2         2         3        17        24
         2         2        11        24        25
         2         2        18        24        25
         2         2        17        18        24
         2         1         5        11        25
         2         1         2        11        25
         2         1         2        18        25
         2         1         5        19        25
         2         1        12        19        25
         2         1        12        18        25
         2         5         6        11        26
         2         5         5         6        26
         2         5         6        19        26
         2         6        11        26        27
         2         6        20        26        27
         2         6        19        20        26
         2         7        10        11        27
         2         6         7        11        27
         2         6         7        20        27
         2         7        10        27        28
         2         7        21        27        28
         2         7        20        21        27
         2         8         9        10        28
         2         7         8        10        28
         2         7         8        21        28
         2         8         9        28        29
         2         8        22        28        29
         2         8        21        22        28
         4         8         9         9        29
         2         8         9        22        29
         2         8         9        29        30
         2         9        23        29        30
         2         9        22        23        29
         2         7         8        10        30
         2         8         9        10        30
         2         9        10        23        30
         2         7        10        30        31
         2        10        24        30        31
         2        10        23        24        30
         2         6         7        11        31
         2         7        10        11        31
         2        10        11        24        31
         2         6        11        31        32
         2        11        25        31        32
         2        11        24        25        31
         2         5         5         6        32
         2         5         6        11        32
         2         5        11        25        32
         2         5         5        26        32
         2         5        19        26        32
         2         5        19        25        32
         2         1         2        11        12
         2         1         5        11        12
         2         5        11        12        26
         2         2        11        12        13
         2        11        12        13        27
         2        11        12        26        27
         2         2         3        10        13
         2         2        10        11        13
         2        10        11        13        27
         2         3        10        13        14
         2        10        13        14        28
         2        10        13        27        28
         2         3         4         9        14
         2         3         9        10        14
         2         9        10        14        28
         2         4         9        14        15
         2         9        14        15        29
         2         9        14        28        29
         2         4         4         8        15
         2         4         8         9        15
         2         8         9        15        29
         2         4         8        15        16
         2         8        15        16        30
         2         8        15        29        30
         2         3         4         7        16
         2         4         7         8        16
         2         7         8        16        30
         2         3         7        16        17
         2         7        16        17        31
         2         7        16        30        31
         2         2         3         6        17
         2         3         6         7        17
         2         6         7        17        31
         2         2         6        17        18
         2         6        17        18        32
         2         6        17        31        32
         2         1         2         5        18
         2         2         5         6        18
         2         5         6        18        32
         2         1         5        12        18
         2         5        12        18        26
         2         5        18        26        32
         2        13        19        20        37
         2        12        13        19        37
         2        12        13        33        37
         2        13        20        37        38
         2        13        34        37        38
         2        13        33        34        37
         2        14        20        21        38
         2        13        14        20        38
         2        13        14        34        38
         2        14        21        38        39
         2        14        35        38        39
         2        14        34        35        38
         2        15        21        22        39
         2        14        15        21        39
         2        14        15        35        39
         2        15        22        39        40
         2        15        36        39        40
         2        15        35        36        39
         2        16        22        23        40
         2        15        16        22        40
         2        15        16        36        40
         2        16        23        40        41
         2        16        36        40        41
         2        16        36        36        40
         2        17        23        24        41
         2        16        17        23        41
         2        16        17        36        41
         2        17        24        41        42
         2        17        35        41        42
         2        17        35        36        41
         2        18        24        25        42
         2        17        18        24        42
         2        17        18        35        42
         2        18        25        42        43
         2        18        34        42        43
         2        18        34        35        42
         2        12        19        25        43
         2        12        18        25        43
         2        12        18        34        43
         2        12        19        37        43
         2        12        33        37        43
         2        12        33        34        43
         2        20        26        27        37
         2        19        20        26        37
         2        19        20        37        37
         2        20        27        37        43
         2        20        37        38        43
         2        20        37        37        38
         2        21        27        28        43
         2        20        21        27        43
         2        20        21        38        43
         2        21        28        42        43
         2        21        39        42        43
         2        21        38        39        43
         2        22        28        29        42
         2        21        22        28        42
         2        21        22        39        42
         2        22        29        41        42
         2        22        40        41        42
         2        22        39        40        42
         2        23        29        30        41
         2        22        23        29        41
         2        22        23        40        41
         2        23        30        40        41
         4        23        40        41        41
         2        24        30        31        40
         2        23        24        30        40
         2        23        24        40        41
         2        24        31        39        40
         2        24        39        40        42
         2        24        40        41        42
         2        25        31        32        39
         2        24        25        31        39
         2        24        25        39        42
         2        25        32        38        39
         2        25        38        39        43
         2        25        39        42        43
         2        19        26        32        38
         2        19        25        32        38
         2        19        25        38        43
         2        19        26        37        38
         2        19        37        37        38
         2        19        37        38        43
         2        12        13        27        33
         2        12        26        27        33
         2        26        27        33        37
         2        13        27        33        34
         2        27        33        34        43
         2        27        33        37        43
         2        13        14        28        34
         2        13        27        28        34
         2        27        28        34        43
         2        14        28        34        35
         2        28        34        35        42
         2        28        34        42        43
         2        14        15        29        35
         2        14        28        29        35
         2        28        29        35        42
         2        15        29        35        36
         2        29        35        36        41
         2        29        35        41        42
         2        15        16        30        36
         2        15        29        30        36
         2        29        30        36        41
         2        16        30        36        36
         2        30        36        36        40
         2        30        36        40        41
         2        16        17        31        36
         2        16        30        31        36
         2        30        31        36        40
         2        17        31        35        36
         2        31        35        36        39
         2        31        36        39        40
         2        17        18        32        35
         2        17        31        32        35
         2        31        32        35        39
         2        18        32        34        35
         2        32        34        35        38
         2        32        35        38        39
         2        12        18        26        34
         2        18        26        32        34
         2        26        32        34        38
         2        12        26        33        34
         2        26        33        34        37
         2        26        34        37        38
