   11   11   99    2
  0.8410800E+01  0.3303586E-09  0.5635696E-09  0.5351563E-09  0.5000000E-15
  1.000000000000000E-004
  CAR 
 unknown system                          
     30     58     32
 
  0.3742002E-15  0.3742002E-15  0.3742002E-15  0.8928571E-02
    1      -33.926404    -33.926404   1.000000   1.000000
    2      -30.060092    -30.060092   1.000000   1.000000
    3      -29.929784    -29.929784   1.000000   1.000000
    4      -29.814146    -29.814146   1.000000   1.000000
    5      -16.021844    -16.021844   1.000000   1.000000
    6      -15.978561    -15.978561   1.000000   1.000000
    7      -15.611556    -15.611556   1.000000   1.000000
    8       -7.405835     -7.405835   1.000000   1.000000
    9       -5.077165     -5.077165   1.000000   1.000000
   10       -3.460068     -3.460068   1.000000   1.000000
   11       -2.791323     -2.791323   1.000000   1.000000
   12       -2.394672     -2.394672   1.000000   1.000000
   13       -2.331752     -2.331752   1.000000   1.000000
   14       -1.260504     -1.260504   1.000000   1.000000
   15        1.231646      1.231646   1.000000   1.000000
   16        2.304222      2.304222   0.000000   0.000000
   17        2.674131      2.674131   0.000000   0.000000
   18        4.073304      4.073304   0.000000   0.000000
   19        4.722967      4.722967   0.000000   0.000000
   20        5.345285      5.345285   0.000000   0.000000
   21        6.604892      6.604892   0.000000   0.000000
   22        7.201282      7.201282   0.000000   0.000000
   23        7.305185      7.305185   0.000000   0.000000
   24        7.458863      7.458863   0.000000   0.000000
   25        8.009926      8.009926   0.000000   0.000000
   26        8.421645      8.421645   0.000000   0.000000
   27        8.778288      8.778288   0.000000   0.000000
   28        9.388859      9.388859   0.000000   0.000000
   29       10.237318     10.237318   0.000000   0.000000
   30       11.820993     11.820993   0.000000   0.000000
   31       12.182328     12.182328   0.000000   0.000000
   32       13.640189     13.640183   0.000000   0.000000
 
  0.1428571E+00  0.3756489E-15  0.3712308E-15  0.1785714E-01
    1      -33.910200    -33.910200   1.000000   1.000000
    2      -30.055644    -30.055644   1.000000   1.000000
    3      -29.960507    -29.960507   1.000000   1.000000
    4      -29.823516    -29.823516   1.000000   1.000000
    5      -15.995779    -15.995779   1.000000   1.000000
    6      -15.951972    -15.951972   1.000000   1.000000
    7      -15.798575    -15.798575   1.000000   1.000000
    8       -7.130959     -7.130959   1.000000   1.000000
    9       -4.879336     -4.879336   1.000000   1.000000
   10       -3.388347     -3.388347   1.000000   1.000000
   11       -2.725561     -2.725561   1.000000   1.000000
   12       -2.408593     -2.408593   1.000000   1.000000
   13       -2.348422     -2.348422   1.000000   1.000000
   14       -1.499450     -1.499450   1.000000   1.000000
   15        0.470147      0.470147   1.000000   1.000000
   16        2.385526      2.385526   0.000000   0.000000
   17        3.208676      3.208676   0.000000   0.000000
   18        4.505742      4.505742   0.000000   0.000000
   19        4.819229      4.819229   0.000000   0.000000
   20        5.190247      5.190247   0.000000   0.000000
   21        6.576157      6.576157   0.000000   0.000000
   22        6.756445      6.756445   0.000000   0.000000
   23        7.207880      7.207880   0.000000   0.000000
   24        7.502906      7.502906   0.000000   0.000000
   25        7.842899      7.842899   0.000000   0.000000
   26        8.001349      8.001349   0.000000   0.000000
   27        8.927531      8.927531   0.000000   0.000000
   28        9.604702      9.604702   0.000000   0.000000
   29       10.513381     10.513381   0.000000   0.000000
   30       11.150662     11.150662   0.000000   0.000000
   31       12.121823     12.121823   0.000000   0.000000
   32       13.022064     13.022064   0.000000   0.000000
 
  0.2857143E+00  0.3785492E-15  0.3747003E-15  0.1785714E-01
    1      -33.873466    -33.873466   1.000000   1.000000
    2      -30.059021    -30.059021   1.000000   1.000000
    3      -30.034287    -30.034287   1.000000   1.000000
    4      -29.824876    -29.824876   1.000000   1.000000
    5      -16.194473    -16.194473   1.000000   1.000000
    6      -15.935053    -15.935053   1.000000   1.000000
    7      -15.890634    -15.890634   1.000000   1.000000
    8       -6.457839     -6.457839   1.000000   1.000000
    9       -4.392134     -4.392134   1.000000   1.000000
   10       -3.296763     -3.296763   1.000000   1.000000
   11       -2.734682     -2.734682   1.000000   1.000000
   12       -2.457387     -2.457387   1.000000   1.000000
   13       -2.364295     -2.364295   1.000000   1.000000
   14       -1.969035     -1.969035   1.000000   1.000000
   15       -0.454674     -0.454674   1.000000   1.000000
   16        2.701054      2.701054   0.000000   0.000000
   17        3.885269      3.885269   0.000000   0.000000
   18        4.377256      4.377256   0.000000   0.000000
   19        4.579040      4.579040   0.000000   0.000000
   20        5.979363      5.979363   0.000000   0.000000
   21        6.265642      6.265642   0.000000   0.000000
   22        6.359040      6.359040   0.000000   0.000000
   23        7.083726      7.083726   0.000000   0.000000
   24        7.290153      7.290153   0.000000   0.000000
   25        7.734258      7.734258   0.000000   0.000000
   26        8.088282      8.088282   0.000000   0.000000
   27        8.636643      8.636643   0.000000   0.000000
   28        9.711683      9.711683   0.000000   0.000000
   29       10.050838     10.050838   0.000000   0.000000
   30       11.282004     11.282004   0.000000   0.000000
   31       12.157660     12.157660   0.000000   0.000000
   32       12.609237     12.609237   0.000000   0.000000
 
  0.4285714E+00  0.3856507E-15  0.3781697E-15  0.1785714E-01
    1      -33.843677    -33.843677   1.000000   1.000000
    2      -30.127796    -30.127796   1.000000   1.000000
    3      -30.032782    -30.032782   1.000000   1.000000
    4      -29.819049    -29.819049   1.000000   1.000000
    5      -16.488926    -16.488926   1.000000   1.000000
    6      -15.886182    -15.886182   1.000000   1.000000
    7      -15.840758    -15.840758   1.000000   1.000000
    8       -5.810890     -5.810890   1.000000   1.000000
    9       -3.914550     -3.914550   1.000000   1.000000
   10       -3.244685     -3.244685   1.000000   1.000000
   11       -3.072659     -3.072659   1.000000   1.000000
   12       -2.538765     -2.538765   1.000000   1.000000
   13       -2.430646     -2.430646   1.000000   1.000000
   14       -2.237438     -2.237438   1.000000   1.000000
   15       -0.789252     -0.789252   1.000000   1.000000
   16        3.013008      3.013008   0.000000   0.000000
   17        3.898622      3.898622   0.000000   0.000000
   18        4.310886      4.310886   0.000000   0.000000
   19        4.398460      4.398460   0.000000   0.000000
   20        6.017304      6.017304   0.000000   0.000000
   21        6.316892      6.316892   0.000000   0.000000
   22        6.739132      6.739132   0.000000   0.000000
   23        6.942280      6.942280   0.000000   0.000000
   24        7.010126      7.010126   0.000000   0.000000
   25        7.592075      7.592075   0.000000   0.000000
   26        7.953063      7.953063   0.000000   0.000000
   27        8.958038      8.958038   0.000000   0.000000
   28        9.682448      9.682448   0.000000   0.000000
   29       10.489211     10.489211   0.000000   0.000000
   30       11.027208     11.027208   0.000000   0.000000
   31       11.655615     11.655615   0.000000   0.000000
   32       12.603828     12.603828   0.000000   0.000000
 
  0.3733992E-15  0.2500000E+00  0.4163336E-15  0.1785714E-01
    1      -33.926503    -33.926503   1.000000   1.000000
    2      -30.060149    -30.060149   1.000000   1.000000
    3      -29.929658    -29.929658   1.000000   1.000000
    4      -29.813985    -29.813985   1.000000   1.000000
    5      -16.022846    -16.022846   1.000000   1.000000
    6      -15.985616    -15.985616   1.000000   1.000000
    7      -15.611620    -15.611620   1.000000   1.000000
    8       -7.124288     -7.124288   1.000000   1.000000
    9       -5.558801     -5.558801   1.000000   1.000000
   10       -3.466493     -3.466493   1.000000   1.000000
   11       -2.666113     -2.666113   1.000000   1.000000
   12       -2.335308     -2.335308   1.000000   1.000000
   13       -2.244104     -2.244104   1.000000   1.000000
   14       -1.155827     -1.155827   1.000000   1.000000
   15        0.958034      0.958034   1.000000   1.000000
   16        2.281131      2.281131   0.000000   0.000000
   17        2.658944      2.658944   0.000000   0.000000
   18        3.947163      3.947163   0.000000   0.000000
   19        4.868657      4.868657   0.000000   0.000000
   20        5.435847      5.435847   0.000000   0.000000
   21        6.364748      6.364748   0.000000   0.000000
   22        6.917923      6.917923   0.000000   0.000000
   23        7.117077      7.117077   0.000000   0.000000
   24        7.398749      7.398749   0.000000   0.000000
   25        8.129405      8.129405   0.000000   0.000000
   26        8.428266      8.428266   0.000000   0.000000
   27        9.100900      9.100900   0.000000   0.000000
   28       10.109648     10.109648   0.000000   0.000000
   29       10.721349     10.721349   0.000000   0.000000
   30       11.812206     11.812206   0.000000   0.000000
   31       12.773741     12.773741   0.000000   0.000000
   32       13.166462     13.166462   0.000000   0.000000
 
  0.1428571E+00  0.2500000E+00  0.4024558E-15  0.1785714E-01
    1      -33.910272    -33.910272   1.000000   1.000000
    2      -30.055696    -30.055696   1.000000   1.000000
    3      -29.960391    -29.960391   1.000000   1.000000
    4      -29.823429    -29.823429   1.000000   1.000000
    5      -15.996769    -15.996769   1.000000   1.000000
    6      -15.957997    -15.957997   1.000000   1.000000
    7      -15.798133    -15.798133   1.000000   1.000000
    8       -6.859267     -6.859267   1.000000   1.000000
    9       -5.367225     -5.367225   1.000000   1.000000
   10       -3.302020     -3.302020   1.000000   1.000000
   11       -2.633846     -2.633846   1.000000   1.000000
   12       -2.353012     -2.353012   1.000000   1.000000
   13       -2.305097     -2.305097   1.000000   1.000000
   14       -1.393715     -1.393715   1.000000   1.000000
   15        0.239146      0.239146   1.000000   1.000000
   16        2.275517      2.275517   0.000000   0.000000
   17        3.383888      3.383888   0.000000   0.000000
   18        4.146990      4.146990   0.000000   0.000000
   19        4.763526      4.763526   0.000000   0.000000
   20        5.489845      5.489845   0.000000   0.000000
   21        6.091819      6.091819   0.000000   0.000000
   22        6.635366      6.635366   0.000000   0.000000
   23        7.363932      7.363932   0.000000   0.000000
   24        7.708980      7.708980   0.000000   0.000000
   25        7.768628      7.768628   0.000000   0.000000
   26        8.536683      8.536683   0.000000   0.000000
   27        8.888370      8.888370   0.000000   0.000000
   28       10.123346     10.123346   0.000000   0.000000
   29       10.729460     10.729460   0.000000   0.000000
   30       11.688760     11.688760   0.000000   0.000000
   31       11.979997     11.979997   0.000000   0.000000
   32       12.661511     12.661511   0.000000   0.000000
 
  0.2857143E+00  0.2500000E+00  0.3747003E-15  0.1785714E-01
    1      -33.873469    -33.873469   1.000000   1.000000
    2      -30.059040    -30.059040   1.000000   1.000000
    3      -30.034310    -30.034310   1.000000   1.000000
    4      -29.824887    -29.824887   1.000000   1.000000
    5      -16.192803    -16.192803   1.000000   1.000000
    6      -15.936306    -15.936306   1.000000   1.000000
    7      -15.894326    -15.894326   1.000000   1.000000
    8       -6.247161     -6.247161   1.000000   1.000000
    9       -4.808793     -4.808793   1.000000   1.000000
   10       -3.122149     -3.122149   1.000000   1.000000
   11       -2.654246     -2.654246   1.000000   1.000000
   12       -2.500738     -2.500738   1.000000   1.000000
   13       -2.291830     -2.291830   1.000000   1.000000
   14       -1.877044     -1.877044   1.000000   1.000000
   15       -0.692267     -0.692267   1.000000   1.000000
   16        2.452073      2.452073   0.000000   0.000000
   17        3.976767      3.976767   0.000000   0.000000
   18        4.441579      4.441579   0.000000   0.000000
   19        4.761981      4.761981   0.000000   0.000000
   20        5.702056      5.702056   0.000000   0.000000
   21        5.962551      5.962551   0.000000   0.000000
   22        6.516043      6.516043   0.000000   0.000000
   23        6.869888      6.869888   0.000000   0.000000
   24        7.333213      7.333213   0.000000   0.000000
   25        8.238245      8.238245   0.000000   0.000000
   26        8.523123      8.523123   0.000000   0.000000
   27        9.005696      9.005696   0.000000   0.000000
   28       10.048618     10.048618   0.000000   0.000000
   29       10.211400     10.211400   0.000000   0.000000
   30       10.953017     10.953017   0.000000   0.000000
   31       11.586213     11.586213   0.000000   0.000000
   32       12.378495     12.378495   0.000000   0.000000
 
  0.4285714E+00  0.2500000E+00  0.4024558E-15  0.1785714E-01
    1      -33.843619    -33.843619   1.000000   1.000000
    2      -30.127884    -30.127884   1.000000   1.000000
    3      -30.032818    -30.032818   1.000000   1.000000
    4      -29.819158    -29.819158   1.000000   1.000000
    5      -16.486663    -16.486663   1.000000   1.000000
    6      -15.887635    -15.887635   1.000000   1.000000
    7      -15.842374    -15.842374   1.000000   1.000000
    8       -5.723441     -5.723441   1.000000   1.000000
    9       -4.048499     -4.048499   1.000000   1.000000
   10       -3.298627     -3.298627   1.000000   1.000000
   11       -2.974006     -2.974006   1.000000   1.000000
   12       -2.515536     -2.515536   1.000000   1.000000
   13       -2.324731     -2.324731   1.000000   1.000000
   14       -2.133973     -2.133973   1.000000   1.000000
   15       -1.136858     -1.136858   1.000000   1.000000
   16        2.711657      2.711657   0.000000   0.000000
   17        4.007423      4.007423   0.000000   0.000000
   18        4.353533      4.353533   0.000000   0.000000
   19        4.799233      4.799233   0.000000   0.000000
   20        5.672099      5.672099   0.000000   0.000000
   21        6.169434      6.169434   0.000000   0.000000
   22        6.390148      6.390148   0.000000   0.000000
   23        6.910164      6.910164   0.000000   0.000000
   24        7.486220      7.486220   0.000000   0.000000
   25        7.957318      7.957318   0.000000   0.000000
   26        8.463488      8.463488   0.000000   0.000000
   27        9.455144      9.455144   0.000000   0.000000
   28        9.789302      9.789302   0.000000   0.000000
   29       10.457527     10.457527   0.000000   0.000000
   30       10.712468     10.712468   0.000000   0.000000
   31       11.273886     11.273886   0.000000   0.000000
   32       12.024968     12.024968   0.000000   0.000000
 
 -0.4285714E+00  0.2500000E+00  0.3677614E-15  0.1785714E-01
    1      -33.843615    -33.843615   1.000000   1.000000
    2      -30.127922    -30.127922   1.000000   1.000000
    3      -30.032818    -30.032818   1.000000   1.000000
    4      -29.819132    -29.819132   1.000000   1.000000
    5      -16.486636    -16.486636   1.000000   1.000000
    6      -15.887690    -15.887690   1.000000   1.000000
    7      -15.842226    -15.842226   1.000000   1.000000
    8       -5.726410     -5.726410   1.000000   1.000000
    9       -4.068770     -4.068770   1.000000   1.000000
   10       -3.206033     -3.206033   1.000000   1.000000
   11       -3.038612     -3.038612   1.000000   1.000000
   12       -2.500631     -2.500631   1.000000   1.000000
   13       -2.338289     -2.338289   1.000000   1.000000
   14       -2.092224     -2.092224   1.000000   1.000000
   15       -1.207205     -1.207205   1.000000   1.000000
   16        2.696897      2.696897   0.000000   0.000000
   17        3.997437      3.997437   0.000000   0.000000
   18        4.404375      4.404375   0.000000   0.000000
   19        4.777047      4.777047   0.000000   0.000000
   20        5.683432      5.683432   0.000000   0.000000
   21        6.270976      6.270976   0.000000   0.000000
   22        6.529026      6.529026   0.000000   0.000000
   23        6.958167      6.958167   0.000000   0.000000
   24        7.369972      7.369972   0.000000   0.000000
   25        8.097281      8.097281   0.000000   0.000000
   26        8.237043      8.237043   0.000000   0.000000
   27        9.212990      9.212990   0.000000   0.000000
   28        9.808930      9.808930   0.000000   0.000000
   29       10.452589     10.452589   0.000000   0.000000
   30       10.553297     10.553297   0.000000   0.000000
   31       11.231221     11.231221   0.000000   0.000000
   32       12.411422     12.411422   0.000000   0.000000
 
 -0.2857143E+00  0.2500000E+00  0.3747003E-15  0.1785714E-01
    1      -33.873460    -33.873460   1.000000   1.000000
    2      -30.059108    -30.059108   1.000000   1.000000
    3      -30.034356    -30.034356   1.000000   1.000000
    4      -29.824798    -29.824798   1.000000   1.000000
    5      -16.192760    -16.192760   1.000000   1.000000
    6      -15.936420    -15.936420   1.000000   1.000000
    7      -15.893976    -15.893976   1.000000   1.000000
    8       -6.256555     -6.256555   1.000000   1.000000
    9       -4.782333     -4.782333   1.000000   1.000000
   10       -3.181015     -3.181015   1.000000   1.000000
   11       -2.660680     -2.660680   1.000000   1.000000
   12       -2.465596     -2.465596   1.000000   1.000000
   13       -2.226518     -2.226518   1.000000   1.000000
   14       -1.884410     -1.884410   1.000000   1.000000
   15       -0.778535     -0.778535   1.000000   1.000000
   16        2.438164      2.438164   0.000000   0.000000
   17        4.088190      4.088190   0.000000   0.000000
   18        4.387849      4.387849   0.000000   0.000000
   19        4.761354      4.761354   0.000000   0.000000
   20        5.651499      5.651499   0.000000   0.000000
   21        6.178725      6.178725   0.000000   0.000000
   22        6.564637      6.564637   0.000000   0.000000
   23        6.973111      6.973111   0.000000   0.000000
   24        7.502846      7.502846   0.000000   0.000000
   25        8.020752      8.020752   0.000000   0.000000
   26        8.504215      8.504215   0.000000   0.000000
   27        8.725111      8.725111   0.000000   0.000000
   28        9.688562      9.688562   0.000000   0.000000
   29       10.273118     10.273118   0.000000   0.000000
   30       10.803024     10.803024   0.000000   0.000000
   31       11.620059     11.620059   0.000000   0.000000
   32       12.316644     12.316644   0.000000   0.000000
 
 -0.1428571E+00  0.2500000E+00  0.3747003E-15  0.1785714E-01
    1      -33.910265    -33.910265   1.000000   1.000000
    2      -30.055695    -30.055695   1.000000   1.000000
    3      -29.960542    -29.960542   1.000000   1.000000
    4      -29.823300    -29.823300   1.000000   1.000000
    5      -15.996889    -15.996889   1.000000   1.000000
    6      -15.957803    -15.957803   1.000000   1.000000
    7      -15.797985    -15.797985   1.000000   1.000000
    8       -6.865383     -6.865382   1.000000   1.000000
    9       -5.346244     -5.346244   1.000000   1.000000
   10       -3.359229     -3.359229   1.000000   1.000000
   11       -2.593875     -2.593875   1.000000   1.000000
   12       -2.354985     -2.354985   1.000000   1.000000
   13       -2.286437     -2.286437   1.000000   1.000000
   14       -1.402094     -1.402094   1.000000   1.000000
   15        0.187927      0.187927   1.000000   1.000000
   16        2.292331      2.292331   0.000000   0.000000
   17        3.419050      3.419050   0.000000   0.000000
   18        4.172690      4.172690   0.000000   0.000000
   19        4.826252      4.826252   0.000000   0.000000
   20        5.448446      5.448446   0.000000   0.000000
   21        6.265012      6.265012   0.000000   0.000000
   22        6.699878      6.699878   0.000000   0.000000
   23        7.177034      7.177034   0.000000   0.000000
   24        7.618707      7.618707   0.000000   0.000000
   25        7.735299      7.735299   0.000000   0.000000
   26        8.391185      8.391185   0.000000   0.000000
   27        9.266712      9.266712   0.000000   0.000000
   28        9.642746      9.642746   0.000000   0.000000
   29       10.675591     10.675591   0.000000   0.000000
   30       11.348656     11.348656   0.000000   0.000000
   31       12.383229     12.383229   0.000000   0.000000
   32       12.820716     12.820716   0.000000   0.000000
 
  0.3738329E-15  0.5000000E+00  0.3885781E-15  0.8928571E-02
    1      -33.926603    -33.926603   1.000000   1.000000
    2      -30.060203    -30.060203   1.000000   1.000000
    3      -29.929534    -29.929534   1.000000   1.000000
    4      -29.813820    -29.813820   1.000000   1.000000
    5      -16.023882    -16.023882   1.000000   1.000000
    6      -15.992562    -15.992562   1.000000   1.000000
    7      -15.611681    -15.611681   1.000000   1.000000
    8       -6.483425     -6.483425   1.000000   1.000000
    9       -6.323639     -6.323639   1.000000   1.000000
   10       -3.588632     -3.588632   1.000000   1.000000
   11       -2.595349     -2.595349   1.000000   1.000000
   12       -2.307922     -2.307922   1.000000   1.000000
   13       -2.014741     -2.014741   1.000000   1.000000
   14       -1.039458     -1.039458   1.000000   1.000000
   15        0.711913      0.711913   1.000000   1.000000
   16        2.262309      2.262309   0.000000   0.000000
   17        2.640778      2.640778   0.000000   0.000000
   18        3.687944      3.687944   0.000000   0.000000
   19        4.994693      4.994693   0.000000   0.000000
   20        5.828424      5.828424   0.000000   0.000000
   21        6.139449      6.139449   0.000000   0.000000
   22        6.660349      6.660349   0.000000   0.000000
   23        7.123083      7.123083   0.000000   0.000000
   24        7.268127      7.268127   0.000000   0.000000
   25        7.599535      7.599535   0.000000   0.000000
   26        8.803228      8.803228   0.000000   0.000000
   27        9.283148      9.283148   0.000000   0.000000
   28       11.194692     11.194692   0.000000   0.000000
   29       11.336234     11.336234   0.000000   0.000000
   30       12.032031     12.032031   0.000000   0.000000
   31       12.345418     12.345418   0.000000   0.000000
   32       13.250066     13.250066   0.000000   0.000000
 
  0.1428571E+00  0.5000000E+00  0.3608225E-15  0.1785714E-01
    1      -33.910338    -33.910338   1.000000   1.000000
    2      -30.055746    -30.055746   1.000000   1.000000
    3      -29.960425    -29.960425   1.000000   1.000000
    4      -29.823212    -29.823212   1.000000   1.000000
    5      -15.997950    -15.997950   1.000000   1.000000
    6      -15.963694    -15.963694   1.000000   1.000000
    7      -15.797565    -15.797565   1.000000   1.000000
    8       -6.215220     -6.215220   1.000000   1.000000
    9       -6.134950     -6.134950   1.000000   1.000000
   10       -3.404406     -3.404406   1.000000   1.000000
   11       -2.558226     -2.558226   1.000000   1.000000
   12       -2.298754     -2.298754   1.000000   1.000000
   13       -2.116244     -2.116244   1.000000   1.000000
   14       -1.294599     -1.294599   1.000000   1.000000
   15       -0.017425     -0.017425   1.000000   1.000000
   16        2.170862      2.170862   0.000000   0.000000
   17        3.496307      3.496307   0.000000   0.000000
   18        3.940267      3.940267   0.000000   0.000000
   19        4.917865      4.917865   0.000000   0.000000
   20        5.531680      5.531680   0.000000   0.000000
   21        6.035440      6.035440   0.000000   0.000000
   22        6.616520      6.616520   0.000000   0.000000
   23        6.929663      6.929663   0.000000   0.000000
   24        7.692323      7.692323   0.000000   0.000000
   25        8.147439      8.147439   0.000000   0.000000
   26        8.644487      8.644487   0.000000   0.000000
   27        9.316830      9.316830   0.000000   0.000000
   28        9.944877      9.944877   0.000000   0.000000
   29       11.003763     11.003763   0.000000   0.000000
   30       11.516290     11.516290   0.000000   0.000000
   31       12.181420     12.181420   0.000000   0.000000
   32       13.396638     13.396638   0.000000   0.000000
 
  0.2857143E+00  0.5000000E+00  0.3330669E-15  0.1785714E-01
    1      -33.873464    -33.873463   1.000000   1.000000
    2      -30.059128    -30.059128   1.000000   1.000000
    3      -30.034380    -30.034380   1.000000   1.000000
    4      -29.824811    -29.824811   1.000000   1.000000
    5      -16.191075    -16.191075   1.000000   1.000000
    6      -15.937788    -15.937788   1.000000   1.000000
    7      -15.897571    -15.897571   1.000000   1.000000
    8       -5.905409     -5.905409   1.000000   1.000000
    9       -5.273277     -5.273277   1.000000   1.000000
   10       -3.093515     -3.093515   1.000000   1.000000
   11       -2.618297     -2.618297   1.000000   1.000000
   12       -2.446134     -2.446134   1.000000   1.000000
   13       -2.112180     -2.112180   1.000000   1.000000
   14       -1.811412     -1.811412   1.000000   1.000000
   15       -1.020884     -1.020884   1.000000   1.000000
   16        2.214737      2.214737   0.000000   0.000000
   17        4.049697      4.049697   0.000000   0.000000
   18        4.620770      4.620770   0.000000   0.000000
   19        4.954539      4.954539   0.000000   0.000000
   20        5.219591      5.219591   0.000000   0.000000
   21        6.234796      6.234796   0.000000   0.000000
   22        6.508511      6.508511   0.000000   0.000000
   23        7.031765      7.031765   0.000000   0.000000
   24        7.571898      7.571898   0.000000   0.000000
   25        8.171513      8.171513   0.000000   0.000000
   26        8.638748      8.638748   0.000000   0.000000
   27        9.110266      9.110266   0.000000   0.000000
   28        9.672328      9.672328   0.000000   0.000000
   29       10.458741     10.458741   0.000000   0.000000
   30       10.930199     10.930199   0.000000   0.000000
   31       11.872639     11.872639   0.000000   0.000000
   32       12.519353     12.519353   0.000000   0.000000
 
  0.4285714E+00  0.5000000E+00  0.3053113E-15  0.1785714E-01
    1      -33.843557    -33.843557   1.000000   1.000000
    2      -30.128010    -30.128010   1.000000   1.000000
    3      -30.032854    -30.032854   1.000000   1.000000
    4      -29.819240    -29.819240   1.000000   1.000000
    5      -16.484372    -16.484372   1.000000   1.000000
    6      -15.889245    -15.889245   1.000000   1.000000
    7      -15.843734    -15.843734   1.000000   1.000000
    8       -5.624245     -5.624245   1.000000   1.000000
    9       -4.213218     -4.213218   1.000000   1.000000
   10       -3.240488     -3.240488   1.000000   1.000000
   11       -2.944961     -2.944961   1.000000   1.000000
   12       -2.476388     -2.476388   1.000000   1.000000
   13       -2.240165     -2.240165   1.000000   1.000000
   14       -1.872184     -1.872184   1.000000   1.000000
   15       -1.640256     -1.640256   1.000000   1.000000
   16        2.436600      2.436600   0.000000   0.000000
   17        4.057250      4.057250   0.000000   0.000000
   18        4.487304      4.487304   0.000000   0.000000
   19        5.102464      5.102464   0.000000   0.000000
   20        5.255657      5.255657   0.000000   0.000000
   21        6.192203      6.192203   0.000000   0.000000
   22        6.603829      6.603829   0.000000   0.000000
   23        7.071890      7.071890   0.000000   0.000000
   24        7.299989      7.299989   0.000000   0.000000
   25        8.649913      8.649913   0.000000   0.000000
   26        8.766931      8.766931   0.000000   0.000000
   27        9.485638      9.485638   0.000000   0.000000
   28        9.822052      9.822052   0.000000   0.000000
   29       10.223439     10.223439   0.000000   0.000000
   30       10.588404     10.588404   0.000000   0.000000
   31       11.055752     11.055752   0.000000   0.000000
   32       12.413994     12.413994   0.000000   0.000000
 
  0.3729655E-15  0.3738329E-15  0.2500000E+00  0.1785714E-01
    1      -33.926459    -33.926459   1.000000   1.000000
    2      -30.060216    -30.060216   1.000000   1.000000
    3      -29.929703    -29.929703   1.000000   1.000000
    4      -29.814041    -29.814041   1.000000   1.000000
    5      -16.030830    -16.030830   1.000000   1.000000
    6      -15.982334    -15.982334   1.000000   1.000000
    7      -15.611545    -15.611545   1.000000   1.000000
    8       -7.094582     -7.094582   1.000000   1.000000
    9       -5.450056     -5.450056   1.000000   1.000000
   10       -3.358447     -3.358447   1.000000   1.000000
   11       -2.945515     -2.945515   1.000000   1.000000
   12       -2.384493     -2.384493   1.000000   1.000000
   13       -2.324881     -2.324881   1.000000   1.000000
   14       -1.038212     -1.038212   1.000000   1.000000
   15        0.870421      0.870421   1.000000   1.000000
   16        2.255931      2.255931   0.000000   0.000000