Automatically generated mesh
      72
Reciprocal lattice
    0.08333333333333    0.08333333333333    0.12500000000000             2
    0.25000000000000    0.08333333333333    0.12500000000000             2
    0.41666666666667    0.08333333333333    0.12500000000000             2
   -0.41666666666667    0.08333333333333    0.12500000000000             2
   -0.25000000000000    0.08333333333333    0.12500000000000             2
   -0.08333333333333    0.08333333333333    0.12500000000000             2
    0.08333333333333    0.25000000000000    0.12500000000000             2
    0.25000000000000    0.25000000000000    0.12500000000000             2
    0.41666666666667    0.25000000000000    0.12500000000000             2
   -0.41666666666667    0.25000000000000    0.12500000000000             2
   -0.25000000000000    0.25000000000000    0.12500000000000             2
   -0.08333333333333    0.25000000000000    0.12500000000000             2
    0.08333333333333    0.41666666666667    0.12500000000000             2
    0.25000000000000    0.41666666666667    0.12500000000000             2
    0.41666666666667    0.41666666666667    0.12500000000000             2
   -0.41666666666667    0.41666666666667    0.12500000000000             2
   -0.25000000000000    0.41666666666667    0.12500000000000             2
   -0.08333333333333    0.41666666666667    0.12500000000000             2
    0.08333333333333   -0.41666666666667    0.12500000000000             2
    0.25000000000000   -0.41666666666667    0.12500000000000             2
    0.41666666666667   -0.41666666666667    0.12500000000000             2
   -0.41666666666667   -0.41666666666667    0.12500000000000             2
   -0.25000000000000   -0.41666666666667    0.12500000000000             2
   -0.08333333333333   -0.41666666666667    0.12500000000000             2
    0.08333333333333   -0.25000000000000    0.12500000000000             2
    0.25000000000000   -0.25000000000000    0.12500000000000             2
    0.41666666666667   -0.25000000000000    0.12500000000000             2
   -0.41666666666667   -0.25000000000000    0.12500000000000             2
   -0.25000000000000   -0.25000000000000    0.12500000000000             2
   -0.08333333333333   -0.25000000000000    0.12500000000000             2
    0.08333333333333   -0.08333333333333    0.12500000000000             2
    0.25000000000000   -0.08333333333333    0.12500000000000             2
    0.41666666666667   -0.08333333333333    0.12500000000000             2
   -0.41666666666667   -0.08333333333333    0.12500000000000             2
   -0.25000000000000   -0.08333333333333    0.12500000000000             2
   -0.08333333333333   -0.08333333333333    0.12500000000000             2
    0.08333333333333    0.08333333333333    0.37500000000000             2
    0.25000000000000    0.08333333333333    0.37500000000000             2
    0.41666666666667    0.08333333333333    0.37500000000000             2
   -0.41666666666667    0.08333333333333    0.37500000000000             2
   -0.25000000000000    0.08333333333333    0.37500000000000             2
   -0.08333333333333    0.08333333333333    0.37500000000000             2
    0.08333333333333    0.25000000000000    0.37500000000000             2
    0.25000000000000    0.25000000000000    0.37500000000000             2
    0.41666666666667    0.25000000000000    0.37500000000000             2
   -0.41666666666667    0.25000000000000    0.37500000000000             2
   -0.25000000000000    0.25000000000000    0.37500000000000             2
   -0.08333333333333    0.25000000000000    0.37500000000000             2
    0.08333333333333    0.41666666666667    0.37500000000000             2
    0.25000000000000    0.41666666666667    0.37500000000000             2
    0.41666666666667    0.41666666666667    0.37500000000000             2
   -0.41666666666667    0.41666666666667    0.37500000000000             2
   -0.25000000000000    0.41666666666667    0.37500000000000             2
   -0.08333333333333    0.41666666666667    0.37500000000000             2
    0.08333333333333   -0.41666666666667    0.37500000000000             2
    0.25000000000000   -0.41666666666667    0.37500000000000             2
    0.41666666666667   -0.41666666666667    0.37500000000000             2
   -0.41666666666667   -0.41666666666667    0.37500000000000             2
   -0.25000000000000   -0.41666666666667    0.37500000000000             2
   -0.08333333333333   -0.41666666666667    0.37500000000000             2
    0.08333333333333   -0.25000000000000    0.37500000000000             2
    0.25000000000000   -0.25000000000000    0.37500000000000             2
    0.41666666666667   -0.25000000000000    0.37500000000000             2
   -0.41666666666667   -0.25000000000000    0.37500000000000             2
   -0.25000000000000   -0.25000000000000    0.37500000000000             2
   -0.08333333333333   -0.25000000000000    0.37500000000000             2
    0.08333333333333   -0.08333333333333    0.37500000000000             2
    0.25000000000000   -0.08333333333333    0.37500000000000             2
    0.41666666666667   -0.08333333333333    0.37500000000000             2
   -0.41666666666667   -0.08333333333333    0.37500000000000             2
   -0.25000000000000   -0.08333333333333    0.37500000000000             2
   -0.08333333333333   -0.08333333333333    0.37500000000000             2
Tetrahedra
       432    0.00115740740741
         2         1         7         8        44
         2         1         2         8        44
         2         1         2        38        44
         2         1         7        43        44
         2         1        37        43        44
         2         1        37        38        44
         2         2         8         9        45
         2         2         3         9        45
         2         2         3        39        45
         2         2         8        44        45
         2         2        38        44        45
         2         2        38        39        45
         2         3         9        10        46
         2         3         4        10        46
         2         3         4        40        46
         2         3         9        45        46
         2         3        39        45        46
         2         3        39        40        46
         2         4        10        11        47
         2         4         5        11        47
         2         4         5        41        47
         2         4        10        46        47
         2         4        40        46        47
         2         4        40        41        47
         2         5        11        12        48
         2         5         6        12        48
         2         5         6        42        48
         2         5        11        47        48
         2         5        41        47        48
         2         5        41        42        48
         2         6         7        12        43
         2         1         6         7        43
         2         1         6        37        43
         2         6        12        43        48
         2         6        42        43        48
         2         6        37        42        43
         2         7        13        14        50
         2         7         8        14        50
         2         7         8        44        50
         2         7        13        49        50
         2         7        43        49        50
         2         7        43        44        50
         2         8        14        15        51
         2         8         9        15        51
         2         8         9        45        51
         2         8        14        50        51
         2         8        44        50        51
         2         8        44        45        51
         2         9        15        16        52
         2         9        10        16        52
         2         9        10        46        52
         2         9        15        51        52
         2         9        45        51        52
         2         9        45        46        52
         2        10        16        17        53
         2        10        11        17        53
         2        10        11        47        53
         2        10        16        52        53
         2        10        46        52        53
         2        10        46        47        53
         2        11        17        18        54
         2        11        12        18        54
         2        11        12        48        54
         2        11        17        53        54
         2        11        47        53        54
         2        11        47        48        54
         2        12        13        18        49
         2         7        12        13        49
         2         7        12        43        49
         2        12        18        49        54
         2        12        48        49        54
         2        12        43        48        49
         2        13        19        20        56
         2        13        14        20        56
         2        13        14        50        56
         2        13        19        55        56
         2        13        49        55        56
         2        13        49        50        56
         2        14        20        21        57
         2        14        15        21        57
         2        14        15        51        57
         2        14        20        56        57
         2        14        50        56        57
         2        14        50        51        57
         2        15        21        22        58
         2        15        16        22        58
         2        15        16        52        58
         2        15        21        57        58
         2        15        51        57        58
         2        15        51        52        58
         2        16        22        23        59
         2        16        17        23        59
         2        16        17        53        59
         2        16        22        58        59
         2        16        52        58        59
         2        16        52        53        59
         2        17        23        24        60
         2        17        18        24        60
         2        17        18        54        60
         2        17        23        59        60
         2        17        53        59        60
         2        17        53        54        60
         2        18        19        24        55
         2        13        18        19        55
         2        13        18        49        55
         2        18        24        55        60
         2        18        54        55        60
         2        18        49        54        55
         2        19        25        26        62
         2        19        20        26        62
         2        19        20        56        62
         2        19        25        61        62
         2        19        55        61        62
         2        19        55        56        62
         2        20        26        27        63
         2        20        21        27        63
         2        20        21        57        63
         2        20        26        62        63
         2        20        56        62        63
         2        20        56        57        63
         2        21        27        28        64
         2        21        22        28        64
         2        21        22        58        64
         2        21        27        63        64
         2        21        57        63        64
         2        21        57        58        64
         2        22        28        29        65
         2        22        23        29        65
         2        22        23        59        65
         2        22        28        64        65
         2        22        58        64        65
         2        22        58        59        65
         2        23        29        30        66
         2        23        24        30        66
         2        23        24        60        66
         2        23        29        65        66
         2        23        59        65        66
         2        23        59        60        66
         2        24        25        30        61
         2        19        24        25        61
         2        19        24        55        61
         2        24        30        61        66
         2        24        60        61        66
         2        24        55        60        61
         2        25        31        32        68
         2        25        26        32        68
         2        25        26        62        68
         2        25        31        67        68
         2        25        61        67        68
         2        25        61        62        68
         2        26        32        33        69
         2        26        27        33        69
         2        26        27        63        69
         2        26        32        68        69
         2        26        62        68        69
         2        26        62        63        69
         2        27        33        34        70
         2        27        28        34        70
         2        27        28        64        70
         2        27        33        69        70
         2        27        63        69        70
         2        27        63        64        70
         2        28        34        35        71
         2        28        29        35        71
         2        28        29        65        71
         2        28        34        70        71
         2        28        64        70        71
         2        28        64        65        71
         2        29        35        36        72
         2        29        30        36        72
         2        29        30        66        72
         2        29        35        71        72
         2        29        65        71        72
         2        29        65        66        72
         2        30        31        36        67
         2        25        30        31        67
         2        25        30        61        67
         2        30        36        67        72
         2        30        66        67        72
         2        30        61        66        67
         2         1         2        31        38
         2         2        31        32        38
         2        31        32        38        68
         2         1        31        37        38
         2        31        37        38        67
         2        31        38        67        68
         2         2         3        32        39
         2         3        32        33        39
         2        32        33        39        69
         2         2        32        38        39
         2        32        38        39        68
         2        32        39        68        69
         2         3         4        33        40
         2         4        33        34        40
         2        33        34        40        70
         2         3        33        39        40
         2        33        39        40        69
         2        33        40        69        70
         2         4         5        34        41
         2         5        34        35        41
         2        34        35        41        71
         2         4        34        40        41
         2        34        40        41        70
         2        34        41        70        71
         2         5         6        35        42
         2         6        35        36        42
         2        35        36        42        72
         2         5        35        41        42
         2        35        41        42        71
         2        35        42        71        72
         2         1         6        36        37
         2         1        31        36        37
         2        31        36        37        67
         2         6        36        37        42
         2        36        37        42        72
         2        36        37        67        72
         2        37        43        44        65
         2        37        38        44        65
         2        37        38        65        71
         2        37        43        65        66
         2        37        65        66        72
         2        37        65        71        72
         2        38        44        45        64
         2        38        39        45        64
         2        38        39        64        70
         2        38        44        64        65
         2        38        64        65        71
         2        38        64        70        71
         2        39        45        46        63
         2        39        40        46        63
         2        39        40        63        69
         2        39        45        63        64
         2        39        63        64        70
         2        39        63        69        70
         2        40        46        47        62
         2        40        41        47        62
         2        40        41        62        68
         2        40        46        62        63
         2        40        62        63        69
         2        40        62        68        69
         2        41        47        48        61
         2        41        42        48        61
         2        41        42        61        67
         2        41        47        61        62
         2        41        61        62        68
         2        41        61        67        68
         2        42        43        48        66
         2        37        42        43        66
         2        37        42        66        72
         2        42        48        61        66
         2        42        61        66        67
         2        42        66        67        72
         2        43        49        50        59
         2        43        44        50        59
         2        43        44        59        65
         2        43        49        59        60
         2        43        59        60        66
         2        43        59        65        66
         2        44        50        51        58
         2        44        45        51        58
         2        44        45        58        64
         2        44        50        58        59
         2        44        58        59        65
         2        44        58        64        65
         2        45        51        52        57
         2        45        46        52        57
         2        45        46        57        63
         2        45        51        57        58
         2        45        57        58        64
         2        45        57        63        64
         2        46        52        53        56
         2        46        47        53        56
         2        46        47        56        62
         2        46        52        56        57
         2        46        56        57        63
         2        46        56        62        63
         2        47        53        54        55
         2        47        48        54        55
         2        47        48        55        61
         2        47        53        55        56
         2        47        55        56        62
         2        47        55        61        62
         2        48        49        54        60
         2        43        48        49        60
         2        43        48        60        66
         2        48        54        55        60
         2        48        55        60        61
         2        48        60        61        66
         2        49        53        55        56
         2        49        50        53        56
         2        49        50        53        59
         2        49        53        54        55
         2        49        53        54        60
         2        49        53        59        60
         2        50        52        56        57
         2        50        51        52        57
         2        50        51        52        58
         2        50        52        53        56
         2        50        52        53        59
         2        50        52        58        59
         2        51        51        57        58
         2        51        51        52        58
         2        51        51        52        57
         2        54        54        55        60
         2        49        54        54        55
         2        49        54        54        60
         2        37        38        67        71
         2        38        67        68        71
         2        41        67        68        71
         2        37        67        71        72
         2        42        67        71        72
         2        41        42        67        71
         2        38        39        68        70
         2        39        68        69        70
         2        40        68        69        70
         2        38        68        70        71
         2        41        68        70        71
         2        40        41        68        70
         2        39        40        69        69
         2        40        69        69        70
         2        39        69        69        70
         2        37        42        72        72
         2        37        67        72        72
         2        42        67        72        72
         2         8        29        30        36
         2         8        29        35        36
         2         2         8        35        36
         2         7         8        30        36
         2         1         7         8        36
         2         1         2         8        36
         2         9        28        29        35
         2         9        28        34        35
         2         3         9        34        35
         2         8         9        29        35
         2         2         8         9        35
         2         2         3         9        35
         2        10        27        28        34
         2        10        27        33        34
         2         4        10        33        34
         2         9        10        28        34
         2         3         9        10        34
         2         3         4        10        34
         2        11        26        27        33
         2        11        26        32        33
         2         5        11        32        33
         2        10        11        27        33
         2         4        10        11        33
         2         4         5        11        33
         2        12        25        26        32
         2        12        25        31        32
         2         6        12        31        32
         2        11        12        26        32
         2         5        11        12        32
         2         5         6        12        32
         2         7        25        30        31
         2         7        30        31        36
         2         1         7        31        36
         2         7        12        25        31
         2         6         7        12        31
         2         1         6         7        31
         2        14        23        24        30
         2        14        23        29        30
         2         8        14        29        30
         2        13        14        24        30
         2         7        13        14        30
         2         7         8        14        30
         2        15        22        23        29
         2        15        22        28        29
         2         9        15        28        29
         2        14        15        23        29
         2         8        14        15        29
         2         8         9        15        29
         2        16        21        22        28
         2        16        21        27        28
         2        10        16        27        28
         2        15        16        22        28
         2         9        15        16        28
         2         9        10        16        28
         2        17        20        21        27
         2        17        20        26        27
         2        11        17        26        27
         2        16        17        21        27
         2        10        16        17        27
         2        10        11        17        27
         2        18        19        20        26
         2        18        19        25        26
         2        12        18        25        26
         2        17        18        20        26
         2        11        17        18        26
         2        11        12        18        26
         2        13        19        24        25
         2        13        24        25        30
         2         7        13        25        30
         2        13        18        19        25
         2        12        13        18        25
         2         7        12        13        25
         2        17        18        20        24
         2        17        20        23        24
         2        14        20        23        24
         2        18        19        20        24
         2        13        19        20        24
         2        13        14        20        24
         2        16        17        21        23
         2        16        21        22        23
         2        15        21        22        23
         2        17        20        21        23
         2        14        20        21        23
         2        14        15        21        23
         2        15        16        22        22
         2        15        21        22        22
         2        16        21        22        22
         2        13        18        19        19
         2        18        19        19        24
         2        13        19        19        24
         2         2         6        35        36
         2         2         5         6        35
         2         2         5         6        32
         2         1         2         6        36
         2         1         2         6        31
         2         2         6        31        32
         2         3         5        34        35
         2         3         4         5        34
         2         3         4         5        33
         2         2         3         5        35
         2         2         3         5        32
         2         3         5        32        33
         2         4         4        33        34
         2         3         4         4        33
         2         3         4         4        34
         2         1         1        31        36
         2         1         1         6        36
         2         1         1         6        31
