       N       E                     dE             d eps       ncg     rms          rms(c)
DAV:   1     0.385133610384E+03    0.38513E+03   -0.25321E+04  6144   0.106E+03
DAV:   2    -0.395200120326E+02   -0.42465E+03   -0.40101E+03  6448   0.341E+02
DAV:   3    -0.690138506709E+02   -0.29494E+02   -0.28912E+02 10384   0.797E+01
DAV:   4    -0.703248669899E+02   -0.13110E+01   -0.13024E+01  9056   0.119E+01
DAV:   5    -0.703680575856E+02   -0.43191E-01   -0.43182E-01  9792   0.205E+00    0.461E+01
RMM:   6    -0.708968667373E+02   -0.52881E+00   -0.10674E+01  6860   0.113E+01    0.209E+01
RMM:   7    -0.701166604745E+02    0.78021E+00   -0.28413E+00  7006   0.727E+00    0.101E+01
RMM:   8    -0.700323203822E+02    0.84340E-01   -0.60130E-01  7090   0.387E+00    0.508E+00
RMM:   9    -0.700288561813E+02    0.34642E-02   -0.13922E-01  7251   0.169E+00    0.237E+00
RMM:  10    -0.700313932594E+02   -0.25371E-02   -0.21617E-02  7300   0.722E-01    0.921E-01
RMM:  11    -0.700315526555E+02   -0.15940E-03   -0.75719E-03  6385   0.467E-01
   1 F= -.70031553E+02 E0= -.70031553E+02  d E =-.700316E+02  mag=     0.9879
       N       E                     dE             d eps       ncg     rms          rms(c)
DAV:   1    -0.703779446058E+02   -0.34655E+00   -0.62667E+00  8192   0.142E+01    0.569E+00
RMM:   2    -0.701498384579E+02    0.22811E+00   -0.81582E-01  7322   0.439E+00    0.135E+00
RMM:   3    -0.701115843434E+02    0.38254E-01   -0.83432E-02  7254   0.190E+00    0.892E-01
RMM:   4    -0.701018927257E+02    0.96916E-02   -0.28797E-02  6853   0.896E-01    0.959E-01
RMM:   5    -0.701018596502E+02    0.33075E-04   -0.67751E-03  5570   0.705E-01
   2 F= -.70101860E+02 E0= -.70101860E+02  d E =-.703070E-01  mag=     1.0002
       N       E                     dE             d eps       ncg     rms          rms(c)
DAV:   1    -0.705907883307E+02   -0.48890E+00   -0.10916E+01  6208   0.187E+01    0.731E+00
RMM:   2    -0.701775053293E+02    0.41328E+00   -0.13946E+00  7229   0.572E+00    0.180E+00
RMM:   3    -0.701058257852E+02    0.71680E-01   -0.13206E-01  7169   0.260E+00    0.118E+00
RMM:   4    -0.700900131841E+02    0.15813E-01   -0.57008E-02  7124   0.120E+00    0.138E+00
RMM:   5    -0.700913290305E+02   -0.13158E-02   -0.14459E-02  6555   0.100E+00    0.102E+00
RMM:   6    -0.700927332404E+02   -0.14042E-02   -0.89746E-03  6644   0.411E-01    0.302E-01
RMM:   7    -0.700921771377E+02    0.55610E-03   -0.44959E-03  6473   0.312E-01
   3 F= -.70092177E+02 E0= -.70092177E+02  d E =-.606245E-01  mag=     1.0000
       N       E                     dE             d eps       ncg     rms          rms(c)
DAV:   1    -0.701775326067E+02   -0.84799E-01   -0.15910E+00  8096   0.694E+00    0.288E+00
RMM:   2    -0.701205498081E+02    0.56983E-01   -0.20035E-01  7227   0.219E+00    0.694E-01
RMM:   3    -0.701118988931E+02    0.86509E-02   -0.27929E-02  7176   0.992E-01    0.385E-01
RMM:   4    -0.701090100923E+02    0.28888E-02   -0.82248E-03  5513   0.453E-01    0.418E-01
RMM:   5    -0.701090956273E+02   -0.85535E-04   -0.20464E-03  4801   0.472E-01
   4 F= -.70109096E+02 E0= -.70109096E+02  d E =-.775430E-01  mag=     1.0000
       N       E                     dE             d eps       ncg     rms          rms(c)
DAV:   1    -0.701389366663E+02   -0.29927E-01   -0.26948E+00  7168   0.110E+01    0.256E+00
RMM:   2    -0.701341735601E+02    0.47631E-02   -0.31592E-01  7048   0.244E+00    0.112E+00
RMM:   3    -0.701254615135E+02    0.87120E-02   -0.30467E-02  6668   0.161E+00    0.376E-01
RMM:   4    -0.701260311865E+02   -0.56967E-03   -0.12430E-02  6425   0.453E-01    0.387E-01
RMM:   5    -0.701262687413E+02   -0.23755E-03   -0.14139E-03  4835   0.400E-01
   5 F= -.70126269E+02 E0= -.70126269E+02  d E =-.171731E-01  mag=     1.0000
       N       E                     dE             d eps       ncg     rms          rms(c)
DAV:   1    -0.701274202385E+02   -0.13891E-02   -0.75793E-02  9216   0.181E+00    0.409E-01
RMM:   2    -0.701275593936E+02   -0.13916E-03   -0.84447E-03  6057   0.389E-01
   6 F= -.70127559E+02 E0= -.70127559E+02  d E =-.184638E-01  mag=     1.0000
       N       E                     dE             d eps       ncg     rms          rms(c)
DAV:   1    -0.701384002585E+02   -0.10980E-01   -0.85852E-01  7168   0.576E+00    0.685E-01
RMM:   2    -0.701382701149E+02    0.13014E-03   -0.79116E-02  6898   0.123E+00    0.285E-01
RMM:   3    -0.701366698610E+02    0.16003E-02   -0.40951E-03  5180   0.692E-01    0.324E-01
RMM:   4    -0.701366144604E+02    0.55401E-04   -0.13303E-03  4547   0.223E-01
   7 F= -.70136614E+02 E0= -.70136614E+02  d E =-.905507E-02  mag=     1.0000
       N       E                     dE             d eps       ncg     rms          rms(c)
DAV:   1    -0.701370121402E+02   -0.34228E-03   -0.81506E-02  9024   0.182E+00    0.223E-01
RMM:   2    -0.701369786282E+02    0.33512E-04   -0.73105E-03  6101   0.383E-01
   8 F= -.70136979E+02 E0= -.70136979E+02  d E =-.941923E-02  mag=     1.0000
       N       E                     dE             d eps       ncg     rms          rms(c)
DAV:   1    -0.701568316007E+02   -0.19819E-01   -0.49699E-01  6144   0.376E+00    0.108E+00
RMM:   2    -0.701455868663E+02    0.11245E-01   -0.49976E-02  7011   0.121E+00    0.382E-01
RMM:   3    -0.701438155606E+02    0.17713E-02   -0.50010E-03  5417   0.470E-01    0.320E-01
RMM:   4    -0.701434198248E+02    0.39574E-03   -0.11796E-03  4624   0.267E-01
   9 F= -.70143420E+02 E0= -.70143420E+02  d E =-.644120E-02  mag=     1.0000
       N       E                     dE             d eps       ncg     rms          rms(c)
DAV:   1    -0.701922530484E+02   -0.48437E-01   -0.18850E+00  6144   0.731E+00    0.220E+00
RMM:   2    -0.701492250917E+02    0.43028E-01   -0.19143E-01  7086   0.235E+00    0.672E-01
RMM:   3    -0.701429330918E+02    0.62920E-02   -0.21184E-02  6677   0.848E-01    0.489E-01
RMM:   4    -0.701412855333E+02    0.16476E-02   -0.44330E-03  5471   0.438E-01    0.528E-01
RMM:   5    -0.701408145886E+02    0.47094E-03   -0.17998E-03  4902   0.322E-01
  10 F= -.70140815E+02 E0= -.70140815E+02  d E =-.383596E-02  mag=     1.0000
