       N       E                     dE             d eps       ncg     rms          rms(c)
DAV:   1    -0.144664774687E+02   -0.14466E+02   -0.73738E+03  7040   0.480E+02
DAV:   2    -0.555148887390E+02   -0.41048E+02   -0.39561E+02  9376   0.858E+01
DAV:   3    -0.569398985379E+02   -0.14250E+01   -0.14238E+01  9056   0.138E+01
DAV:   4    -0.569421913657E+02   -0.22928E-02   -0.22928E-02  9008   0.696E-01
DAV:   5    -0.569421965958E+02   -0.52301E-05   -0.52298E-05  7328   0.336E-02    0.193E+01
RMM:   6    -0.600650497172E+02   -0.31229E+01   -0.34882E+00  7040   0.599E+00    0.838E+00
RMM:   7    -0.619131861598E+02   -0.18481E+01   -0.22784E+00  7040   0.495E+00    0.363E+00
RMM:   8    -0.617949265798E+02    0.11826E+00   -0.33323E-01  7040   0.205E+00    0.109E+00
RMM:   9    -0.618328105776E+02   -0.37884E-01   -0.25111E-02  7040   0.608E-01    0.487E-01
RMM:  10    -0.618425221823E+02   -0.97116E-02   -0.38979E-03  7040   0.269E-01    0.167E-01
RMM:  11    -0.618439230715E+02   -0.14009E-02   -0.84314E-04  5821   0.126E-01    0.874E-02
RMM:  12    -0.618445612277E+02   -0.63816E-03   -0.51006E-04  5900   0.993E-02
   1 F= -.61844561E+02 E0= -.61844561E+02  d E =-.618446E+02  mag=    -0.0000
       N       E                     dE             d eps       ncg     rms          rms(c)
DAV:   1    -0.619887099881E+02   -0.14479E+00   -0.30965E-01  9472   0.258E+00    0.427E-01
RMM:   2    -0.619868730932E+02    0.18369E-02   -0.46135E-03  6996   0.262E-01    0.246E-01
RMM:   3    -0.619859430758E+02    0.93002E-03   -0.10690E-03  3908   0.109E-01
   2 F= -.61985943E+02 E0= -.61985943E+02  d E =-.141382E+00  mag=    -0.0000
       N       E                     dE             d eps       ncg     rms          rms(c)
DAV:   1    -0.621148257391E+02   -0.12795E+00   -0.12060E+00  8064   0.497E+00    0.835E-01
RMM:   2    -0.621076316325E+02    0.71941E-02   -0.18701E-02  7040   0.518E-01    0.481E-01
RMM:   3    -0.621039936435E+02    0.36380E-02   -0.45310E-03  7038   0.215E-01    0.319E-02
RMM:   4    -0.621040101740E+02   -0.16531E-04   -0.29653E-05  3817   0.247E-02
   3 F= -.62104010E+02 E0= -.62104010E+02  d E =-.259449E+00  mag=    -0.0000
       N       E                     dE             d eps       ncg     rms          rms(c)
DAV:   1    -0.621460091675E+02   -0.42016E-01   -0.64275E-02  9840   0.937E-01    0.187E-01
RMM:   2    -0.621456080352E+02    0.40113E-03   -0.10886E-03  4017   0.124E-01
   4 F= -.62145608E+02 E0= -.62145608E+02  d E =-.415979E-01  mag=    -0.0000
       N       E                     dE             d eps       ncg     rms          rms(c)
DAV:   1    -0.622640519339E+02   -0.11804E+00   -0.55818E-01  7392   0.277E+00    0.556E-01
RMM:   2    -0.622604493604E+02    0.36026E-02   -0.95735E-03  7040   0.358E-01    0.318E-01
RMM:   3    -0.622585790707E+02    0.18703E-02   -0.21977E-03  6733   0.135E-01    0.138E-02
RMM:   4    -0.622585857174E+02   -0.66467E-05   -0.14158E-05  2534   0.175E-02
   5 F= -.62258586E+02 E0= -.62258586E+02  d E =-.154576E+00  mag=    -0.0000
       N       E                     dE             d eps       ncg     rms          rms(c)
DAV:   1    -0.624566252894E+02   -0.19805E+00   -0.23210E+00  7296   0.554E+00    0.111E+00
RMM:   2    -0.624418479787E+02    0.14777E-01   -0.40969E-02  7040   0.729E-01    0.636E-01
RMM:   3    -0.624341186275E+02    0.77294E-02   -0.94146E-03  7038   0.274E-01    0.289E-02
RMM:   4    -0.624341408762E+02   -0.22249E-04   -0.47531E-05  3852   0.297E-02
   6 F= -.62434141E+02 E0= -.62434141E+02  d E =-.330131E+00  mag=     0.0000
       N       E                     dE             d eps       ncg     rms          rms(c)
DAV:   1    -0.626633160667E+02   -0.22920E+00   -0.93594E+00  7232   0.109E+01    0.223E+00
RMM:   2    -0.626001854386E+02    0.63131E-01   -0.17489E-01  7040   0.145E+00    0.128E+00
RMM:   3    -0.625673865006E+02    0.32799E-01   -0.42811E-02  7040   0.569E-01    0.655E-02
RMM:   4    -0.625674797796E+02   -0.93279E-04   -0.20997E-04  4533   0.621E-02
   7 F= -.62567480E+02 E0= -.62567480E+02  d E =-.463470E+00  mag=     0.0000
       N       E                     dE             d eps       ncg     rms          rms(c)
DAV:   1    -0.626040973836E+02   -0.36711E-01   -0.25334E-01 10048   0.199E+00    0.423E-01
RMM:   2    -0.626016391448E+02    0.24582E-02   -0.40195E-03  6986   0.212E-01    0.240E-01
RMM:   3    -0.626005044558E+02    0.11347E-02   -0.14631E-03  4523   0.111E-01    0.295E-02
RMM:   4    -0.626005146541E+02   -0.10198E-04   -0.26455E-05  3004   0.220E-02
   8 F= -.62600515E+02 E0= -.62600515E+02  d E =-.330349E-01  mag=     0.0000
       N       E                     dE             d eps       ncg     rms          rms(c)
DAV:   1    -0.626261589491E+02   -0.25654E-01   -0.52255E-01  7424   0.284E+00    0.594E-01
RMM:   2    -0.626211875745E+02    0.49714E-02   -0.81071E-03  7040   0.300E-01    0.337E-01
RMM:   3    -0.626189011888E+02    0.22864E-02   -0.30494E-03  6924   0.156E-01    0.219E-02
RMM:   4    -0.626189084383E+02   -0.72495E-05   -0.18255E-05  3070   0.197E-02
   9 F= -.62618908E+02 E0= -.62618908E+02  d E =-.514287E-01  mag=     0.0000
       N       E                     dE             d eps       ncg     rms          rms(c)
DAV:   1    -0.626278881830E+02   -0.89870E-02   -0.45389E-02  9904   0.831E-01    0.944E-02
RMM:   2    -0.626280106076E+02   -0.12242E-03   -0.21235E-03  4859   0.185E-01
  10 F= -.62628011E+02 E0= -.62628011E+02  d E =-.910217E-02  mag=    -0.0000
       N       E                     dE             d eps       ncg     rms          rms(c)
DAV:   1    -0.626357673393E+02   -0.78792E-02   -0.24878E-01  8800   0.194E+00    0.231E-01
RMM:   2    -0.626362785593E+02   -0.51122E-03   -0.10277E-02  7036   0.404E-01    0.157E-01
RMM:   3    -0.626360308700E+02    0.24769E-03   -0.51070E-04  5554   0.682E-02
  11 F= -.62636031E+02 E0= -.62636031E+02  d E =-.171224E-01  mag=     0.0000
       N       E                     dE             d eps       ncg     rms          rms(c)
DAV:   1    -0.626411208833E+02   -0.48423E-02   -0.12065E-02 10272   0.389E-01    0.487E-02
RMM:   2    -0.626411608605E+02   -0.39977E-04   -0.37150E-04  3646   0.677E-02
  12 F= -.62641161E+02 E0= -.62641161E+02  d E =-.512999E-02  mag=     0.0000
       N       E                     dE             d eps       ncg     rms          rms(c)
DAV:   1    -0.626548663580E+02   -0.13745E-01   -0.10776E-01  8224   0.116E+00    0.138E-01
RMM:   2    -0.626551201327E+02   -0.25377E-03   -0.31725E-03  5630   0.196E-01
  13 F= -.62655120E+02 E0= -.62655120E+02  d E =-.190893E-01  mag=     0.0000
       N       E                     dE             d eps       ncg     rms          rms(c)
DAV:   1    -0.626752051739E+02   -0.20339E-01   -0.43291E-01  8672   0.232E+00    0.280E-01
RMM:   2    -0.626761903035E+02   -0.98513E-03   -0.12598E-02  7032   0.389E-01    0.178E-01
RMM:   3    -0.626762482457E+02   -0.57942E-04   -0.81956E-04  5285   0.876E-02
  14 F= -.62676248E+02 E0= -.62676248E+02  d E =-.402174E-01  mag=    -0.0000
       N       E                     dE             d eps       ncg     rms          rms(c)
DAV:   1    -0.626819025126E+02   -0.57122E-02   -0.34335E-02 10016   0.743E-01    0.823E-02
RMM:   2    -0.626820040555E+02   -0.10154E-03   -0.19258E-03  4841   0.179E-01
  15 F= -.62682004E+02 E0= -.62682004E+02  d E =-.575581E-02  mag=    -0.0000
       N       E                     dE             d eps       ncg     rms          rms(c)
DAV:   1    -0.626836489312E+02   -0.17464E-02   -0.32489E-02  9344   0.720E-01    0.915E-02
RMM:   2    -0.626836688188E+02   -0.19888E-04   -0.13233E-03  4428   0.150E-01
  16 F= -.62683669E+02 E0= -.62683669E+02  d E =-.742057E-02  mag=    -0.0000
