unknown system                          
           1
     3.175272    0.161174    0.011341
    -0.240714    3.826558    0.229198
    -1.121092   -0.345620    8.412748
   H    Nb   H    Nb   H    Sr
   2   1   2   1   3   1
Direct configuration=     1
   0.61105991  0.49558083  0.80080420
   0.49749706  0.51208509  0.51950051
   0.07768276  0.50153012  0.66611017
   0.82484708  0.02761555  0.34162460
   0.28972569  0.10013537  0.18558775
   0.35822766  0.01284414  0.47610448
   0.74782522  0.61978351  0.20547538
   0.88345559  0.54932573  0.14352811
   0.25281429  0.25489613  0.11345045
   0.67796274  0.98960852  0.94769735
unknown system                          
           1
     3.182166    0.160940    0.010867
    -0.241773    3.830955    0.228328
    -1.124647   -0.348307    8.420499
   H    Nb   H    Nb   H    Sr
   2   1   2   1   3   1
Direct configuration=     2
   0.61134240  0.49576970  0.80092195
   0.49799278  0.51180622  0.51928394
   0.07726598  0.50125079  0.66642245
   0.82479445  0.02766556  0.34134802
   0.28951374  0.09993082  0.18581193
   0.35860806  0.01343285  0.47562171
   0.74726942  0.61935402  0.20571722
   0.88361730  0.54882520  0.14345759
   0.25260655  0.25566770  0.11333672
   0.67808733  0.98970214  0.94796146
unknown system                          
           1
     3.182433    0.160931    0.010849
    -0.241814    3.831125    0.228294
    -1.124784   -0.348411    8.420799
   H    Nb   H    Nb   H    Sr
   2   1   2   1   3   1
Direct configuration=     3
   0.61135332  0.49577700  0.80092651
   0.49801191  0.51179543  0.51927556
   0.07724989  0.50123999  0.66643453
   0.82479241  0.02766749  0.34133732
   0.28950556  0.09992292  0.18582060
   0.35862274  0.01345561  0.47560305
   0.74724795  0.61933742  0.20572657
   0.88362354  0.54880585  0.14345486
   0.25259853  0.25569752  0.11333233
   0.67809216  0.98970577  0.94797168
unknown system                          
           1
     3.187253    0.160731    0.011805
    -0.242453    3.833174    0.227270
    -1.123824   -0.350383    8.417131
   H    Nb   H    Nb   H    Sr
   2   1   2   1   3   1
Direct configuration=     4
   0.61163278  0.49603123  0.80103003
   0.49849563  0.51161372  0.51913132
   0.07744415  0.50113378  0.66628414
   0.82488158  0.02776087  0.34099753
   0.28905358  0.10022859  0.18590035
   0.35870159  0.01376866  0.47526799
   0.74739673  0.61813290  0.20562423
   0.88287513  0.54854674  0.14379430
   0.25237210  0.25631378  0.11338379
   0.67824472  0.98987472  0.94846932
unknown system                          
           1
     3.188230    0.160690    0.011999
    -0.242582    3.833590    0.227062
    -1.123629   -0.350783    8.416386
   H    Nb   H    Nb   H    Sr
   2   1   2   1   3   1
Direct configuration=     5
   0.61168940  0.49608280  0.80105104
   0.49859361  0.51157687  0.51910203
   0.07748350  0.50111223  0.66625361
   0.82489966  0.02777977  0.34092856
   0.28896204  0.10029057  0.18591655
   0.35871759  0.01383211  0.47519999
   0.74742682  0.61788866  0.20560342
   0.88272351  0.54849422  0.14386321
   0.25232626  0.25643874  0.11339426
   0.67827562  0.98990904  0.94857032
