unknown system                          
           1
     5.119275   -0.453387   -0.605550
    -0.159311    5.375654   -1.271507
     1.884560   -1.218946    4.646728
   Sr   Nb   H 
   1   2  12
Direct configuration=     1
   0.77157200  0.79233600  0.14770900
   0.36322300  0.14628700  0.91134200
   0.35890300  0.45293000  0.55878600
   0.69586600  0.99799800  0.70252200
   0.38119300  0.80264700  0.93287400
   0.15398800  0.18766900  0.30178300
   0.03627700  0.03647800  0.87925100
   0.57474900  0.19879200  0.19062400
   0.15468100  0.43931000  0.92360400
   0.58564800  0.37930800  0.77090200
   0.33907100  0.51690700  0.23996100
   0.03830000  0.59589000  0.62310600
   0.36453000  0.81118500  0.55760200
   0.69233500  0.55372700  0.45190600
   0.33331200  0.09432600  0.53528800
unknown system                          
           1
     5.161552   -0.458162   -0.610902
    -0.161326    5.425128   -1.283308
     1.900448   -1.230470    4.689559
   Sr   Nb   H 
   1   2  12
Direct configuration=     2
   0.77142651  0.79242421  0.14775364
   0.36313399  0.14554927  0.91038988
   0.35912402  0.45338419  0.55840208
   0.69504263  0.99858713  0.70290290
   0.38112099  0.80287662  0.93280918
   0.15423073  0.18764517  0.30151934
   0.03697705  0.03646868  0.87921709
   0.57439912  0.19893804  0.19088163
   0.15499658  0.43907287  0.92336080
   0.58538142  0.37946907  0.77112264
   0.33927111  0.51667668  0.24033612
   0.03899264  0.59545133  0.62317459
   0.36453567  0.81093709  0.55764745
   0.69163976  0.55369305  0.45213161
   0.33337580  0.09461660  0.53561104
unknown system                          
           1
     5.196861   -0.462150   -0.615371
    -0.163008    5.466448   -1.293165
     1.913718   -1.240095    4.725331
   Sr   Nb   H 
   1   2  12
Direct configuration=     3
   0.77130601  0.79249718  0.14779058
   0.36305999  0.14493865  0.90960187
   0.35930705  0.45376007  0.55808438
   0.69436075  0.99907457  0.70321806
   0.38106135  0.80306662  0.93275553
   0.15443172  0.18762547  0.30130116
   0.03755689  0.03646108  0.87918910
   0.57410937  0.19905886  0.19109481
   0.15525791  0.43887666  0.92315956
   0.58516067  0.37960234  0.77130522
   0.33943693  0.51648613  0.24064658
   0.03956633  0.59508843  0.62323142
   0.36454036  0.81073193  0.55768505
   0.69106393  0.55366484  0.45231826
   0.33342874  0.09485714  0.53587841
unknown system                          
           1
     5.221951   -0.465301   -0.620482
    -0.163910    5.486625   -1.292033
     1.919623   -1.242318    4.731737
   Sr   Nb   H 
   1   2  12
Direct configuration=     4
   0.77075895  0.79255957  0.14775845
   0.36345568  0.14594359  0.90940296
   0.35930743  0.45179829  0.55638603
   0.69136632  0.00044686  0.70428731
   0.38099991  0.80371373  0.93153284
   0.15665306  0.18837797  0.29987014
   0.04005253  0.03655770  0.87929233
   0.57182269  0.19997275  0.19192369
   0.15732788  0.43784003  0.92090467
   0.58282628  0.37917103  0.77169241
   0.34002022  0.51453072  0.24121814
   0.04229470  0.59381365  0.62338382
   0.36454944  0.81058751  0.55888265
   0.68837470  0.55350208  0.45288673
   0.33383820  0.09697451  0.53783783
unknown system                          
           1
     5.254787   -0.469426   -0.627171
    -0.165090    5.513033   -1.290552
     1.927352   -1.245228    4.740122
   Sr   Nb   H 
   1   2  12
Direct configuration=     5
   0.77004661  0.79264072  0.14771600
   0.36397180  0.14725380  0.90914162
   0.35930798  0.44924075  0.55416963
   0.68746685  0.00223484  0.70568055
   0.38092131  0.80455727  0.92993379
   0.15954746  0.18935967  0.29800014
   0.04330249  0.03668453  0.87942870
   0.56884479  0.20116338  0.19300400
   0.16002462  0.43648925  0.91796076
   0.57978571  0.37860795  0.77219761
   0.34077807  0.51198176  0.24196868
   0.04584677  0.59215274  0.62358684
   0.36456021  0.81039930  0.56044805
   0.68487207  0.55328899  0.45362818
   0.33437127  0.09973506  0.54039545
unknown system                          
           1
     5.274490   -0.474882   -0.636051
    -0.169333    5.500115   -1.281560
     1.925916   -1.240710    4.720448
   Sr   Nb   H 
   1   2  12
Direct configuration=     6
   0.76896120  0.79254428  0.14707722
   0.36242939  0.14490075  0.90963352
   0.35960947  0.45131996  0.55779257
   0.68494275  0.00332467  0.70583235
   0.38119746  0.80568983  0.92806897
   0.16243986  0.19024772  0.29609143
   0.04632111  0.03671396  0.87979110
   0.56653180  0.20098681  0.19250409
   0.16252383  0.43536645  0.91522771
   0.57696906  0.37875149  0.77239315
   0.34152514  0.50976300  0.24105113
   0.04848163  0.59057482  0.62397898
   0.36481877  0.81075592  0.56259915
   0.68178105  0.55306144  0.45382753
   0.33511549  0.10178892  0.54139111
unknown system                          
           1
     5.273557   -0.474623   -0.635630
    -0.169132    5.500727   -1.281985
     1.925984   -1.240924    4.721379
   Sr   Nb   H 
   1   2  12
Direct configuration=     7
   0.76901235  0.79254891  0.14710766
   0.36250230  0.14501251  0.90961012
   0.35959533  0.45122126  0.55762039
   0.68506172  0.00327306  0.70582537
   0.38118426  0.80563606  0.92815768
   0.16230330  0.19020543  0.29618202
   0.04617878  0.03671242  0.87977365
   0.56664086  0.20099529  0.19252802
   0.16240589  0.43541962  0.91535742
   0.57710188  0.37874481  0.77238407
   0.34149000  0.50986828  0.24109459
   0.04835749  0.59064959  0.62396006
   0.36480667  0.81073898  0.56249687
   0.68192684  0.55307238  0.45381827
   0.33508033  0.10169140  0.54134382
unknown system                          
           1
     5.295619   -0.478415   -0.644727
    -0.173066    5.481566   -1.279980
     1.924946   -1.240013    4.705403
   Sr   Nb   H 
   1   2  12
Direct configuration=     8
   0.76799291  0.79236589  0.14622375
   0.36381964  0.14621667  0.91044451
   0.36000626  0.45129130  0.55774865
   0.68428378  0.00326862  0.70509220
   0.38164234  0.80576906  0.92753001
   0.16343931  0.19064040  0.29638784
   0.04597077  0.03553100  0.87994245
   0.56539534  0.20039389  0.19236331
   0.16304147  0.43520284  0.91538714
   0.57546197  0.37915566  0.77311374
   0.34196699  0.50890161  0.23998076
   0.04883598  0.59018850  0.62496590
   0.36504044  0.81104792  0.56352271
   0.68128501  0.55364752  0.45372677
   0.33546580  0.10216911  0.54083025
unknown system                          
           1
     5.301252   -0.479382   -0.647049
    -0.174070    5.476674   -1.279467
     1.924681   -1.239780    4.701324
   Sr   Nb   H 
   1   2  12
Direct configuration=     9
   0.76773405  0.79231872  0.14599690
   0.36415437  0.14652556  0.91065895
   0.36011066  0.45130933  0.55778167
   0.68408629  0.00326726  0.70490409
   0.38175893  0.80580313  0.92736941
   0.16372800  0.19075206  0.29644106
   0.04591768  0.03522824  0.87998542
   0.56507878  0.20023956  0.19232055
   0.16320293  0.43514739  0.91539495
   0.57504512  0.37926079  0.77330013
   0.34208834  0.50865383  0.23969543
   0.04895724  0.59007055  0.62522368
   0.36509962  0.81112726  0.56378564
   0.68112203  0.55379478  0.45370319
   0.33556396  0.10229152  0.54069891
unknown system                          
           1
     5.325269   -0.484635   -0.655935
    -0.179442    5.464192   -1.280879
     1.925417   -1.242167    4.692179
   Sr   Nb   H 
   1   2  12
Direct configuration=    10
   0.76685243  0.79213110  0.14509499
   0.36296988  0.14629083  0.91018430
   0.36015088  0.45188901  0.55768372
   0.68392515  0.00314138  0.70401044
   0.38240584  0.80565663  0.92728764
   0.16444134  0.19095358  0.29728084
   0.04662624  0.03455033  0.88042685
   0.56444151  0.19940131  0.19228201
   0.16344370  0.43528968  0.91629323
   0.57416835  0.38022249  0.77411355
   0.34254953  0.50865376  0.23883186
   0.04925785  0.58976506  0.62626484
   0.36542681  0.81130499  0.56403305
   0.68099571  0.55457245  0.45361755
   0.33599279  0.10196741  0.53985513
unknown system                          
           1
     5.335249   -0.486818   -0.659627
    -0.181674    5.459006   -1.281465
     1.925723   -1.243158    4.688379
   Sr   Nb   H 
   1   2  12
Direct configuration=    11
   0.76648819  0.79205231  0.14471884
   0.36248026  0.14619247  0.90998586
   0.36016771  0.45213049  0.55764322
   0.68385880  0.00308857  0.70363819
   0.38267329  0.80559579  0.92725391
   0.16473603  0.19103807  0.29763102
   0.04691884  0.03426831  0.88061075
   0.56417780  0.19905186  0.19226520
   0.16354297  0.43534936  0.91666746
   0.57380584  0.38062311  0.77445216
   0.34274051  0.50865360  0.23847256
   0.04938168  0.58963825  0.62669840
   0.36556205  0.81137923  0.56413634
   0.68094374  0.55489635  0.45358218
   0.33617029  0.10183224  0.53950391
