 running on   32 total cores
 distrk:  each k-point on   32 cores,    1 groups
 distr:  one band on    8 cores,    4 groups
 using from now: INCAR     
 vasp.5.4.4.18Apr17-6-g9f103f2a35 (build Nov 01 2019 12:17:22) complex          
  
 POSCAR found type information on POSCAR  H  Sr H  Nb H  Nb
 POSCAR found :  6 types and      12 ions
 LDA part: xc-table for Pade appr. of Perdew
 generate k-points for:   12    9    6
 POSCAR, INCAR and KPOINTS ok, starting setup
 FFT: planning ...
 WAVECAR not read
 entering main loop
       N       E                     dE             d eps       ncg     rms          rms(c)
DAV:   1     0.218975551206E+03    0.21898E+03   -0.13839E+04 18616   0.821E+02
DAV:   2    -0.418443865414E+02   -0.26082E+03   -0.25503E+03 22548   0.369E+02
DAV:   3    -0.570377102525E+02   -0.15193E+02   -0.15004E+02 30672   0.754E+01
DAV:   4    -0.577202735088E+02   -0.68256E+00   -0.68011E+00 30632   0.120E+01
DAV:   5    -0.577319206830E+02   -0.11647E-01   -0.11643E-01 30124   0.148E+00    0.408E+01
DAV:   6    -0.539524502415E+02    0.37795E+01   -0.95708E+00 27968   0.201E+01    0.167E+01
DAV:   7    -0.533623379685E+02    0.59011E+00   -0.18465E+00 25808   0.783E+00    0.595E+00
DAV:   8    -0.533355293271E+02    0.26809E-01   -0.42719E-01 31112   0.431E+00    0.190E+00
DAV:   9    -0.533344240602E+02    0.11053E-02   -0.24791E-01 28584   0.360E+00    0.119E+00
DAV:  10    -0.533269189126E+02    0.75051E-02   -0.52174E-02 28376   0.176E+00    0.337E-01
DAV:  11    -0.533274682766E+02   -0.54936E-03   -0.37701E-03 24848   0.360E-01    0.111E-01
DAV:  12    -0.533275159208E+02   -0.47644E-04   -0.42178E-04 20664   0.177E-01
   1 F= -.53327516E+02 E0= -.53327625E+02  d E =-.533275E+02
 curvature:   0.00 expect dE= 0.000E+00 dE for cont linesearch  0.000E+00
 trial: gam= 0.00000 g(F)=  0.612E-03 g(S)=  0.109E-02 ort = 0.000E+00 (trialstep = 0.100E+01)
 search vector abs. value=  0.171E-02
 bond charge predicted
       N       E                     dE             d eps       ncg     rms          rms(c)
DAV:   1    -0.533291438913E+02   -0.16756E-02   -0.70647E-02 19992   0.200E+00    0.226E-01
DAV:   2    -0.533290600059E+02    0.83885E-04   -0.65484E-03 23712   0.620E-01    0.136E-01
DAV:   3    -0.533289346485E+02    0.12536E-03   -0.13488E-03 26016   0.336E-01    0.666E-02
DAV:   4    -0.533288369239E+02    0.97725E-04   -0.44562E-04 15996   0.186E-01
   2 F= -.53328837E+02 E0= -.53328947E+02  d E =-.132100E-02
 trial-energy change:   -0.001321  1 .order   -0.001316   -0.001706   -0.000925
 step:   2.1840(harm=  2.1840)  dis= 0.00469  next Energy=   -53.329379 (dE=-0.186E-02)
 bond charge predicted
       N       E                     dE             d eps       ncg     rms          rms(c)
DAV:   1    -0.533294739499E+02   -0.53930E-03   -0.96838E-02 18860   0.236E+00    0.253E-01
DAV:   2    -0.533293343637E+02    0.13959E-03   -0.87596E-03 23384   0.708E-01    0.146E-01
DAV:   3    -0.533291627318E+02    0.17163E-03   -0.16592E-03 26244   0.373E-01    0.805E-02
DAV:   4    -0.533290345784E+02    0.12815E-03   -0.61896E-04 18760   0.215E-01    0.519E-02
DAV:   5    -0.533290228194E+02    0.11759E-04   -0.80480E-05 11968   0.847E-02
   3 F= -.53329023E+02 E0= -.53329136E+02  d E =-.150690E-02
 curvature:  -1.09 expect dE=-0.325E-02 dE for cont linesearch -0.601E-04
 trial: gam= 1.92460 g(F)=  0.253E-02 g(S)=  0.447E-03 ort =-0.307E-03 (trialstep = 0.260E+00)
 search vector abs. value=  0.812E-02
 bond charge predicted
       N       E                     dE             d eps       ncg     rms          rms(c)
DAV:   1    -0.533296227136E+02   -0.58814E-03   -0.20074E-02 18660   0.944E-01    0.933E-02
DAV:   2    -0.533295402442E+02    0.82469E-04   -0.11779E-03 25880   0.289E-01    0.643E-02
DAV:   3    -0.533294953364E+02    0.44908E-04   -0.32787E-04 13620   0.175E-01
   4 F= -.53329495E+02 E0= -.53329611E+02  d E =-.472517E-03
 ZBRENT: can't locate minimum, use default step
 trial-energy change:   -0.000473  1 .order   -0.000554   -0.000621   -0.000488
 step:   1.0399(harm=  1.2138)  dis= 0.00425  next Energy=   -53.330472 (dE=-0.145E-02)
 bond charge predicted
       N       E                     dE             d eps       ncg     rms          rms(c)
DAV:   1    -0.533305780529E+02   -0.10378E-02   -0.17944E-01 18300   0.282E+00    0.279E-01
DAV:   2    -0.533298522496E+02    0.72580E-03   -0.10322E-02 26256   0.842E-01    0.199E-01
DAV:   3    -0.533294971758E+02    0.35507E-03   -0.33559E-03 27856   0.521E-01    0.112E-01
DAV:   4    -0.533292102767E+02    0.28690E-03   -0.11295E-03 25944   0.265E-01    0.249E-02
DAV:   5    -0.533292117364E+02   -0.14597E-05   -0.64205E-05 12432   0.659E-02
   5 F= -.53329212E+02 E0= -.53329335E+02  d E =-.188917E-03
 curvature:  -1.99 expect dE=-0.429E-02 dE for cont linesearch -0.823E-03
 trial: gam= 0.00000 g(F)=  0.168E-02 g(S)=  0.469E-03 ort =-0.183E-02 (trialstep = 0.416E+00)
 search vector abs. value=  0.215E-02
 reached required accuracy - stopping structural energy minimisation
