  13  13   0   0
  0.5806427E+01  0.4040120E-09  0.2847610E-09  0.6580463E-09  0.5000000E-15
  1.000000000000000E-004
  CAR 
 unknown system                          
     13.78994429    -13.69799318  301     -1.99552375      1.00000000
    -13.698  0.0000E+00  0.0000E+00
    -13.606  0.0000E+00  0.0000E+00
    -13.515  0.0000E+00  0.0000E+00
    -13.423  0.0000E+00  0.0000E+00
    -13.331  0.5578E-35  0.5111E-36
    -13.240  0.1828E-28  0.1675E-29
    -13.148  0.1069E-22  0.9794E-24
    -13.057  0.1102E-17  0.1010E-18
    -12.965  0.1976E-13  0.1810E-14
    -12.873  0.5979E-10  0.5480E-11
    -12.782  0.2935E-07  0.2695E-08
    -12.690  0.2110E-05  0.1960E-06
    -12.598  0.1116E-04  0.1219E-05
    -12.507 -0.8118E-04 -0.6220E-05
    -12.415  0.8531E-03  0.7195E-04
    -12.324  0.5116E-02  0.5407E-03
    -12.232  0.9124E-02  0.1377E-02
    -12.140  0.1090E-01  0.2375E-02
    -12.049  0.1234E-01  0.3506E-02
    -11.957  0.1250E-01  0.4652E-02
    -11.865  0.1536E-01  0.6059E-02
    -11.774  0.1237E-01  0.7192E-02
    -11.682  0.1447E-01  0.8518E-02
    -11.591  0.1978E-01  0.1033E-01
    -11.499  0.1248E-01  0.1147E-01
    -11.407  0.1297E-01  0.1266E-01
    -11.316  0.1226E-01  0.1378E-01
    -11.224  0.7847E-02  0.1450E-01
    -11.132  0.4845E-02  0.1495E-01
    -11.041  0.7513E-02  0.1564E-01
    -10.949  0.1004E-01  0.1656E-01
    -10.858  0.1565E-01  0.1799E-01
    -10.766  0.1114E-01  0.1901E-01
    -10.674  0.7761E-02  0.1972E-01
    -10.583  0.1149E-01  0.2078E-01
    -10.491  0.8332E-02  0.2154E-01
    -10.399  0.1117E-01  0.2256E-01
    -10.308  0.1855E-01  0.2426E-01
    -10.216  0.2026E-01  0.2612E-01
    -10.125  0.2242E-01  0.2817E-01
    -10.033  0.1782E-01  0.2981E-01
     -9.941  0.1470E-01  0.3115E-01
     -9.850  0.1641E-01  0.3266E-01
     -9.758  0.1635E-01  0.3415E-01
     -9.666  0.2097E-01  0.3607E-01
     -9.575  0.2331E-01  0.3821E-01
     -9.483  0.2626E-01  0.4062E-01
     -9.392  0.2096E-01  0.4254E-01
     -9.300  0.1817E-01  0.4420E-01
     -9.208  0.1538E-01  0.4561E-01
     -9.117  0.2185E-01  0.4761E-01
     -9.025  0.1771E-01  0.4924E-01
     -8.933  0.1906E-01  0.5098E-01
     -8.842  0.1883E-01  0.5271E-01
     -8.750  0.3056E-01  0.5551E-01
     -8.659  0.3061E-01  0.5831E-01
     -8.567  0.3387E-01  0.6141E-01
     -8.475  0.3312E-01  0.6445E-01
     -8.384  0.4246E-01  0.6834E-01
     -8.292  0.4080E-01  0.7208E-01
     -8.200  0.3712E-01  0.7548E-01
     -8.109  0.4362E-01  0.7948E-01
     -8.017  0.3409E-01  0.8260E-01
     -7.926  0.2973E-01  0.8532E-01
     -7.834  0.3851E-01  0.8885E-01
     -7.742  0.4332E-01  0.9282E-01
     -7.651  0.3474E-01  0.9600E-01
     -7.559  0.3353E-01  0.9908E-01
     -7.467  0.4253E-01  0.1030E+00
     -7.376  0.3714E-01  0.1064E+00
     -7.284  0.4625E-01  0.1106E+00
     -7.193  0.4308E-01  0.1146E+00
     -7.101  0.4499E-01  0.1187E+00
     -7.009  0.6283E-01  0.1244E+00
     -6.918  0.5375E-01  0.1294E+00
     -6.826  0.5878E-01  0.1348E+00
     -6.734  0.5644E-01  0.1399E+00
     -6.643  0.5916E-01  0.1453E+00
     -6.551  0.5755E-01  0.1506E+00
     -6.460  0.6493E-01  0.1566E+00
     -6.368  0.6475E-01  0.1625E+00
     -6.276  0.5708E-01  0.1677E+00
     -6.185  0.7525E-01  0.1746E+00
     -6.093  0.6793E-01  0.1808E+00
     -6.001  0.5234E-01  0.1856E+00
     -5.910  0.5884E-01  0.1910E+00
     -5.818  0.4256E-01  0.1949E+00
     -5.726  0.3228E-01  0.1979E+00
     -5.635  0.2841E-01  0.2005E+00
     -5.543  0.1302E-01  0.2017E+00
     -5.452 -0.3917E-03  0.2017E+00
     -5.360  0.1113E-02  0.2018E+00
     -5.268  0.7864E-02  0.2025E+00
     -5.177  0.1254E-01  0.2036E+00
     -5.085  0.1057E-01  0.2046E+00
     -4.993  0.4965E-02  0.2050E+00
     -4.902  0.6503E-02  0.2056E+00
     -4.810  0.6582E-02  0.2062E+00
     -4.719  0.8359E-02  0.2070E+00
     -4.627  0.1583E-02  0.2072E+00
     -4.535 -0.1948E-03  0.2071E+00
     -4.444  0.2221E-04  0.2071E+00
     -4.352  0.3271E-05  0.2071E+00
     -4.260  0.3370E-07  0.2071E+00
     -4.169  0.1956E-06  0.2071E+00
     -4.077  0.1449E-04  0.2071E+00
     -3.986  0.3693E-04  0.2071E+00
     -3.894 -0.6069E-03  0.2071E+00
     -3.802  0.7095E-02  0.2077E+00
     -3.711  0.1896E-01  0.2095E+00
     -3.619  0.1667E-01  0.2110E+00
     -3.527  0.1020E-01  0.2119E+00
     -3.436 -0.3895E-03  0.2119E+00
     -3.344 -0.3315E-04  0.2119E+00
     -3.253  0.2528E-04  0.2119E+00
     -3.161  0.4257E-06  0.2119E+00
     -3.069  0.9246E-09  0.2119E+00
     -2.978  0.3229E-12  0.2119E+00
     -2.886  0.1933E-16  0.2119E+00
     -2.794  0.3139E-20  0.2119E+00
     -2.703  0.2150E-15  0.2119E+00
     -2.611  0.2622E-11  0.2119E+00
     -2.520  0.5523E-08  0.2119E+00
     -2.428  0.1878E-05  0.2119E+00
     -2.336  0.8062E-04  0.2119E+00
     -2.245 -0.2666E-03  0.2119E+00
     -2.153 -0.3204E-03  0.2119E+00
     -2.061  0.3118E-01  0.2147E+00
     -1.970  0.2310E-01  0.2168E+00
     -1.878 -0.1911E-02  0.2167E+00
     -1.787  0.6153E-04  0.2167E+00
     -1.695  0.4257E-04  0.2167E+00
     -1.603  0.5267E-06  0.2167E+00
     -1.512  0.8896E-09  0.2167E+00
     -1.420  0.2457E-12  0.2167E+00
     -1.328  0.1154E-16  0.2167E+00
     -1.237  0.0000E+00  0.2167E+00
     -1.145  0.5942E-35  0.2167E+00
     -1.054  0.4362E-28  0.2167E+00
     -0.962  0.3162E-22  0.2167E+00
     -0.870  0.4174E-17  0.2167E+00
     -0.779  0.9937E-13  0.2167E+00
     -0.687  0.4154E-09  0.2167E+00
     -0.595  0.2895E-06  0.2167E+00
     -0.504  0.2878E-04  0.2167E+00
     -0.412  0.1285E-03  0.2167E+00
     -0.321 -0.1930E-02  0.2165E+00
     -0.229  0.1784E-01  0.2181E+00
     -0.137  0.3464E-01  0.2213E+00
     -0.046  0.1733E-02  0.2215E+00
      0.046 -0.5829E-03  0.2214E+00
      0.138  0.1083E-03  0.2214E+00
      0.229  0.3682E-05  0.2214E+00
      0.321  0.1442E-07  0.2214E+00
      0.412  0.8897E-11  0.2214E+00
      0.504  0.9368E-15  0.2214E+00
      0.596  0.0000E+00  0.2214E+00
      0.687  0.0000E+00  0.2214E+00
      0.779  0.0000E+00  0.2214E+00
      0.871  0.7928E-34  0.2214E+00
      0.962  0.2565E-27  0.2214E+00
      1.054  0.1423E-21  0.2214E+00
      1.145  0.1414E-16  0.2214E+00
      1.237  0.2486E-12  0.2214E+00
      1.329  0.7514E-09  0.2214E+00
      1.420  0.3696E-06  0.2214E+00
      1.512  0.2479E-04  0.2214E+00
      1.604  0.2341E-04  0.2214E+00
      1.695 -0.7909E-03  0.2214E+00
      1.787  0.1129E-01  0.2224E+00
      1.879  0.2612E-01  0.2248E+00
      1.970  0.1549E-01  0.2262E+00
      2.062 -0.1034E-03  0.2262E+00
      2.153 -0.2533E-03  0.2262E+00
      2.245  0.2572E-02  0.2264E+00
      2.337  0.7013E-02  0.2271E+00
      2.428  0.1217E-01  0.2282E+00
      2.520  0.1619E-01  0.2297E+00
      2.612  0.1317E-01  0.2309E+00
      2.703  0.1627E-01  0.2324E+00
      2.795  0.2042E-01  0.2342E+00
      2.886  0.1977E-01  0.2360E+00
      2.978  0.1854E-01  0.2377E+00
      3.070  0.3027E-01  0.2405E+00
      3.161  0.3961E-01  0.2441E+00
      3.253  0.3354E-01  0.2472E+00
      3.345  0.3366E-01  0.2503E+00
      3.436  0.3965E-01  0.2539E+00
      3.528  0.4160E-01  0.2577E+00
      3.619  0.4159E-01  0.2615E+00
      3.711  0.4257E-01  0.2654E+00
      3.803  0.4040E-01  0.2691E+00
      3.894  0.4202E-01  0.2730E+00
      3.986  0.5373E-01  0.2779E+00
      4.078  0.5795E-01  0.2832E+00
      4.169  0.5896E-01  0.2886E+00
      4.261  0.6023E-01  0.2942E+00
      4.352  0.5010E-01  0.2987E+00
      4.444  0.3435E-01  0.3019E+00
      4.536  0.4109E-01  0.3057E+00
      4.627  0.4120E-01  0.3094E+00
      4.719  0.3305E-01  0.3125E+00
      4.811  0.4054E-01  0.3162E+00
      4.902  0.4043E-01  0.3199E+00
      4.994  0.4571E-01  0.3241E+00
      5.085  0.4408E-01  0.3281E+00
      5.177  0.3749E-01  0.3315E+00
      5.269  0.3508E-01  0.3348E+00
      5.360  0.3628E-01  0.3381E+00
      5.452  0.2278E-01  0.3402E+00
      5.544  0.2463E-01  0.3424E+00
      5.635  0.3417E-01  0.3456E+00
      5.727  0.3540E-01  0.3488E+00
      5.818  0.3192E-01  0.3517E+00
      5.910  0.3763E-01  0.3552E+00
      6.002  0.3639E-01  0.3585E+00
      6.093  0.3062E-01  0.3613E+00
      6.185  0.4119E-01  0.3651E+00
      6.277  0.5043E-01  0.3697E+00
      6.368  0.4389E-01  0.3737E+00
      6.460  0.3850E-01  0.3773E+00
      6.551  0.3345E-01  0.3803E+00
      6.643  0.3157E-01  0.3832E+00
      6.735  0.3611E-01  0.3865E+00
      6.826  0.4081E-01  0.3903E+00
      6.918  0.3917E-01  0.3938E+00
      7.010  0.3049E-01  0.3966E+00
      7.101  0.2589E-01  0.3990E+00
      7.193  0.3782E-01  0.4025E+00
      7.284  0.3894E-01  0.4060E+00
      7.376  0.2648E-01  0.4085E+00
      7.468  0.2906E-01  0.4111E+00
      7.559  0.3297E-01  0.4142E+00
      7.651  0.3020E-01  0.4169E+00
      7.743  0.2095E-01  0.4188E+00
      7.834  0.2087E-01  0.4208E+00
      7.926  0.2173E-01  0.4227E+00
      8.017  0.2306E-01  0.4249E+00
      8.109  0.2633E-01  0.4273E+00
      8.201  0.3090E-01  0.4301E+00
      8.292  0.2531E-01  0.4324E+00
      8.384  0.2408E-01  0.4346E+00
      8.476  0.2940E-01  0.4373E+00
      8.567  0.3288E-01  0.4403E+00
      8.659  0.3333E-01  0.4434E+00
      8.750  0.3663E-01  0.4467E+00
      8.842  0.3325E-01  0.4498E+00
      8.934  0.3979E-01  0.4534E+00
      9.025  0.3073E-01  0.4563E+00
      9.117  0.2750E-01  0.4588E+00
      9.209  0.3536E-01  0.4620E+00
      9.300  0.4161E-01  0.4658E+00
      9.392  0.3414E-01  0.4690E+00
      9.484  0.4232E-01  0.4728E+00
      9.575  0.3756E-01  0.4763E+00
      9.667  0.3617E-01  0.4796E+00
      9.758  0.3981E-01  0.4832E+00
      9.850  0.3346E-01  0.4863E+00
      9.942  0.3027E-01  0.4891E+00
     10.033  0.3842E-01  0.4926E+00
     10.125  0.2983E-01  0.4953E+00
     10.217  0.2659E-01  0.4978E+00
     10.308  0.2323E-01  0.4999E+00
     10.400  0.2429E-01  0.5021E+00
     10.491  0.3521E-01  0.5053E+00
     10.583  0.2588E-01  0.5077E+00
     10.675  0.2152E-01  0.5097E+00
     10.766  0.2171E-01  0.5117E+00
     10.858  0.2041E-01  0.5135E+00
     10.950  0.2148E-01  0.5155E+00
     11.041  0.2278E-01  0.5176E+00
     11.133  0.2133E-01  0.5196E+00
     11.224  0.1889E-01  0.5213E+00
     11.316  0.1769E-01  0.5229E+00
     11.408  0.1832E-01  0.5246E+00
     11.499  0.1011E-01  0.5255E+00
     11.591  0.1838E-01  0.5272E+00
     11.683  0.1544E-01  0.5286E+00
     11.774  0.8765E-02  0.5294E+00
     11.866  0.7190E-02  0.5301E+00
     11.957  0.7096E-02  0.5307E+00
     12.049  0.5154E-02  0.5312E+00
     12.141  0.4759E-02  0.5316E+00
     12.232  0.7822E-02  0.5323E+00
     12.324  0.6808E-02  0.5330E+00
     12.416  0.1752E-02  0.5331E+00
     12.507  0.1304E-02  0.5333E+00
     12.599  0.9025E-03  0.5333E+00
     12.690 -0.9499E-05  0.5333E+00
     12.782 -0.6522E-05  0.5333E+00
     12.874  0.2466E-05  0.5333E+00
     12.965  0.4853E-07  0.5333E+00
     13.057  0.1110E-09  0.5333E+00
     13.149  0.3835E-13  0.5333E+00
     13.240  0.2212E-17  0.5333E+00
     13.332  0.0000E+00  0.5333E+00
     13.423  0.0000E+00  0.5333E+00
     13.515  0.0000E+00  0.5333E+00
     13.607  0.0000E+00  0.5333E+00
     13.698  0.0000E+00  0.5333E+00
     13.790  0.0000E+00  0.5333E+00
