   23   23   99    2
  0.7676023E+01  0.3374915E-09  0.6672195E-09  0.8007071E-09  0.5000000E-15
  1.000000000000000E-004
  CAR 
 unknown system                          
     72     32     64
 
  0.3742002E-15  0.3742002E-15  0.3742002E-15  0.1587302E-01
    1      -32.511635    -32.511639   1.000000   1.000000
    2      -29.199023    -29.198976   1.000000   1.000000
    3      -29.043817    -29.043789   1.000000   1.000000
    4      -28.985406    -28.985348   1.000000   1.000000
    5      -28.954823    -28.954814   1.000000   1.000000
    6      -28.763997    -28.763997   1.000000   1.000000
    7      -28.746146    -28.746147   1.000000   1.000000
    8      -28.688633    -28.688632   1.000000   1.000000
    9      -28.601152    -28.601153   1.000000   1.000000
   10      -28.455556    -28.455556   1.000000   1.000000
   11      -28.123565    -28.123569   1.000000   1.000000
   12      -28.056052    -28.056050   1.000000   1.000000
   13      -27.959320    -27.959321   1.000000   1.000000
   14      -14.623601    -14.623598   1.000000   1.000000
   15      -14.589063    -14.589060   1.000000   1.000000
   16      -14.313849    -14.313847   1.000000   1.000000
   17       -7.169174     -7.169168   1.000000   1.000000
   18       -5.652082     -5.652076   1.000000   1.000000
   19       -4.593355     -4.593348   1.000000   1.000000
   20       -4.510542     -4.510535   1.000000   1.000000
   21       -4.124380     -4.124377   1.000000   1.000000
   22       -3.258191     -3.258185   1.000000   1.000000
   23       -3.076491     -3.076486   1.000000   1.000000
   24       -2.613026     -2.613022   1.000000   1.000000
   25       -2.123029     -2.123019   1.000000   1.000000
   26       -1.807973     -1.807971   1.000000   1.000000
   27       -1.333117     -1.333112   1.000000   1.000000
   28       -1.032010     -1.032003   1.000000   1.000000
   29       -0.700791     -0.700787   1.000000   1.000000
   30       -0.434733     -0.434729   1.000000   1.000000
   31        0.582338      0.582343   1.000000   1.000000
   32        0.839355      0.839369   1.000000   1.000000
   33        1.372239      1.372242   1.000000   1.000000
   34        2.120185      2.120193   1.000000   1.000000
   35        2.280212      2.280233   1.000000   1.000000
   36        2.430409      2.430426   0.471981   0.471842
   37        3.217127      3.217153   0.000000   0.000000
   38        3.437838      3.437856   0.000000   0.000000
   39        3.618514      3.618523   0.000000   0.000000
   40        3.869436      3.869472   0.000000   0.000000
   41        4.030657      4.030685   0.000000   0.000000
   42        4.512811      4.512808   0.000000   0.000000
   43        4.729778      4.729794   0.000000   0.000000
   44        5.249021      5.249034   0.000000   0.000000
   45        5.377849      5.377850   0.000000   0.000000
   46        5.594954      5.594965   0.000000   0.000000
   47        5.962453      5.962458   0.000000   0.000000
   48        6.360911      6.360915   0.000000   0.000000
   49        6.998887      6.998894   0.000000   0.000000
   50        7.516697      7.516702   0.000000   0.000000
   51        7.739395      7.739401   0.000000   0.000000
   52        8.130945      8.130952   0.000000   0.000000
   53        8.346544      8.346554   0.000000   0.000000
   54        8.559023      8.559027   0.000000   0.000000
   55        8.904061      8.904071   0.000000   0.000000
   56        9.052628      9.052632   0.000000   0.000000
   57        9.290555      9.290565   0.000000   0.000000
   58        9.834224      9.834230   0.000000   0.000000
   59       10.382280     10.382281   0.000000   0.000000
   60       10.698862     10.698877   0.000000   0.000000
   61       10.847165     10.847168   0.000000   0.000000
   62       11.238000     11.238003   0.000000   0.000000
   63       11.687027     11.687020   0.000000   0.000000
   64       11.891309     11.891359   0.000000   0.000000
 
  0.1428571E+00  0.3709394E-15  0.3742666E-15  0.3174603E-01
    1      -32.496974    -32.496978   1.000000   1.000000
    2      -29.195311    -29.195264   1.000000   1.000000
    3      -29.047718    -29.047677   1.000000   1.000000
    4      -29.016414    -29.016368   1.000000   1.000000
    5      -28.949652    -28.949643   1.000000   1.000000
    6      -28.789942    -28.789945   1.000000   1.000000
    7      -28.755006    -28.755005   1.000000   1.000000
    8      -28.692560    -28.692558   1.000000   1.000000
    9      -28.636082    -28.636084   1.000000   1.000000
   10      -28.449806    -28.449806   1.000000   1.000000
   11      -28.140407    -28.140411   1.000000   1.000000
   12      -28.073464    -28.073462   1.000000   1.000000
   13      -27.959035    -27.959036   1.000000   1.000000
   14      -14.595418    -14.595415   1.000000   1.000000
   15      -14.566155    -14.566152   1.000000   1.000000
   16      -14.485976    -14.485974   1.000000   1.000000
   17       -6.914602     -6.914597   1.000000   1.000000
   18       -5.515627     -5.515621   1.000000   1.000000
   19       -4.297930     -4.297924   1.000000   1.000000
   20       -4.245575     -4.245567   1.000000   1.000000
   21       -3.994459     -3.994456   1.000000   1.000000
   22       -3.185061     -3.185056   1.000000   1.000000
   23       -2.928628     -2.928623   1.000000   1.000000
   24       -2.542434     -2.542430   1.000000   1.000000
   25       -2.148594     -2.148587   1.000000   1.000000
   26       -1.878097     -1.878093   1.000000   1.000000
   27       -1.362732     -1.362726   1.000000   1.000000
   28       -0.949438     -0.949433   1.000000   1.000000
   29       -0.712446     -0.712442   1.000000   1.000000
   30       -0.590599     -0.590595   1.000000   1.000000
   31        0.343275      0.343287   1.000000   1.000000
   32        0.485502      0.485506   1.000000   1.000000
   33        0.893801      0.893810   1.000000   1.000000
   34        1.770720      1.770726   1.000000   1.000000
   35        2.023451      2.023471   1.000000   1.000000
   36        2.192729      2.192742   1.102996   1.103004
   37        3.027474      3.027496   0.000000   0.000000
   38        3.329438      3.329450   0.000000   0.000000
   39        3.695962      3.696010   0.000000   0.000000
   40        4.174789      4.174803   0.000000   0.000000
   41        4.336726      4.336740   0.000000   0.000000
   42        4.777714      4.777719   0.000000   0.000000
   43        4.826557      4.826568   0.000000   0.000000
   44        5.253113      5.253129   0.000000   0.000000
   45        5.554390      5.554391   0.000000   0.000000
   46        5.851810      5.851816   0.000000   0.000000
   47        6.255946      6.255958   0.000000   0.000000
   48        6.510569      6.510574   0.000000   0.000000
   49        7.060355      7.060361   0.000000   0.000000
   50        7.337433      7.337438   0.000000   0.000000
   51        7.618684      7.618691   0.000000   0.000000
   52        8.145453      8.145459   0.000000   0.000000
   53        8.362552      8.362561   0.000000   0.000000
   54        8.637920      8.637927   0.000000   0.000000
   55        8.853685      8.853693   0.000000   0.000000
   56        9.054993      9.055000   0.000000   0.000000
   57        9.500837      9.500843   0.000000   0.000000
   58       10.024575     10.024580   0.000000   0.000000
   59       10.149700     10.149706   0.000000   0.000000
   60       10.509616     10.509623   0.000000   0.000000
   61       10.773282     10.773293   0.000000   0.000000
   62       11.044614     11.044618   0.000000   0.000000
   63       11.521784     11.521797   0.000000   0.000000
   64       12.018899     12.020740   0.000000   0.000000
 
  0.2857143E+00  0.3676936E-15  0.3738329E-15  0.3174603E-01
    1      -32.463764    -32.463768   1.000000   1.000000
    2      -29.187736    -29.187689   1.000000   1.000000
    3      -29.125350    -29.125292   1.000000   1.000000
    4      -29.015788    -29.015760   1.000000   1.000000
    5      -28.937921    -28.937912   1.000000   1.000000
    6      -28.878500    -28.878504   1.000000   1.000000
    7      -28.756848    -28.756847   1.000000   1.000000
    8      -28.730176    -28.730176   1.000000   1.000000
    9      -28.672410    -28.672408   1.000000   1.000000
   10      -28.437670    -28.437670   1.000000   1.000000
   11      -28.199723    -28.199726   1.000000   1.000000
   12      -28.084760    -28.084759   1.000000   1.000000
   13      -27.961104    -27.961105   1.000000   1.000000
   14      -14.856379    -14.856378   1.000000   1.000000
   15      -14.531208    -14.531205   1.000000   1.000000
   16      -14.506720    -14.506716   1.000000   1.000000
   17       -6.293633     -6.293630   1.000000   1.000000
   18       -5.173717     -5.173711   1.000000   1.000000
   19       -3.997137     -3.997130   1.000000   1.000000
   20       -3.606644     -3.606638   1.000000   1.000000
   21       -3.496694     -3.496688   1.000000   1.000000
   22       -2.939143     -2.939138   1.000000   1.000000
   23       -2.689530     -2.689526   1.000000   1.000000
   24       -2.413458     -2.413452   1.000000   1.000000
   25       -2.243192     -2.243186   1.000000   1.000000
   26       -1.862472     -1.862467   1.000000   1.000000
   27       -1.463086     -1.463074   1.000000   1.000000
   28       -1.162228     -1.162222   1.000000   1.000000
   29       -0.858467     -0.858463   1.000000   1.000000
   30       -0.654682     -0.654678   1.000000   1.000000
   31       -0.123019     -0.123012   1.000000   1.000000
   32       -0.001158     -0.001150   1.000000   1.000000
   33        0.459935      0.459944   1.000000   1.000000
   34        1.284961      1.284968   1.000000   1.000000
   35        1.533901      1.533918   1.000000   1.000000
   36        1.775220      1.775226   1.000000   1.000000
   37        2.893884      2.893915  -0.058466  -0.058431
   38        3.299025      3.299044   0.000000   0.000000
   39        3.348990      3.349022   0.000000   0.000000
   40        4.511220      4.511231   0.000000   0.000000
   41        4.598595      4.598609   0.000000   0.000000
   42        5.127675      5.127683   0.000000   0.000000
   43        5.317264      5.317277   0.000000   0.000000
   44        5.498690      5.498692   0.000000   0.000000
   45        5.695772      5.695781   0.000000   0.000000
   46        5.949237      5.949245   0.000000   0.000000
   47        6.277581      6.277586   0.000000   0.000000
   48        6.769028      6.769036   0.000000   0.000000
   49        7.010449      7.010458   0.000000   0.000000
   50        7.472499      7.472509   0.000000   0.000000
   51        7.814849      7.814856   0.000000   0.000000
   52        8.210792      8.210799   0.000000   0.000000
   53        8.402717      8.402730   0.000000   0.000000
   54        8.733559      8.733565   0.000000   0.000000
   55        8.848483      8.848493   0.000000   0.000000
   56        9.175484      9.175489   0.000000   0.000000
   57        9.360065      9.360071   0.000000   0.000000
   58        9.742219      9.742223   0.000000   0.000000
   59       10.089082     10.089088   0.000000   0.000000
   60       10.261807     10.261811   0.000000   0.000000
   61       10.626230     10.626238   0.000000   0.000000
   62       11.089818     11.089828   0.000000   0.000000
   63       11.223989     11.223995   0.000000   0.000000
   64       11.767549     11.767854   0.000000   0.000000
 
  0.4285714E+00  0.3640751E-15  0.3747003E-15  0.3174603E-01
    1      -32.436853    -32.436857   1.000000   1.000000
    2      -29.202324    -29.202267   1.000000   1.000000
    3      -29.175844    -29.175794   1.000000   1.000000
    4      -29.005863    -29.005836   1.000000   1.000000
    5      -28.949691    -28.949694   1.000000   1.000000
    6      -28.928606    -28.928597   1.000000   1.000000
    7      -28.808933    -28.808934   1.000000   1.000000
    8      -28.735449    -28.735448   1.000000   1.000000
    9      -28.676228    -28.676226   1.000000   1.000000
   10      -28.430226    -28.430226   1.000000   1.000000
   11      -28.244967    -28.244969   1.000000   1.000000
   12      -28.087071    -28.087071   1.000000   1.000000
   13      -27.964748    -27.964748   1.000000   1.000000
   14      -15.130964    -15.130962   1.000000   1.000000
   15      -14.481868    -14.481865   1.000000   1.000000
   16      -14.457743    -14.457739   1.000000   1.000000
   17       -5.732031     -5.732031   1.000000   1.000000
   18       -4.769094     -4.769088   1.000000   1.000000
   19       -4.113413     -4.113404   1.000000   1.000000
   20       -3.379976     -3.379969   1.000000   1.000000
   21       -3.008442     -3.008435   1.000000   1.000000
   22       -2.612975     -2.612967   1.000000   1.000000
   23       -2.422485     -2.422480   1.000000   1.000000
   24       -2.189452     -2.189446   1.000000   1.000000
   25       -1.998459     -1.998454   1.000000   1.000000
   26       -1.885254     -1.885249   1.000000   1.000000
   27       -1.748087     -1.748080   1.000000   1.000000
   28       -1.266277     -1.266271   1.000000   1.000000
   29       -1.134321     -1.134317   1.000000   1.000000
   30       -0.933579     -0.933576   1.000000   1.000000
   31       -0.384542     -0.384533   1.000000   1.000000
   32       -0.077990     -0.077984   1.000000   1.000000
   33        0.125262      0.125271   1.000000   1.000000
   34        1.024381      1.024385   1.000000   1.000000
   35        1.177473      1.177486   1.000000   1.000000
   36        1.683658      1.683664   1.000000   1.000000
   37        2.890031      2.890092  -0.067827  -0.067804
   38        3.423460      3.423479   0.000000   0.000000
   39        3.729483      3.729486   0.000000   0.000000
   40        4.625119      4.625141   0.000000   0.000000
   41        4.887674      4.887680   0.000000   0.000000
   42        5.210243      5.210258   0.000000   0.000000
   43        5.321432      5.321441   0.000000   0.000000
   44        5.483046      5.483055   0.000000   0.000000
   45        5.601569      5.601573   0.000000   0.000000
   46        5.901392      5.901396   0.000000   0.000000
   47        6.173453      6.173459   0.000000   0.000000
   48        6.572654      6.572661   0.000000   0.000000
   49        7.108288      7.108292   0.000000   0.000000
   50        7.471779      7.471789   0.000000   0.000000
   51        7.868332      7.868340   0.000000   0.000000
   52        8.061501      8.061514   0.000000   0.000000
   53        8.430496      8.430506   0.000000   0.000000
   54        8.515845      8.515855   0.000000   0.000000
   55        8.750356      8.750361   0.000000   0.000000
   56        9.035325      9.035331   0.000000   0.000000
   57        9.574470      9.574477   0.000000   0.000000
   58        9.803097      9.803103   0.000000   0.000000
   59        9.987853      9.987866   0.000000   0.000000
   60       10.286385     10.286392   0.000000   0.000000
   61       10.627168     10.627179   0.000000   0.000000
   62       10.959552     10.959562   0.000000   0.000000
   63       11.224748     11.224752   0.000000   0.000000
   64       11.503156     11.503168   0.000000   0.000000
 
  0.3738329E-15  0.3333333E+00  0.3677614E-15  0.3174603E-01
    1      -32.511616    -32.511620   1.000000   1.000000
    2      -29.166921    -29.166868   1.000000   1.000000
    3      -29.037287    -29.037258   1.000000   1.000000
    4      -28.988506    -28.988462   1.000000   1.000000
    5      -28.973317    -28.973296   1.000000   1.000000
    6      -28.779564    -28.779565   1.000000   1.000000
    7      -28.749356    -28.749358   1.000000   1.000000
    8      -28.688703    -28.688702   1.000000   1.000000
    9      -28.600978    -28.600980   1.000000   1.000000
   10      -28.455303    -28.455303   1.000000   1.000000
   11      -28.122760    -28.122764   1.000000   1.000000
   12      -28.055178    -28.055177   1.000000   1.000000
   13      -27.962129    -27.962131   1.000000   1.000000
   14      -14.625077    -14.625073   1.000000   1.000000
   15      -14.589463    -14.589460   1.000000   1.000000
   16      -14.313840    -14.313838   1.000000   1.000000
   17       -6.815323     -6.815319   1.000000   1.000000
   18       -5.895181     -5.895172   1.000000   1.000000
   19       -5.097025     -5.097020   1.000000   1.000000
   20       -4.164569     -4.164563   1.000000   1.000000
   21       -3.982948     -3.982945   1.000000   1.000000
   22       -3.399747     -3.399742   1.000000   1.000000
   23       -3.107223     -3.107217   1.000000   1.000000
   24       -2.553068     -2.553061   1.000000   1.000000
   25       -2.291446     -2.291439   1.000000   1.000000
   26       -1.709655     -1.709652   1.000000   1.000000
   27       -1.166041     -1.166036   1.000000   1.000000
   28       -0.957669     -0.957662   1.000000   1.000000
   29       -0.672513     -0.672508   1.000000   1.000000
   30       -0.321742     -0.321739   1.000000   1.000000
   31        0.203486      0.203490   1.000000   1.000000
   32        0.861909      0.861915   1.000000   1.000000
   33        0.930990      0.930999   1.000000   1.000000
   34        2.011699      2.011705   1.000000   1.000000
   35        2.398062      2.398089   1.000000   1.000000
   36        2.520847      2.520862   0.234735   0.234670
   37        3.007980      3.008005   0.000000   0.000000
   38        3.506831      3.506858   0.000000   0.000000
   39        3.695887      3.695928   0.000000   0.000000
   40        3.897768      3.897776   0.000000   0.000000
   41        4.389061      4.389071   0.000000   0.000000
   42        4.602888      4.602890   0.000000   0.000000
   43        4.876809      4.876818   0.000000   0.000000
   44        4.999956      4.999966   0.000000   0.000000
   45        5.376783      5.376790   0.000000   0.000000
   46        5.949875      5.949885   0.000000   0.000000
   47        5.990551      5.990557   0.000000   0.000000
   48        6.324996      6.324999   0.000000   0.000000
   49        7.212349      7.212356   0.000000   0.000000
   50        7.474589      7.474594   0.000000   0.000000
   51        7.721827      7.721835   0.000000   0.000000
   52        8.120884      8.120893   0.000000   0.000000
   53        8.209057      8.209065   0.000000   0.000000
   54        8.446478      8.446484   0.000000   0.000000
   55        8.628643      8.628650   0.000000   0.000000
   56        9.002259      9.002270   0.000000   0.000000
   57        9.637966      9.637970   0.000000   0.000000
   58        9.754049      9.754053   0.000000   0.000000
   59       10.207698     10.207700   0.000000   0.000000
   60       10.676534     10.676541   0.000000   0.000000
   61       11.118869     11.118889   0.000000   0.000000
   62       11.386861     11.386873   0.000000   0.000000
   63       11.516064     11.516075   0.000000   0.000000
   64       11.994825     11.994858   0.000000   0.000000
 
  0.1428571E+00  0.3333333E+00  0.3816392E-15  0.3174603E-01
    1      -32.496959    -32.496963   1.000000   1.000000
    2      -29.163297    -29.163244   1.000000   1.000000
    3      -29.045235    -29.045191   1.000000   1.000000
    4      -29.012307    -29.012265   1.000000   1.000000
    5      -28.971578    -28.971572   1.000000   1.000000
    6      -28.789426    -28.789429   1.000000   1.000000
    7      -28.773615    -28.773616   1.000000   1.000000
    8      -28.693254    -28.693252   1.000000   1.000000
    9      -28.635734    -28.635736   1.000000   1.000000
   10      -28.449651    -28.449651   1.000000   1.000000
   11      -28.139879    -28.139884   1.000000   1.000000
   12      -28.072196    -28.072194   1.000000   1.000000
   13      -27.961670    -27.961671   1.000000   1.000000
   14      -14.596862    -14.596858   1.000000   1.000000
   15      -14.566387    -14.566384   1.000000   1.000000
   16      -14.485799    -14.485798   1.000000   1.000000
   17       -6.558397     -6.558394   1.000000   1.000000
   18       -5.716644     -5.716635   1.000000   1.000000
   19       -4.882312     -4.882307   1.000000   1.000000
   20       -3.895498     -3.895493   1.000000   1.000000
   21       -3.750280     -3.750276   1.000000   1.000000
   22       -3.399872     -3.399867   1.000000   1.000000
   23       -2.978722     -2.978717   1.000000   1.000000
   24       -2.626203     -2.626196   1.000000   1.000000
   25       -2.181880     -2.181873   1.000000   1.000000
   26       -1.681749     -1.681745   1.000000   1.000000
   27       -1.183006     -1.182998   1.000000   1.000000
   28       -0.933952     -0.933944   1.000000   1.000000
   29       -0.738863     -0.738859   1.000000   1.000000
   30       -0.437632     -0.437628   1.000000   1.000000
   31        0.011509      0.011514   1.000000   1.000000
   32        0.325313      0.325322   1.000000   1.000000
   33        0.772780      0.772788   1.000000   1.000000
   34        1.699920      1.699928   1.000000   1.000000
   35        2.003463      2.003484   1.000000   1.000000
   36        2.234532      2.234548   1.051028   1.051002
   37        3.101013      3.101042   0.000000   0.000000
   38        3.438660      3.438689   0.000000   0.000000
   39        3.585839      3.585861   0.000000   0.000000
   40        4.063664      4.063678   0.000000   0.000000
   41        4.449624      4.449631   0.000000   0.000000
   42        4.691345      4.691353   0.000000   0.000000
   43        4.987060      4.987065   0.000000   0.000000
   44        5.386403      5.386411   0.000000   0.000000
   45        5.518267      5.518275   0.000000   0.000000
   46        6.141227      6.141238   0.000000   0.000000
   47        6.244777      6.244785   0.000000   0.000000
   48        6.650167      6.650176   0.000000   0.000000
   49        7.173645      7.173653   0.000000   0.000000
   50        7.283878      7.283887   0.000000   0.000000
   51        7.430550      7.430557   0.000000   0.000000
   52        8.141151      8.141158   0.000000   0.000000
   53        8.438790      8.438799   0.000000   0.000000
   54        8.545667      8.545673   0.000000   0.000000
   55        8.768317      8.768322   0.000000   0.000000
   56        9.181985      9.181993   0.000000   0.000000
   57        9.428702      9.428710   0.000000   0.000000
   58        9.901066      9.901071   0.000000   0.000000
   59       10.083497     10.083500   0.000000   0.000000
   60       10.447075     10.447083   0.000000   0.000000
   61       10.870602     10.870613   0.000000   0.000000
   62       11.069030     11.069042   0.000000   0.000000
   63       11.698521     11.698528   0.000000   0.000000
   64       12.106756     12.106765   0.000000   0.000000
 
  0.2857143E+00  0.3333333E+00  0.3747003E-15  0.3174603E-01
    1      -32.463756    -32.463760   1.000000   1.000000
    2      -29.156748    -29.156695   1.000000   1.000000
    3      -29.124773    -29.124715   1.000000   1.000000
    4      -29.009352    -29.009323   1.000000   1.000000
    5      -28.960610    -28.960605   1.000000   1.000000
    6      -28.878569    -28.878572   1.000000   1.000000
    7      -28.767999    -28.768000   1.000000   1.000000
    8      -28.737967    -28.737968   1.000000   1.000000
    9      -28.671504    -28.671503   1.000000   1.000000
   10      -28.437796    -28.437797   1.000000   1.000000
   11      -28.198561    -28.198564   1.000000   1.000000
   12      -28.083939    -28.083938   1.000000   1.000000
   13      -27.962295    -27.962296   1.000000   1.000000
   14      -14.856020    -14.856019   1.000000   1.000000
   15      -14.532291    -14.532288   1.000000   1.000000
   16      -14.506720    -14.506717   1.000000   1.000000
   17       -6.047928     -6.047928   1.000000   1.000000
   18       -5.153647     -5.153638   1.000000   1.000000
   19       -4.361510     -4.361503   1.000000   1.000000
   20       -3.634627     -3.634622   1.000000   1.000000
   21       -3.244019     -3.244016   1.000000   1.000000
   22       -3.183730     -3.183725   1.000000   1.000000
   23       -2.725673     -2.725668   1.000000   1.000000
   24       -2.594120     -2.594113   1.000000   1.000000
   25       -1.988488     -1.988484   1.000000   1.000000
   26       -1.744226     -1.744218   1.000000   1.000000
   27       -1.356576     -1.356566   1.000000   1.000000
   28       -1.234333     -1.234327   1.000000   1.000000
   29       -0.914725     -0.914720   1.000000   1.000000
   30       -0.492492     -0.492486   1.000000   1.000000
   31       -0.318013     -0.318006   1.000000   1.000000
   32       -0.043466     -0.043463   1.000000   1.000000
   33        0.366652      0.366660   1.000000   1.000000
   34        1.176560      1.176575   1.000000   1.000000
   35        1.545767      1.545780   1.000000   1.000000
   36        1.936234      1.936245   1.020696   1.020697
   37        2.707100      2.707148  -0.047724  -0.047619
   38        3.161381      3.161393   0.000000   0.000000
   39        3.679555      3.679570   0.000000   0.000000
   40        4.303419      4.303432   0.000000   0.000000
   41        4.527687      4.527698   0.000000   0.000000
   42        4.842638      4.842644   0.000000   0.000000
   43        5.417387      5.417391   0.000000   0.000000
   44        5.669291      5.669297   0.000000   0.000000
   45        5.867008      5.867017   0.000000   0.000000
   46        6.061285      6.061296   0.000000   0.000000
   47        6.310885      6.310895   0.000000   0.000000
   48        6.911529      6.911539   0.000000   0.000000
   49        7.109863      7.109871   0.000000   0.000000
   50        7.683560      7.683571   0.000000   0.000000
   51        7.927411      7.927421   0.000000   0.000000
   52        8.134141      8.134146   0.000000   0.000000
   53        8.333966      8.333973   0.000000   0.000000
   54        8.787812      8.787819   0.000000   0.000000
   55        8.838468      8.838476   0.000000   0.000000
   56        9.092161      9.092167   0.000000   0.000000
   57        9.226573      9.226582   0.000000   0.000000
   58        9.567596      9.567600   0.000000   0.000000
   59       10.015019     10.015028   0.000000   0.000000
   60       10.329097     10.329107   0.000000   0.000000
   61       10.494462     10.494468   0.000000   0.000000
   62       10.813142     10.813148   0.000000   0.000000
   63       11.406782     11.406789   0.000000   0.000000
   64       11.908079     11.908131   0.000000   0.000000
 
  0.4285714E+00  0.3333333E+00  0.3747003E-15  0.3174603E-01
    1      -32.436852    -32.436856   1.000000   1.000000
    2      -29.199600    -29.199540   1.000000   1.000000
    3      -29.147213    -29.147160   1.000000   1.000000
    4      -29.000405    -29.000378   1.000000   1.000000
    5      -28.953978    -28.953977   1.000000   1.000000
    6      -28.947237    -28.947237   1.000000   1.000000
    7      -28.809151    -28.809152   1.000000   1.000000
    8      -28.754674    -28.754675   1.000000   1.000000
    9      -28.674669    -28.674667   1.000000   1.000000
   10      -28.430401    -28.430401   1.000000   1.000000
   11      -28.243298    -28.243300   1.000000   1.000000
   12      -28.086776    -28.086776   1.000000   1.000000
   13      -27.964341    -27.964341   1.000000   1.000000
   14      -15.130528    -15.130527   1.000000   1.000000
   15      -14.482520    -14.482517   1.000000   1.000000
   16      -14.457707    -14.457704   1.000000   1.000000
   17       -5.664520     -5.664521   1.000000   1.000000
   18       -4.507213     -4.507206   1.000000   1.000000
   19       -3.944290     -3.944279   1.000000   1.000000
   20       -3.753870     -3.753866   1.000000   1.000000
   21       -3.061835     -3.061828   1.000000   1.000000
   22       -2.784163     -2.784158   1.000000   1.000000
   23       -2.456489     -2.456484   1.000000   1.000000
   24       -2.355927     -2.355921   1.000000   1.000000
   25       -2.091898     -2.091894   1.000000   1.000000
   26       -1.814736     -1.814729   1.000000   1.000000
   27       -1.576221     -1.576215   1.000000   1.000000
   28       -1.369660     -1.369654   1.000000   1.000000
   29       -1.025485     -1.025478   1.000000   1.000000
   30       -0.781741     -0.781737   1.000000   1.000000
   31       -0.407898     -0.407895   1.000000   1.000000
   32       -0.081555     -0.081548   1.000000   1.000000
   33        0.190677      0.190684   1.000000   1.000000
   34        0.829086      0.829101   1.000000   1.000000
   35        1.247770      1.247778   1.000000   1.000000
   36        1.815825      1.815832   1.000000   1.000000
   37        2.407086      2.407146   0.445530   0.445241
   38        3.584524      3.584528   0.000000   0.000000
   39        3.848361      3.848373   0.000000   0.000000
   40        4.547533      4.547545   0.000000   0.000000
   41        4.843020      4.843043   0.000000   0.000000
   42        5.052412      5.052416   0.000000   0.000000
   43        5.418023      5.418033   0.000000   0.000000
   44        5.479873      5.479881   0.000000   0.000000
   45        5.774847      5.774850   0.000000   0.000000
   46        5.994462      5.994472   0.000000   0.000000
   47        6.217365      6.217373   0.000000   0.000000
   48        6.645859      6.645867   0.000000   0.000000
   49        7.112624      7.112630   0.000000   0.000000
   50        7.543936      7.543943   0.000000   0.000000
   51        7.937060      7.937071   0.000000   0.000000
   52        8.064495      8.064504   0.000000   0.000000
   53        8.216784      8.216794   0.000000   0.000000
   54        8.654480      8.654490   0.000000   0.000000
   55        8.853055      8.853065   0.000000   0.000000
   56        9.080603      9.080609   0.000000   0.000000
   57        9.435790      9.435796   0.000000   0.000000