   16   16   99    2
  0.5834619E+01  0.4583558E-09  0.5041166E-09  0.5005192E-09  0.5000000E-15
  1.000000000000000E-004
  CAR 
 unknown system                          
     16     63     32
 
  0.3742002E-15  0.3742002E-15  0.3742002E-15  0.8000000E-02
    1      -10.843200    -10.843195   1.000000   1.000000
    2       -8.630633     -8.630655   1.000000   1.000000
    3       -8.409110     -8.409125   1.000000   1.000000
    4       -8.357517     -8.357534   1.000000   1.000000
    5       -8.184442     -8.184452   1.000000   1.000000
    6       -8.111575     -8.111587   1.000000   1.000000
    7       -8.023212     -8.023226   1.000000   1.000000
    8       -7.801703     -7.801714   1.000000   1.000000
    9        1.281509      1.281642   0.000000   0.000000
   10        1.605974      1.606136   0.000000   0.000000
   11        1.861305      1.861409   0.000000   0.000000
   12        2.012962      2.012974   0.000000   0.000000
   13        2.268541      2.268644   0.000000   0.000000
   14        2.603154      2.603192   0.000000   0.000000
   15        3.529154      3.529178   0.000000   0.000000
   16        6.184366      6.184356   0.000000   0.000000
   17        6.721534      6.721737   0.000000   0.000000
   18        7.974528      7.974713   0.000000   0.000000
   19        8.030542      8.030813   0.000000   0.000000
   20        8.146268      8.146333   0.000000   0.000000
   21        8.393394      8.393450   0.000000   0.000000
   22        8.777739      8.777798   0.000000   0.000000
   23       10.061565     10.061577   0.000000   0.000000
   24       10.308980     10.309040   0.000000   0.000000
   25       10.437153     10.437297   0.000000   0.000000
   26       10.786506     10.786601   0.000000   0.000000
   27       11.094626     11.094686   0.000000   0.000000
   28       11.755372     11.755452   0.000000   0.000000
   29       11.792332     11.792387   0.000000   0.000000
   30       13.011502     13.011627   0.000000   0.000000
   31       13.546203     13.546352   0.000000   0.000000
   32       13.727547     13.727589   0.000000   0.000000
 
  0.2000000E+00  0.3803381E-15  0.3885781E-15  0.1600000E-01
    1      -10.666574    -10.666570   1.000000   1.000000
    2       -8.730886     -8.730898   1.000000   1.000000
    3       -8.577287     -8.577308   1.000000   1.000000
    4       -8.470331     -8.470349   1.000000   1.000000
    5       -8.243592     -8.243605   1.000000   1.000000
    6       -8.128764     -8.128773   1.000000   1.000000
    7       -8.019864     -8.019875   1.000000   1.000000
    8       -7.661753     -7.661763   1.000000   1.000000
    9        1.444207      1.444363   0.000000   0.000000
   10        1.556825      1.556959   0.000000   0.000000
   11        1.677087      1.677147   0.000000   0.000000
   12        2.372108      2.372165   0.000000   0.000000
   13        2.512591      2.512696   0.000000   0.000000
   14        2.845308      2.845374   0.000000   0.000000
   15        3.372618      3.372626   0.000000   0.000000
   16        6.793387      6.793430   0.000000   0.000000
   17        6.883234      6.883298   0.000000   0.000000
   18        7.367638      7.367860   0.000000   0.000000
   19        7.607612      7.607740   0.000000   0.000000
   20        8.184270      8.184340   0.000000   0.000000
   21        8.449691      8.449718   0.000000   0.000000
   22        9.172637      9.172719   0.000000   0.000000
   23        9.836240      9.836318   0.000000   0.000000
   24       10.447350     10.447429   0.000000   0.000000
   25       10.709021     10.709112   0.000000   0.000000
   26       10.856739     10.856927   0.000000   0.000000
   27       11.151443     11.151623   0.000000   0.000000
   28       11.528710     11.528897   0.000000   0.000000
   29       11.935338     11.935427   0.000000   0.000000
   30       12.227027     12.227117   0.000000   0.000000
   31       12.871863     12.871885   0.000000   0.000000
   32       13.215686     13.215703   0.000000   0.000000
 
  0.4000000E+00  0.3825065E-15  0.3608225E-15  0.1600000E-01
    1      -10.166560    -10.166560   1.000000   1.000000
    2       -9.440998     -9.441003   1.000000   1.000000
    3       -8.608450     -8.608470   1.000000   1.000000
    4       -8.467635     -8.467654   1.000000   1.000000
    5       -8.339974     -8.339988   1.000000   1.000000
    6       -8.187263     -8.187274   1.000000   1.000000
    7       -7.969692     -7.969700   1.000000   1.000000
    8       -7.524061     -7.524070   1.000000   1.000000
    9        1.335985      1.336124   0.000000   0.000000
   10        1.499041      1.499114   0.000000   0.000000
   11        1.640168      1.640291   0.000000   0.000000
   12        2.157898      2.158004   0.000000   0.000000
   13        3.436159      3.436216   0.000000   0.000000
   14        3.754828      3.754928   0.000000   0.000000
   15        4.337450      4.337408   0.000000   0.000000
   16        5.509809      5.509901   0.000000   0.000000
   17        6.342534      6.342662   0.000000   0.000000
   18        6.886545      6.886597   0.000000   0.000000
   19        7.868530      7.868516   0.000000   0.000000
   20        8.234397      8.234495   0.000000   0.000000
   21        8.819946      8.820016   0.000000   0.000000
   22        9.285323      9.285496   0.000000   0.000000
   23        9.575030      9.575158   0.000000   0.000000
   24       10.150041     10.150219   0.000000   0.000000
   25       10.647867     10.647971   0.000000   0.000000
   26       10.849134     10.849263   0.000000   0.000000
   27       11.386592     11.386613   0.000000   0.000000
   28       11.687174     11.687293   0.000000   0.000000
   29       11.972056     11.972230   0.000000   0.000000
   30       12.395514     12.395665   0.000000   0.000000
   31       12.642963     12.643075   0.000000   0.000000
   32       13.047883     13.047936   0.000000   0.000000
 
  0.3735076E-15  0.2000000E+00  0.3330669E-15  0.1600000E-01
    1      -10.708504    -10.708500   1.000000   1.000000
    2       -9.058862     -9.058874   1.000000   1.000000
    3       -8.404852     -8.404869   1.000000   1.000000
    4       -8.339267     -8.339282   1.000000   1.000000
    5       -8.161270     -8.161283   1.000000   1.000000
    6       -8.031263     -8.031278   1.000000   1.000000
    7       -7.975586     -7.975599   1.000000   1.000000
    8       -7.750331     -7.750342   1.000000   1.000000
    9        1.453946      1.454047   0.000000   0.000000
   10        1.584984      1.585128   0.000000   0.000000
   11        1.891862      1.891959   0.000000   0.000000
   12        2.314077      2.314114   0.000000   0.000000
   13        2.584189      2.584289   0.000000   0.000000
   14        3.068639      3.068683   0.000000   0.000000
   15        3.846419      3.846444   0.000000   0.000000
   16        4.865999      4.866094   0.000000   0.000000
   17        6.675263      6.675373   0.000000   0.000000
   18        6.970369      6.970464   0.000000   0.000000
   19        7.516247      7.516551   0.000000   0.000000
   20        7.861707      7.861773   0.000000   0.000000
   21        8.404478      8.404611   0.000000   0.000000
   22        8.962799      8.962882   0.000000   0.000000
   23        9.401990      9.402095   0.000000   0.000000
   24       10.089784     10.089872   0.000000   0.000000
   25       10.591559     10.591572   0.000000   0.000000
   26       10.747952     10.747975   0.000000   0.000000
   27       11.401747     11.401793   0.000000   0.000000
   28       11.716728     11.716782   0.000000   0.000000
   29       12.552036     12.552084   0.000000   0.000000
   30       13.265076     13.265132   0.000000   0.000000
   31       13.507462     13.507512   0.000000   0.000000
   32       13.720266     13.720454   0.000000   0.000000
 
  0.2000000E+00  0.2000000E+00  0.3608225E-15  0.1600000E-01
    1      -10.522364    -10.522361   1.000000   1.000000
    2       -9.007541     -9.007556   1.000000   1.000000
    3       -8.667881     -8.667894   1.000000   1.000000
    4       -8.547084     -8.547100   1.000000   1.000000
    5       -8.216196     -8.216209   1.000000   1.000000
    6       -8.042068     -8.042081   1.000000   1.000000
    7       -7.846813     -7.846823   1.000000   1.000000
    8       -7.730667     -7.730678   1.000000   1.000000
    9        1.527718      1.527844   0.000000   0.000000
   10        1.689071      1.689132   0.000000   0.000000
   11        1.895190      1.895302   0.000000   0.000000
   12        2.521955      2.522028   0.000000   0.000000
   13        2.790329      2.790447   0.000000   0.000000
   14        3.232878      3.232949   0.000000   0.000000
   15        3.592221      3.592247   0.000000   0.000000
   16        5.734941      5.735031   0.000000   0.000000
   17        6.338524      6.338589   0.000000   0.000000
   18        6.884613      6.884820   0.000000   0.000000
   19        7.159057      7.159163   0.000000   0.000000
   20        8.190372      8.190469   0.000000   0.000000
   21        8.568046      8.568126   0.000000   0.000000
   22        8.925707      8.925728   0.000000   0.000000
   23        9.442978      9.443100   0.000000   0.000000
   24        9.803582      9.803635   0.000000   0.000000
   25       10.036632     10.036705   0.000000   0.000000
   26       11.117626     11.117703   0.000000   0.000000
   27       11.449375     11.449515   0.000000   0.000000
   28       11.880339     11.880419   0.000000   0.000000
   29       12.163434     12.163552   0.000000   0.000000
   30       12.729583     12.729672   0.000000   0.000000
   31       13.150359     13.150422   0.000000   0.000000
   32       13.387646     13.387709   0.000000   0.000000
 
  0.4000000E+00  0.2000000E+00  0.4163336E-15  0.1600000E-01
    1      -10.021279    -10.021279   1.000000   1.000000
    2       -9.370438     -9.370445   1.000000   1.000000
    3       -8.765585     -8.765600   1.000000   1.000000
    4       -8.655710     -8.655729   1.000000   1.000000
    5       -8.382256     -8.382270   1.000000   1.000000
    6       -8.230692     -8.230702   1.000000   1.000000
    7       -7.851683     -7.851691   1.000000   1.000000
    8       -7.533973     -7.533982   1.000000   1.000000
    9        1.553852      1.553964   0.000000   0.000000
   10        1.712561      1.712636   0.000000   0.000000
   11        1.936423      1.936551   0.000000   0.000000
   12        2.337837      2.337968   0.000000   0.000000
   13        3.533778      3.533828   0.000000   0.000000
   14        3.957511      3.957584   0.000000   0.000000
   15        4.282472      4.282481   0.000000   0.000000
   16        5.304130      5.304215   0.000000   0.000000
   17        6.018464      6.018615   0.000000   0.000000
   18        6.752819      6.752854   0.000000   0.000000
   19        7.336223      7.336254   0.000000   0.000000
   20        7.804181      7.804248   0.000000   0.000000
   21        8.344901      8.344986   0.000000   0.000000
   22        9.366272      9.366343   0.000000   0.000000
   23        9.658739      9.658810   0.000000   0.000000
   24       10.019086     10.019227   0.000000   0.000000
   25       10.413703     10.413892   0.000000   0.000000
   26       10.751485     10.751564   0.000000   0.000000
   27       11.097764     11.097875   0.000000   0.000000
   28       11.388541     11.388615   0.000000   0.000000
   29       11.958803     11.959042   0.000000   0.000000
   30       12.259398     12.259461   0.000000   0.000000
   31       12.713806     12.713834   0.000000   0.000000
   32       13.135445     13.135471   0.000000   0.000000
 
 -0.4000000E+00  0.2000000E+00  0.4163336E-15  0.1600000E-01
    1      -10.069979    -10.069981   1.000000   1.000000
    2       -9.309768     -9.309773   1.000000   1.000000
    3       -8.637399     -8.637412   1.000000   1.000000
    4       -8.614521     -8.614538   1.000000   1.000000
    5       -8.441471     -8.441488   1.000000   1.000000
    6       -8.363249     -8.363261   1.000000   1.000000
    7       -7.901676     -7.901685   1.000000   1.000000
    8       -7.478592     -7.478601   1.000000   1.000000
    9        1.562493      1.562641   0.000000   0.000000
   10        1.702424      1.702518   0.000000   0.000000
   11        1.897848      1.897988   0.000000   0.000000
   12        2.441457      2.441527   0.000000   0.000000
   13        3.485161      3.485201   0.000000   0.000000
   14        3.679403      3.679492   0.000000   0.000000
   15        4.455070      4.455032   0.000000   0.000000
   16        5.319541      5.319631   0.000000   0.000000
   17        6.285703      6.285862   0.000000   0.000000
   18        6.642296      6.642310   0.000000   0.000000
   19        7.287698      7.287769   0.000000   0.000000
   20        7.801717      7.801754   0.000000   0.000000
   21        8.515679      8.515806   0.000000   0.000000
   22        8.730839      8.730918   0.000000   0.000000
   23        9.974217      9.974368   0.000000   0.000000
   24       10.201980     10.202078   0.000000   0.000000
   25       10.499801     10.499928   0.000000   0.000000
   26       10.808281     10.808405   0.000000   0.000000
   27       11.107488     11.107689   0.000000   0.000000
   28       11.712224     11.712304   0.000000   0.000000
   29       12.069264     12.069330   0.000000   0.000000
   30       12.229423     12.229552   0.000000   0.000000
   31       12.591725     12.591790   0.000000   0.000000
   32       12.935919     12.935951   0.000000   0.000000
 
 -0.2000000E+00  0.2000000E+00  0.3816392E-15  0.1600000E-01
    1      -10.548337    -10.548334   1.000000   1.000000
    2       -8.918327     -8.918338   1.000000   1.000000
    3       -8.628188     -8.628200   1.000000   1.000000
    4       -8.424687     -8.424702   1.000000   1.000000
    5       -8.336162     -8.336176   1.000000   1.000000
    6       -8.161284     -8.161300   1.000000   1.000000
    7       -7.990449     -7.990461   1.000000   1.000000
    8       -7.577834     -7.577844   1.000000   1.000000
    9        1.649758      1.649879   0.000000   0.000000
   10        1.692050      1.692209   0.000000   0.000000
   11        1.761624      1.761734   0.000000   0.000000
   12        2.481400      2.481464   0.000000   0.000000
   13        2.750691      2.750733   0.000000   0.000000
   14        3.172044      3.172098   0.000000   0.000000
   15        3.594176      3.594199   0.000000   0.000000
   16        5.855400      5.855431   0.000000   0.000000
   17        6.526241      6.526368   0.000000   0.000000
   18        6.978907      6.979083   0.000000   0.000000
   19        7.291693      7.291743   0.000000   0.000000
   20        7.876603      7.876679   0.000000   0.000000
   21        8.571053      8.571253   0.000000   0.000000
   22        8.892999      8.893064   0.000000   0.000000
   23        9.552028      9.552065   0.000000   0.000000
   24        9.758868      9.758996   0.000000   0.000000
   25       10.297794     10.297905   0.000000   0.000000
   26       10.925432     10.925584   0.000000   0.000000
   27       11.383465     11.383565   0.000000   0.000000
   28       11.840243     11.840361   0.000000   0.000000
   29       12.009364     12.009473   0.000000   0.000000
   30       12.569910     12.569977   0.000000   0.000000
   31       12.912330     12.912362   0.000000   0.000000
   32       13.511010     13.511048   0.000000   0.000000
 
  0.3736161E-15  0.4000000E+00  0.3330669E-15  0.1600000E-01
    1      -10.326333    -10.326333   1.000000   1.000000
    2       -9.716163     -9.716166   1.000000   1.000000
    3       -8.459070     -8.459087   1.000000   1.000000
    4       -8.249884     -8.249897   1.000000   1.000000
    5       -8.149513     -8.149529   1.000000   1.000000
    6       -8.013545     -8.013561   1.000000   1.000000
    7       -7.939383     -7.939395   1.000000   1.000000
    8       -7.689688     -7.689697   1.000000   1.000000
    9        1.683678      1.683775   0.000000   0.000000
   10        1.750796      1.750888   0.000000   0.000000
   11        2.106677      2.106786   0.000000   0.000000
   12        2.802959      2.802987   0.000000   0.000000
   13        3.449629      3.449726   0.000000   0.000000
   14        3.660400      3.660458   0.000000   0.000000
   15        3.933195      3.933253   0.000000   0.000000
   16        4.478648      4.478692   0.000000   0.000000
   17        5.737919      5.738072   0.000000   0.000000
   18        6.291441      6.291633   0.000000   0.000000
   19        6.465807      6.465937   0.000000   0.000000
   20        6.792821      6.792969   0.000000   0.000000
   21        7.163789      7.163946   0.000000   0.000000
   22        7.684807      7.684899   0.000000   0.000000
   23        9.845071      9.845087   0.000000   0.000000
   24       10.401183     10.401294   0.000000   0.000000
   25       10.861865     10.861842   0.000000   0.000000
   26       11.547035     11.547056   0.000000   0.000000
   27       11.790575     11.790598   0.000000   0.000000
   28       12.408884     12.408999   0.000000   0.000000
   29       12.623124     12.623155   0.000000   0.000000
   30       13.280336     13.280379   0.000000   0.000000
   31       13.727682     13.727719   0.000000   0.000000
   32       13.943400     13.943437   0.000000   0.000000
 
  0.2000000E+00  0.4000000E+00  0.3885781E-15  0.1600000E-01
    1      -10.139205    -10.139206   1.000000   1.000000
    2       -9.614583     -9.614588   1.000000   1.000000
    3       -8.592879     -8.592897   1.000000   1.000000
    4       -8.473711     -8.473724   1.000000   1.000000
    5       -8.305147     -8.305160   1.000000   1.000000
    6       -8.135708     -8.135722   1.000000   1.000000
    7       -7.798151     -7.798163   1.000000   1.000000
    8       -7.657346     -7.657355   1.000000   1.000000
    9        1.753138      1.753259   0.000000   0.000000
   10        1.893749      1.893804   0.000000   0.000000
   11        2.311453      2.311580   0.000000   0.000000
   12        2.800665      2.800728   0.000000   0.000000
   13        3.271701      3.271728   0.000000   0.000000
   14        3.872483      3.872593   0.000000   0.000000
   15        4.088257      4.088361   0.000000   0.000000
   16        4.943862      4.943903   0.000000   0.000000
   17        5.612013      5.612168   0.000000   0.000000
   18        6.188523      6.188602   0.000000   0.000000
   19        6.671772      6.671868   0.000000   0.000000
   20        7.443396      7.443554   0.000000   0.000000
   21        7.585010      7.585123   0.000000   0.000000
   22        7.878868      7.878962   0.000000   0.000000
   23        8.456960      8.457056   0.000000   0.000000
   24        9.525024      9.525064   0.000000   0.000000
   25       10.451443     10.451449   0.000000   0.000000
   26       11.488785     11.488816   0.000000   0.000000
   27       12.044195     12.044304   0.000000   0.000000
   28       12.521633     12.521658   0.000000   0.000000
   29       12.789258     12.789371   0.000000   0.000000
   30       13.105917     13.105992   0.000000   0.000000
   31       13.499141     13.499164   0.000000   0.000000
   32       13.843711     13.843704   0.000000   0.000000
 
  0.4000000E+00  0.4000000E+00  0.2775558E-15  0.1600000E-01
    1       -9.661930     -9.661934   1.000000   1.000000
    2       -9.282771     -9.282785   1.000000   1.000000
    3       -9.083576     -9.083580   1.000000   1.000000
    4       -8.691799     -8.691815   1.000000   1.000000
    5       -8.611378     -8.611389   1.000000   1.000000
    6       -8.413290     -8.413301   1.000000   1.000000
    7       -7.717827     -7.717838   1.000000   1.000000
    8       -7.521601     -7.521611   1.000000   1.000000
    9        1.820893      1.821015   0.000000   0.000000
   10        2.175617      2.175715   0.000000   0.000000
   11        2.662271      2.662431   0.000000   0.000000
   12        2.781518      2.781602   0.000000   0.000000
   13        3.617867      3.617896   0.000000   0.000000
   14        3.845165      3.845196   0.000000   0.000000
   15        4.393338      4.393438   0.000000   0.000000
   16        4.777612      4.777697   0.000000   0.000000
   17        5.711229      5.711315   0.000000   0.000000
   18        6.511629      6.511686   0.000000   0.000000
   19        7.096504      7.096535   0.000000   0.000000
   20        7.159967      7.160007   0.000000   0.000000
   21        7.784761      7.784826   0.000000   0.000000
   22        8.777158      8.777243   0.000000   0.000000
   23        9.093982      9.094140   0.000000   0.000000
   24        9.414721      9.414818   0.000000   0.000000
   25       10.307384     10.307534   0.000000   0.000000
   26       10.604282     10.604309   0.000000   0.000000
   27       11.032755     11.032787   0.000000   0.000000
   28       11.346525     11.346566   0.000000   0.000000
   29       11.821686     11.821757   0.000000   0.000000
   30       12.330761     12.330954   0.000000   0.000000
   31       12.740528     12.740632   0.000000   0.000000
   32       13.044441     13.044635   0.000000   0.000000
 
 -0.4000000E+00  0.4000000E+00  0.2844947E-15  0.1600000E-01
    1       -9.753395     -9.753400   1.000000   1.000000
    2       -9.142096     -9.142103   1.000000   1.000000
    3       -8.995037     -8.995044   1.000000   1.000000
    4       -8.743095     -8.743107   1.000000   1.000000
    5       -8.660693     -8.660708   1.000000   1.000000
    6       -8.454946     -8.454958   1.000000   1.000000
    7       -7.760173     -7.760184   1.000000   1.000000
    8       -7.475771     -7.475780   1.000000   1.000000
    9        1.855043      1.855171   0.000000   0.000000
   10        2.229788      2.229925   0.000000   0.000000
   11        2.376197      2.376337   0.000000   0.000000
   12        3.129754      3.129811   0.000000   0.000000
   13        3.439441      3.439475   0.000000   0.000000
   14        3.744329      3.744381   0.000000   0.000000
   15        4.427856      4.427892   0.000000   0.000000
   16        4.818169      4.818268   0.000000   0.000000
   17        5.844072      5.844165   0.000000   0.000000
   18        6.441158      6.441205   0.000000   0.000000
   19        6.936259      6.936280   0.000000   0.000000
   20        7.343071      7.343120   0.000000   0.000000
   21        7.869655      7.869725   0.000000   0.000000
   22        8.591060      8.591269   0.000000   0.000000
   23        9.106162      9.106235   0.000000   0.000000
   24        9.549451      9.549555   0.000000   0.000000
   25        9.974820      9.974907   0.000000   0.000000
   26       10.713302     10.713405   0.000000   0.000000
   27       11.316235     11.316292   0.000000   0.000000
   28       11.518848     11.518917   0.000000   0.000000
   29       11.864402     11.864433   0.000000   0.000000
   30       12.380938     12.381001   0.000000   0.000000
   31       12.590698     12.590829   0.000000   0.000000
   32       13.290840     13.290973   0.000000   0.000000
 
 -0.2000000E+00  0.4000000E+00  0.3330669E-15  0.1600000E-01
    1      -10.188729    -10.188731   1.000000   1.000000
    2       -9.542623     -9.542626   1.000000   1.000000
    3       -8.526591     -8.526606   1.000000   1.000000
    4       -8.422310     -8.422324   1.000000   1.000000
    5       -8.346146     -8.346160   1.000000   1.000000
    6       -8.243774     -8.243789   1.000000   1.000000
    7       -7.883453     -7.883465   1.000000   1.000000
    8       -7.564929     -7.564938   1.000000   1.000000
    9        1.832090      1.832209   0.000000   0.000000
   10        1.956007      1.956099   0.000000   0.000000
   11        2.099396      2.099531   0.000000   0.000000
   12        2.821856      2.821904   0.000000   0.000000
   13        3.225090      3.225152   0.000000   0.000000
   14        3.808406      3.808443   0.000000   0.000000
   15        4.162058      4.162134   0.000000   0.000000
   16        4.941545      4.941552   0.000000   0.000000
   17        5.803597      5.803784   0.000000   0.000000
   18        6.230087      6.230206   0.000000   0.000000
   19        6.595917      6.595989   0.000000   0.000000
   20        7.281226      7.281354   0.000000   0.000000
   21        7.400070      7.400233   0.000000   0.000000
   22        8.340334      8.340441   0.000000   0.000000
   23        8.651264      8.651357   0.000000   0.000000
   24        9.296433      9.296454   0.000000   0.000000
   25       10.463718     10.463728   0.000000   0.000000
   26       11.392007     11.392077   0.000000   0.000000
   27       12.011563     12.011704   0.000000   0.000000
   28       12.394040     12.394197   0.000000   0.000000
   29       12.816597     12.816649   0.000000   0.000000
   30       13.125672     13.125744   0.000000   0.000000
   31       13.481588     13.481638   0.000000   0.000000
   32       13.727027     13.727066   0.000000   0.000000
 
  0.3744834E-15  0.3738329E-15  0.2000000E+00  0.1600000E-01
    1      -10.667344    -10.667341   1.000000   1.000000
    2       -8.724279     -8.724295   1.000000   1.000000
    3       -8.643709     -8.643727   1.000000   1.000000
    4       -8.406844     -8.406857   1.000000   1.000000
    5       -8.226806     -8.226821   1.000000   1.000000
    6       -8.106765     -8.106776   1.000000   1.000000
    7       -8.027378     -8.027388   1.000000   1.000000
    8       -7.737796     -7.737806   1.000000   1.000000
    9        1.517383      1.517511   0.000000   0.000000
   10        1.986473      1.986599   0.000000   0.000000
   11        2.124230      2.124277   0.000000   0.000000
   12        2.267471      2.267530   0.000000   0.000000
   13        2.471080      2.471235   0.000000   0.000000
   14        3.042190      3.042208   0.000000   0.000000
   15        3.561868      3.561914   0.000000   0.000000
   16        5.975253      5.975324   0.000000   0.000000
   17        6.390178      6.390267   0.000000   0.000000
   18        7.028580      7.028835   0.000000   0.000000
   19        7.154807      7.154897   0.000000   0.000000
   20        7.522003      7.522095   0.000000   0.000000
   21        8.315358      8.315447   0.000000   0.000000
   22        8.967347      8.967410   0.000000   0.000000
   23        9.377026      9.377113   0.000000   0.000000
   24        9.690258      9.690347   0.000000   0.000000
   25       10.609778     10.609795   0.000000   0.000000
   26       10.779924     10.779993   0.000000   0.000000
   27       11.603754     11.603875   0.000000   0.000000
   28       11.770839     11.770872   0.000000   0.000000
   29       12.004772     12.004818   0.000000   0.000000
   30       12.243780     12.243850   0.000000   0.000000
   31       12.684927     12.685022   0.000000   0.000000
   32       13.259822     13.259932   0.000000   0.000000
 
  0.2000000E+00  0.3733992E-15  0.2000000E+00  0.1600000E-01
    1      -10.652917    -10.652914   1.000000   1.000000
    2       -8.611701     -8.611719   1.000000   1.000000
    3       -8.573130     -8.573143   1.000000   1.000000
    4       -8.411142     -8.411156   1.000000   1.000000
    5       -8.342423     -8.342437   1.000000   1.000000
    6       -8.110802     -8.110814   1.000000   1.000000
    7       -8.049974     -8.049986   1.000000   1.000000
    8       -7.827859     -7.827868   1.000000   1.000000
    9        1.545663      1.545816   0.000000   0.000000
   10        1.835200      1.835340   0.000000   0.000000
   11        2.013208      2.013285   0.000000   0.000000
   12        2.330088      2.330154   0.000000   0.000000
   13        2.647874      2.647962   0.000000   0.000000
   14        2.974976      2.974999   0.000000   0.000000
   15        3.464935      3.464968   0.000000   0.000000
   16        6.149401      6.149468   0.000000   0.000000
   17        6.519103      6.519260   0.000000   0.000000
   18        7.063829      7.063893   0.000000   0.000000
   19        7.437731      7.437930   0.000000   0.000000
   20        7.685149      7.685246   0.000000   0.000000
   21        8.375201      8.375303   0.000000   0.000000
   22        8.702424      8.702536   0.000000   0.000000
   23        9.513254      9.513275   0.000000   0.000000
   24        9.672291      9.672323   0.000000   0.000000
   25       10.483063     10.483189   0.000000   0.000000
   26       11.094156     11.094181   0.000000   0.000000
   27       11.263100     11.263197   0.000000   0.000000
   28       11.589270     11.589311   0.000000   0.000000
   29       12.199184     12.199218   0.000000   0.000000
   30       12.463302     12.463327   0.000000   0.000000
   31       13.410467     13.410620   0.000000   0.000000
   32       13.649403     13.649424   0.000000   0.000000
 
  0.4000000E+00  0.3854339E-15  0.2000000E+00  0.1600000E-01
    1      -10.301039    -10.301037   1.000000   1.000000
    2       -9.006869     -9.006879   1.000000   1.000000
    3       -8.856925     -8.856937   1.000000   1.000000
    4       -8.464017     -8.464034   1.000000   1.000000
    5       -8.262851     -8.262865   1.000000   1.000000
    6       -8.194037     -8.194048   1.000000   1.000000
    7       -8.013665     -8.013678   1.000000   1.000000
    8       -7.658645     -7.658656   1.000000   1.000000
    9        1.558181      1.558339   0.000000   0.000000
   10        1.775380      1.775458   0.000000   0.000000
   11        1.907641      1.907768   0.000000   0.000000
   12        2.534677      2.534737   0.000000   0.000000
   13        3.085842      3.085923   0.000000   0.000000
   14        3.254790      3.254880   0.000000   0.000000
   15        4.050194      4.050191   0.000000   0.000000
   16        5.785587      5.785645   0.000000   0.000000