unknown system                          
           1
     4.582838    0.072747    0.036149
     0.700559    4.990905   -0.115910
     2.311099    1.782200    4.066268
   H 
  16
Direct configuration=     1
   0.77435400  0.17217200  0.24631400
   0.37684000  0.01611800  0.95977900
   0.32303100  0.86002400  0.05298000
   0.27768100  0.44771300  0.08599100
   0.85551500  0.65072200  0.09560000
   0.92995600  0.24032000  0.09547600
   0.32528600  0.90937100  0.45232600
   0.34490500  0.91993500  0.58729800
   0.79556100  0.74043300  0.67145700
   0.82824400  0.80534400  0.07650800
   0.91471500  0.18743500  0.59337300
   0.31637000  0.38721100  0.57929200
   0.43118800  0.39875300  0.10528700
   0.83938400  0.24458900  0.72712300
   0.45156300  0.44666300  0.58543600
   0.86313200  0.71146000  0.51862300
unknown system                          
           1
     4.639966    0.074533    0.036000
     0.710325    5.050027   -0.118844
     2.339798    1.802451    4.110877
   H 
  16
Direct configuration=     2
   0.77412368  0.17226350  0.24643244
   0.37666614  0.01541359  0.96025330
   0.32322691  0.86038928  0.05295475
   0.27830321  0.44754904  0.08576916
   0.85534053  0.65047791  0.09585313
   0.93019741  0.24042586  0.09502276
   0.32554307  0.90959773  0.45266284
   0.34496513  0.92000955  0.58702698
   0.79577439  0.74047389  0.67180104
   0.82848766  0.80554436  0.07643103
   0.91459761  0.18735322  0.59347960
   0.31654262  0.38732540  0.57937834
   0.43075814  0.39885642  0.10524670
   0.83915271  0.24478227  0.72682016
   0.45055813  0.44644548  0.58548310
   0.86348767  0.71135550  0.51824767
unknown system                          
           1
     4.811351    0.079890    0.035554
     0.739623    5.227392   -0.127645
     2.425893    1.863206    4.244705
   H 
  16
Direct configuration=     3
   0.77344087  0.17253485  0.24678391
   0.37615103  0.01332530  0.96165990
   0.32380690  0.86147205  0.05288032
   0.28014748  0.44706264  0.08511092
   0.85482342  0.64975431  0.09660393
   0.93091349  0.24073972  0.09367802
   0.32630372  0.91026957  0.45366276
   0.34514374  0.92023063  0.58622284
   0.79640587  0.74059483  0.67282210
   0.82920948  0.80613819  0.07620296
   0.91424968  0.18711083  0.59379579
   0.31705375  0.38766441  0.57963473
   0.42948441  0.39916330  0.10512706
   0.83846775  0.24535550  0.72592160
   0.44758098  0.44580128  0.58562222
   0.86454242  0.71104561  0.51713392
unknown system                          
           1
     4.882521    0.082115    0.035368
     0.751790    5.301045   -0.131300
     2.461646    1.888435    4.300279
   H 
  16
Direct configuration=     4
   0.77316702  0.17264379  0.24692527
   0.37594479  0.01248776  0.96222460
   0.32403860  0.86190612  0.05285095
   0.28088679  0.44686720  0.08484628
   0.85461616  0.64946414  0.09690548
   0.93120114  0.24086559  0.09313745
   0.32660712  0.91053865  0.45406532
   0.34521579  0.92031936  0.58589956
   0.79665784  0.74064302  0.67323290
   0.82949837  0.80637619  0.07611161
   0.91411024  0.18701367  0.59392280
   0.31725802  0.38780019  0.57973808
   0.42897430  0.39928671  0.10507888
   0.83819388  0.24558569  0.72556037
   0.44638909  0.44554368  0.58567741
   0.86496585  0.71092123  0.51668603
unknown system                          
           1
     4.896037    0.082441    0.035405
     0.754007    5.314403   -0.132341
     2.468476    1.892654    4.310123
   H 
  16
Direct configuration=     5
   0.77355630  0.17285468  0.24652276
   0.37585522  0.01218077  0.96242003
   0.32413432  0.86213882  0.05275284
   0.28121218  0.44677040  0.08482302
   0.85450952  0.64983053  0.09690730
   0.93081377  0.24069969  0.09346467
   0.32668660  0.91060052  0.45430368
   0.34520711  0.92032344  0.58567541
   0.79690910  0.74056339  0.67284334
   0.82962126  0.80599819  0.07615033
   0.91393196  0.18711226  0.59421131
   0.31740536  0.38787374  0.57976295
   0.42869005  0.39937076  0.10504436
   0.83829488  0.24551245  0.72522867
   0.44605828  0.44544616  0.58568340
   0.86483909  0.71098721  0.51706894
unknown system                          
           1
     4.936583    0.083420    0.035513
     0.760659    5.354475   -0.135466
     2.488966    1.905309    4.339657
   H 
  16
Direct configuration=     6
   0.77472114  0.17348567  0.24531810
   0.37558724  0.01126218  0.96300484
   0.32442066  0.86283510  0.05245928
   0.28218573  0.44648070  0.08475338
   0.85419034  0.65092686  0.09691292
   0.92965471  0.24020331  0.09444397
   0.32692416  0.91078566  0.45501716
   0.34518129  0.92033562  0.58500448
   0.79766110  0.74032509  0.67167729
   0.82998903  0.80486709  0.07626602
   0.91339833  0.18740730  0.59507492
   0.31784610  0.38809380  0.57983743
   0.42783966  0.39962227  0.10494107
   0.83859732  0.24529328  0.72423580
   0.44506866  0.44515438  0.58570128
   0.86445954  0.71118469  0.51821507
unknown system                          
           1
     5.017677    0.085378    0.035730
     0.773963    5.434621   -0.141714
     2.529946    1.930620    4.398723
   H 
  16
Direct configuration=     7
   0.77703291  0.17473767  0.24292586
   0.37505557  0.00943918  0.96416558
   0.32498848  0.86421692  0.05187686
   0.28411715  0.44590560  0.08461485
   0.85355631  0.65310280  0.09692512
   0.92735463  0.23921843  0.09638868
   0.32739418  0.91115317  0.45643462
   0.34513106  0.92035970  0.58367174
   0.79915464  0.73985186  0.66936087
   0.83071929  0.80262218  0.07649476
   0.91233834  0.18799307  0.59679063
   0.31872004  0.38853051  0.57998563
   0.42615280  0.40012154  0.10473607
   0.83919886  0.24485812  0.72226338
   0.44310589  0.44457543  0.58573643
   0.86370485  0.71157682  0.52049192
unknown system                          
           1
     5.179864    0.089294    0.036164
     0.800571    5.594912   -0.154211
     2.611906    1.981243    4.516856
   H 
  16
Direct configuration=     8
   0.78158644  0.17720270  0.23820827
   0.37400906  0.00584856  0.96645243
   0.32610520  0.86693863  0.05073034
   0.28791880  0.44477217  0.08434072
   0.85230524  0.65738926  0.09695319
   0.92282494  0.23727947  0.10022373
   0.32831439  0.91187737  0.45923228
   0.34503599  0.92040682  0.58104206
   0.80210074  0.73891867  0.66478950
   0.83215913  0.79819987  0.07694200
   0.91024683  0.18914767  0.60017697
   0.32043851  0.38939057  0.58027901
   0.42283345  0.40110544  0.10433225
   0.84038881  0.24400023  0.71837072
   0.43924470  0.44343551  0.58580439
   0.86221276  0.71235007  0.52498514
unknown system                          
           1
     5.504239    0.097127    0.037031
     0.853787    5.915495   -0.179206
     2.775827    2.082488    4.753122
   H 
  16
Direct configuration=     9
   0.79042593  0.18198392  0.22902969
   0.37198021 -0.00112095  0.97089354
   0.32826656  0.87222165  0.04850721
   0.29528868  0.44256959  0.08380385
   0.84986843  0.66571202  0.09702277
   0.91403477  0.23351918  0.10768522
   0.33007989  0.91328430  0.46468428
   0.34486580  0.92049704  0.57592023
   0.80783565  0.73710316  0.65588316
   0.83495953  0.78961350  0.07779779
   0.90617323  0.19139203  0.60677621
   0.32376355  0.39105966  0.58085400
   0.41640204  0.40301714  0.10354824
   0.84271761  0.24233214  0.71078607
   0.43176748  0.44122434  0.58593157
   0.85929564  0.71385427  0.53373916
unknown system                          
           1
     5.262241    0.091284    0.036384
     0.814086    5.676326   -0.160559
     2.653535    2.006955    4.576857
   H 
  16
Direct configuration=    10
   0.78419705  0.17862007  0.23552419
   0.37340639  0.00378906  0.96776180
   0.32675191  0.86849960  0.05007039
   0.29010842  0.44412462  0.08418831
   0.85159620  0.65984525  0.09695407
   0.92022493  0.23616406  0.10240569
   0.32886286  0.91229147  0.46081511
   0.34496708  0.92043509  0.57955143
   0.80377394  0.73838761  0.66220097
   0.83297930  0.79566588  0.07721097
   0.90906123  0.18980665  0.60209279
   0.32143470  0.38988419  0.58044171
   0.42091814  0.40166788  0.10410080
   0.84105214  0.24351111  0.71616711
   0.43701272  0.44278025  0.58584812
   0.86137800  0.71279022  0.52752954
unknown system                          
           1
     5.302879    0.092722    0.036706
     0.821225    5.717052   -0.163000
     2.674410    2.020586    4.607143
   H 
  16
Direct configuration=    11
   0.78466198  0.17894739  0.23500489
   0.37340874  0.00365774  0.96786341
   0.32677482  0.86843657  0.05021576
   0.29033319  0.44407379  0.08402396
   0.85139847  0.66017005  0.09706379
   0.91976389  0.23596552  0.10272005
   0.32897876  0.91240472  0.46075067
   0.34504549  0.92049224  0.57965455
   0.80417037  0.73829644  0.66180647
   0.83322643  0.79529874  0.07721500
   0.90904009  0.18971176  0.60210567
   0.32130639  0.38983704  0.58048543
   0.42079562  0.40168641  0.10411067
   0.84086419  0.24368294  0.71604224
   0.43665187  0.44275418  0.58589486
   0.86130469  0.71284746  0.52790558
unknown system                          
           1
     5.372987    0.095203    0.037263
     0.833541    5.787311   -0.167210
     2.710424    2.044102    4.659390
   H 
  16
Direct configuration=    12
   0.78545829  0.17950794  0.23411505
   0.37341275  0.00343281  0.96803748
   0.32681393  0.86832862  0.05046485
   0.29071821  0.44398670  0.08374226
   0.85105963  0.66072637  0.09725200
   0.91897440  0.23562555  0.10325873
   0.32917719  0.91259868  0.46064027
   0.34517958  0.92059011  0.57983130
   0.80484952  0.73814025  0.66113031
   0.83364974  0.79466988  0.07722173
   0.90900393  0.18954926  0.60212770
   0.32108670  0.38975631  0.58056036
   0.42058585  0.40171816  0.10412761
   0.84054245  0.24397729  0.71582833
   0.43603407  0.44270960  0.58597495
   0.86117876  0.71294547  0.52855007
unknown system                          
           1
     5.377558    0.095214    0.036865
     0.834180    5.792679   -0.167323
     2.712325    2.046056    4.663653
   H 
  16
Direct configuration=    13
   0.78489046  0.17931029  0.23465444
   0.37335246  0.00321706  0.96817128
   0.32689081  0.86850543  0.05037040
   0.29083491  0.44395476  0.08370838
   0.85108562  0.66025415  0.09736629
   0.91953876  0.23586340  0.10266927
   0.32923876  0.91263405  0.46082163
   0.34517452  0.92059018  0.57965408
   0.80466296  0.73824267  0.66169388
   0.83364353  0.79511694  0.07714067
   0.90899375  0.18953449  0.60214764
   0.32122943  0.38981386  0.58057945
   0.42048197  0.40174516  0.10412547
   0.84049789  0.24401988  0.71579088
   0.43578113  0.44262067  0.58598784
   0.86142804  0.71284001  0.52798141
unknown system                          
           1
     5.378764    0.095217    0.036760
     0.834348    5.794096   -0.167352
     2.712826    2.046572    4.664778
   H 
  16
Direct configuration=    14
   0.78474077  0.17925818  0.23479663
   0.37333656  0.00316018  0.96820655
   0.32691107  0.86855205  0.05034550
   0.29086568  0.44394633  0.08369945
   0.85109248  0.66012966  0.09739643
   0.91968754  0.23592611  0.10251387
   0.32925499  0.91264337  0.46086944
   0.34517318  0.92059020  0.57960736
   0.80461379  0.73826967  0.66184246
   0.83364190  0.79523480  0.07711930
   0.90899107  0.18953060  0.60215290
   0.32126706  0.38982904  0.58058449
   0.42045458  0.40175228  0.10412490
   0.84048614  0.24403110  0.71578101
   0.43571444  0.44259723  0.58599123
   0.86149375  0.71281221  0.52783149
