   24   24   99    2
  0.8314702E+01  0.6561473E-09  0.6609200E-09  0.6477123E-09  0.5000000E-15
  1.000000000000000E-004
  CAR 
 unknown system                          
     93     32     80
 
  0.1250000E+00  0.1250000E+00  0.1250000E+00  0.3125000E-01
    1      -30.151594    -30.151077   1.000000   1.000000
    2      -28.250344    -28.244158   1.000000   1.000000
    3      -28.185003    -28.177597   1.000000   1.000000
    4      -28.143932    -28.137366   1.000000   1.000000
    5      -28.135719    -28.129401   1.000000   1.000000
    6      -28.072212    -28.067221   1.000000   1.000000
    7      -28.015093    -28.009514   1.000000   1.000000
    8      -27.987085    -27.979560   1.000000   1.000000
    9      -27.926031    -27.919097   1.000000   1.000000
   10      -27.912689    -27.907148   1.000000   1.000000
   11      -27.898255    -27.893446   1.000000   1.000000
   12      -27.888953    -27.881573   1.000000   1.000000
   13      -27.859255    -27.854476   1.000000   1.000000
   14      -27.857002    -27.849306   1.000000   1.000000
   15      -27.818411    -27.812652   1.000000   1.000000
   16      -27.808935    -27.803425   1.000000   1.000000
   17      -27.787362    -27.781602   1.000000   1.000000
   18      -27.757043    -27.749768   1.000000   1.000000
   19      -27.733879    -27.732004   1.000000   1.000000
   20      -12.666835    -12.665872   1.000000   1.000000
   21      -12.576066    -12.575347   1.000000   1.000000
   22      -12.574210    -12.573425   1.000000   1.000000
   23       -5.433034     -5.430723   1.000000   1.000000
   24       -3.826452     -3.824048   1.000000   1.000000
   25       -3.601355     -3.599043   1.000000   1.000000
   26       -3.356320     -3.354058   1.000000   1.000000
   27       -2.830596     -2.827766   1.000000   1.000000
   28       -2.360036     -2.357260   1.000000   1.000000
   29       -2.250101     -2.247381   1.000000   1.000000
   30       -2.067582     -2.065173   1.000000   1.000000
   31       -1.951018     -1.948356   1.000000   1.000000
   32       -1.696752     -1.694622   1.000000   1.000000
   33       -1.574767     -1.572092   1.000000   1.000000
   34       -1.115480     -1.113452   1.000000   1.000000
   35       -0.988501     -0.986485   1.000000   1.000000
   36       -0.556423     -0.554823   1.000000   1.000000
   37       -0.482445     -0.480538   1.000000   1.000000
   38       -0.031968     -0.028532   1.000000   1.000000
   39        1.130174      1.133039   1.000000   1.000000
   40        1.370600      1.374639   1.000000   1.000000
   41        1.574868      1.578668   1.000000   1.000000
   42        2.250705      2.255200   1.000000   1.000000
   43        2.422327      2.427875   1.000000   1.000000
   44        2.982272      2.989134   1.000000   1.000000
   45        3.184708      3.188417   1.000000   1.000000
   46        3.308498      3.313363   1.001302   1.002288
   47        3.595524      3.605451   0.952752   0.918420
   48        3.731345      3.739059   0.026166  -0.008550
   49        3.970546      3.977916   0.000000   0.000000
   50        4.026315      4.036139   0.000000   0.000000
   51        4.361938      4.373169   0.000000   0.000000
   52        4.577196      4.582151   0.000000   0.000000
   53        5.103712      5.114419   0.000000   0.000000
   54        5.174081      5.179241   0.000000   0.000000
   55        5.457709      5.462155   0.000000   0.000000
   56        5.660851      5.666600   0.000000   0.000000
   57        6.001199      6.006776   0.000000   0.000000
   58        6.191129      6.196073   0.000000   0.000000
   59        6.391552      6.396099   0.000000   0.000000
   60        6.428862      6.434103   0.000000   0.000000
   61        6.790262      6.795097   0.000000   0.000000
   62        7.363582      7.367910   0.000000   0.000000
   63        7.496030      7.500703   0.000000   0.000000
   64        7.639557      7.644732   0.000000   0.000000
   65        8.506068      8.509895   0.000000   0.000000
   66        8.613263      8.617412   0.000000   0.000000
   67        8.720854      8.724360   0.000000   0.000000
   68        9.067581      9.072461   0.000000   0.000000
   69        9.215591      9.220218   0.000000   0.000000
   70        9.991976      9.997422   0.000000   0.000000
   71       10.461246     10.463931   0.000000   0.000000
   72       10.562641     10.565951   0.000000   0.000000
   73       10.644460     10.649665   0.000000   0.000000
   74       11.011192     11.014995   0.000000   0.000000
   75       11.368622     11.371671   0.000000   0.000000
   76       11.483875     11.486703   0.000000   0.000000
   77       11.763221     11.766988   0.000000   0.000000
   78       11.968503     11.971320   0.000000   0.000000
   79       12.257456     12.260827   0.000000   0.000000
   80       12.528896     12.533357   0.000000   0.000000
 
  0.3750000E+00  0.1250000E+00  0.1250000E+00  0.3125000E-01
    1      -30.157068    -30.156527   1.000000   1.000000
    2      -28.190236    -28.182073   1.000000   1.000000
    3      -28.156532    -28.149773   1.000000   1.000000
    4      -28.120890    -28.114384   1.000000   1.000000
    5      -28.110803    -28.103756   1.000000   1.000000
    6      -28.012131    -28.007906   1.000000   1.000000
    7      -27.994044    -27.990728   1.000000   1.000000
    8      -27.962143    -27.955090   1.000000   1.000000
    9      -27.941275    -27.935071   1.000000   1.000000
   10      -27.935086    -27.928984   1.000000   1.000000
   11      -27.911243    -27.903478   1.000000   1.000000
   12      -27.903807    -27.899574   1.000000   1.000000
   13      -27.868977    -27.863787   1.000000   1.000000
   14      -27.857616    -27.851840   1.000000   1.000000
   15      -27.851814    -27.844995   1.000000   1.000000
   16      -27.846103    -27.837908   1.000000   1.000000
   17      -27.819230    -27.812853   1.000000   1.000000
   18      -27.791742    -27.786100   1.000000   1.000000
   19      -27.766550    -27.764059   1.000000   1.000000
   20      -12.700374    -12.699366   1.000000   1.000000
   21      -12.597113    -12.596310   1.000000   1.000000
   22      -12.595673    -12.594933   1.000000   1.000000
   23       -4.573402     -4.570872   1.000000   1.000000
   24       -3.612770     -3.610807   1.000000   1.000000
   25       -3.417896     -3.416477   1.000000   1.000000
   26       -3.257883     -3.255764   1.000000   1.000000
   27       -2.705067     -2.703168   1.000000   1.000000
   28       -2.488610     -2.486018   1.000000   1.000000
   29       -2.417142     -2.414799   1.000000   1.000000
   30       -2.075116     -2.073509   1.000000   1.000000
   31       -2.008530     -2.006447   1.000000   1.000000
   32       -1.848368     -1.845467   1.000000   1.000000
   33       -1.652557     -1.648960   1.000000   1.000000
   34       -1.428805     -1.424902   1.000000   1.000000
   35       -1.306147     -1.302812   1.000000   1.000000
   36       -0.694588     -0.692874   1.000000   1.000000
   37       -0.588652     -0.586045   1.000000   1.000000
   38       -0.390512     -0.386970   1.000000   1.000000
   39        0.063159      0.065019   1.000000   1.000000
   40        2.037360      2.043367   1.000000   1.000000
   41        2.159234      2.163310   1.000000   1.000000
   42        2.305477      2.308466   1.000000   1.000000
   43        2.634331      2.640598   1.000000   1.000000
   44        2.949589      2.954448   1.000000   1.000000
   45        3.128951      3.132528   1.000000   1.000000
   46        3.226187      3.230389   1.036781   1.041831
   47        3.916299      3.924716  -0.161792  -0.151160
   48        3.989561      3.998867   0.000000   0.000000
   49        4.116422      4.121497   0.000000   0.000000
   50        4.135420      4.141694   0.000000   0.000000
   51        4.153894      4.162477   0.000000   0.000000
   52        4.186760      4.194544   0.000000   0.000000
   53        4.337811      4.345337   0.000000   0.000000
   54        4.450783      4.462329   0.000000   0.000000
   55        5.008980      5.018189   0.000000   0.000000
   56        5.307035      5.312628   0.000000   0.000000
   57        6.003040      6.008156   0.000000   0.000000
   58        6.477180      6.482854   0.000000   0.000000
   59        6.487311      6.492826   0.000000   0.000000
   60        6.850693      6.856464   0.000000   0.000000
   61        7.241982      7.244819   0.000000   0.000000
   62        7.395761      7.400014   0.000000   0.000000
   63        7.775706      7.779198   0.000000   0.000000
   64        8.013573      8.017868   0.000000   0.000000
   65        8.196803      8.200124   0.000000   0.000000
   66        8.762764      8.765960   0.000000   0.000000
   67        8.985606      8.989263   0.000000   0.000000
   68        9.266261      9.272032   0.000000   0.000000
   69        9.701786      9.704727   0.000000   0.000000
   70        9.952637      9.959076   0.000000   0.000000
   71        9.970379      9.977241   0.000000   0.000000
   72       10.223243     10.228086   0.000000   0.000000
   73       10.500949     10.504059   0.000000   0.000000
   74       11.098323     11.101908   0.000000   0.000000
   75       11.158466     11.162811   0.000000   0.000000
   76       11.305125     11.308155   0.000000   0.000000
   77       11.478441     11.481091   0.000000   0.000000
   78       11.598279     11.599833   0.000000   0.000000
   79       12.268146     12.271340   0.000000   0.000000
   80       12.373065     12.375526   0.000000   0.000000
 
 -0.3750000E+00  0.1250000E+00  0.1250000E+00  0.3125000E-01
    1      -30.151556    -30.151040   1.000000   1.000000
    2      -28.250246    -28.244038   1.000000   1.000000
    3      -28.190287    -28.182771   1.000000   1.000000
    4      -28.144410    -28.138219   1.000000   1.000000
    5      -28.116454    -28.109706   1.000000   1.000000
    6      -28.084755    -28.080100   1.000000   1.000000
    7      -28.016190    -28.010572   1.000000   1.000000
    8      -27.985874    -27.978388   1.000000   1.000000
    9      -27.931064    -27.923950   1.000000   1.000000
   10      -27.906490    -27.901219   1.000000   1.000000
   11      -27.902997    -27.897697   1.000000   1.000000
   12      -27.878830    -27.871837   1.000000   1.000000
   13      -27.864819    -27.857684   1.000000   1.000000
   14      -27.857341    -27.851725   1.000000   1.000000
   15      -27.820890    -27.814259   1.000000   1.000000
   16      -27.809113    -27.804258   1.000000   1.000000
   17      -27.787098    -27.781434   1.000000   1.000000
   18      -27.760254    -27.754097   1.000000   1.000000
   19      -27.730232    -27.727499   1.000000   1.000000
   20      -12.663399    -12.662437   1.000000   1.000000
   21      -12.577898    -12.577170   1.000000   1.000000
   22      -12.574919    -12.574139   1.000000   1.000000
   23       -5.446532     -5.444238   1.000000   1.000000
   24       -3.806630     -3.804400   1.000000   1.000000
   25       -3.621008     -3.618602   1.000000   1.000000
   26       -3.376194     -3.373785   1.000000   1.000000
   27       -2.794375     -2.791528   1.000000   1.000000
   28       -2.388315     -2.385367   1.000000   1.000000
   29       -2.234075     -2.231575   1.000000   1.000000
   30       -2.075653     -2.073371   1.000000   1.000000
   31       -1.919864     -1.917128   1.000000   1.000000
   32       -1.696404     -1.694257   1.000000   1.000000
   33       -1.549815     -1.547072   1.000000   1.000000
   34       -1.136353     -1.134205   1.000000   1.000000
   35       -0.981184     -0.979340   1.000000   1.000000
   36       -0.594163     -0.592469   1.000000   1.000000
   37       -0.478750     -0.476895   1.000000   1.000000
   38       -0.016598     -0.013217   1.000000   1.000000
   39        1.117217      1.120124   1.000000   1.000000
   40        1.364075      1.368032   1.000000   1.000000
   41        1.580355      1.584178   1.000000   1.000000
   42        2.288533      2.293464   1.000000   1.000000
   43        2.439770      2.445000   1.000000   1.000000
   44        2.990902      2.997333   1.000000   1.000000
   45        3.178678      3.182578   1.000000   1.000000
   46        3.299717      3.304725   1.004984   1.006003
   47        3.614247      3.624343   0.899417   0.859476
   48        3.721171      3.729015   0.058981   0.019233
   49        3.945661      3.952877   0.000000   0.000000
   50        4.022568      4.031874   0.000000   0.000000
   51        4.364119      4.375481   0.000000   0.000000
   52        4.566208      4.571584   0.000000   0.000000
   53        5.103919      5.114663   0.000000   0.000000
   54        5.171849      5.176944   0.000000   0.000000
   55        5.451980      5.456546   0.000000   0.000000
   56        5.661164      5.666996   0.000000   0.000000
   57        5.969984      5.975195   0.000000   0.000000
   58        6.216055      6.221033   0.000000   0.000000
   59        6.346674      6.351687   0.000000   0.000000
   60        6.418888      6.423702   0.000000   0.000000
   61        6.815487      6.819615   0.000000   0.000000
   62        7.420377      7.425782   0.000000   0.000000
   63        7.529969      7.534592   0.000000   0.000000
   64        7.634064      7.638970   0.000000   0.000000
   65        8.446867      8.450287   0.000000   0.000000
   66        8.629002      8.633176   0.000000   0.000000
   67        8.713312      8.717085   0.000000   0.000000
   68        9.012842      9.017479   0.000000   0.000000
   69        9.176328      9.181205   0.000000   0.000000
   70        9.984869      9.990372   0.000000   0.000000
   71       10.470402     10.472863   0.000000   0.000000
   72       10.579368     10.583627   0.000000   0.000000
   73       10.639815     10.644132   0.000000   0.000000
   74       11.007408     11.011102   0.000000   0.000000
   75       11.410992     11.413910   0.000000   0.000000
   76       11.487670     11.490865   0.000000   0.000000
   77       11.781088     11.784696   0.000000   0.000000
   78       11.892684     11.895640   0.000000   0.000000
   79       12.213081     12.215907   0.000000   0.000000
   80       12.418819     12.422229   0.000000   0.000000
 
 -0.1250000E+00  0.1250000E+00  0.1250000E+00  0.3125000E-01
    1      -30.146028    -30.145536   1.000000   1.000000
    2      -28.298964    -28.293189   1.000000   1.000000
    3      -28.200290    -28.192913   1.000000   1.000000
    4      -28.162576    -28.156764   1.000000   1.000000
    5      -28.147389    -28.141350   1.000000   1.000000
    6      -28.115162    -28.109333   1.000000   1.000000
    7      -28.053911    -28.048468   1.000000   1.000000
    8      -28.019185    -28.011932   1.000000   1.000000
    9      -27.919769    -27.913001   1.000000   1.000000
   10      -27.913900    -27.906223   1.000000   1.000000
   11      -27.892451    -27.885195   1.000000   1.000000
   12      -27.863522    -27.857372   1.000000   1.000000
   13      -27.842539    -27.837239   1.000000   1.000000
   14      -27.811833    -27.805290   1.000000   1.000000
   15      -27.795505    -27.790511   1.000000   1.000000
   16      -27.790537    -27.785220   1.000000   1.000000
   17      -27.770649    -27.765212   1.000000   1.000000
   18      -27.731717    -27.725353   1.000000   1.000000
   19      -27.704461    -27.701881   1.000000   1.000000
   20      -12.623352    -12.622430   1.000000   1.000000
   21      -12.562890    -12.562185   1.000000   1.000000
   22      -12.552670    -12.551913   1.000000   1.000000
   23       -5.924252     -5.921942   1.000000   1.000000
   24       -3.910939     -3.908048   1.000000   1.000000
   25       -3.833718     -3.831496   1.000000   1.000000
   26       -3.818925     -3.816529   1.000000   1.000000
   27       -2.814363     -2.810450   1.000000   1.000000
   28       -2.444175     -2.441493   1.000000   1.000000
   29       -2.292599     -2.289472   1.000000   1.000000
   30       -2.245365     -2.242599   1.000000   1.000000
   31       -1.957677     -1.954996   1.000000   1.000000
   32       -1.515071     -1.513711   1.000000   1.000000
   33       -0.921552     -0.920172   1.000000   1.000000
   34       -0.673076     -0.671612   1.000000   1.000000
   35       -0.628301     -0.626967   1.000000   1.000000
   36       -0.245773     -0.244179   1.000000   1.000000
   37       -0.061332     -0.060049   1.000000   1.000000
   38        0.094939      0.097577   1.000000   1.000000
   39        0.483378      0.488011   1.000000   1.000000
   40        1.154146      1.157707   1.000000   1.000000
   41        2.264101      2.268926   1.000000   1.000000
   42        2.327086      2.333828   1.000000   1.000000
   43        2.635737      2.641554   1.000000   1.000000
   44        2.716580      2.719941   1.000000   1.000000
   45        3.294073      3.301680   1.000000   1.000000
   46        3.354695      3.358740   1.000000   1.000000
   47        3.455541      3.467803   1.063941   1.068282
   48        3.714314      3.720675   0.272792   0.125712
   49        3.769400      3.771941   0.000000   0.000000
   50        4.151499      4.160175   0.000000   0.000000
   51        4.267490      4.277853   0.000000   0.000000
   52        4.930660      4.937233   0.000000   0.000000
   53        5.051328      5.062124   0.000000   0.000000
   54        5.232566      5.237908   0.000000   0.000000
   55        5.635219      5.641103   0.000000   0.000000
   56        5.912630      5.917505   0.000000   0.000000
   57        6.010123      6.015521   0.000000   0.000000
   58        6.082130      6.086390   0.000000   0.000000
   59        6.144949      6.150474   0.000000   0.000000
   60        6.163785      6.169700   0.000000   0.000000
   61        6.186238      6.191691   0.000000   0.000000
   62        6.905641      6.908949   0.000000   0.000000
   63        7.718286      7.723671   0.000000   0.000000
   64        7.736960      7.742296   0.000000   0.000000
   65        8.069665      8.075496   0.000000   0.000000
   66        8.953611      8.957588   0.000000   0.000000
   67        9.140768      9.144410   0.000000   0.000000
   68        9.743776      9.747432   0.000000   0.000000
   69        9.963089      9.966239   0.000000   0.000000
   70       10.086313     10.090339   0.000000   0.000000
   71       10.207946     10.211142   0.000000   0.000000
   72       10.244587     10.247479   0.000000   0.000000
   73       10.317223     10.320560   0.000000   0.000000
   74       10.559393     10.562024   0.000000   0.000000
   75       10.858093     10.863977   0.000000   0.000000
   76       11.447619     11.451443   0.000000   0.000000
   77       11.701903     11.705962   0.000000   0.000000
   78       11.931847     11.936136   0.000000   0.000000
   79       12.067056     12.070058   0.000000   0.000000
   80       12.211260     12.215364   0.000000   0.000000
 
  0.1250000E+00  0.3750000E+00  0.1250000E+00  0.3125000E-01
    1      -30.155102    -30.154567   1.000000   1.000000
    2      -28.209895    -28.202120   1.000000   1.000000
    3      -28.184920    -28.179720   1.000000   1.000000
    4      -28.105927    -28.098617   1.000000   1.000000
    5      -28.057078    -28.050278   1.000000   1.000000
    6      -28.038849    -28.032294   1.000000   1.000000
    7      -28.019019    -28.014921   1.000000   1.000000
    8      -27.988779    -27.981541   1.000000   1.000000
    9      -27.962576    -27.956762   1.000000   1.000000
   10      -27.951896    -27.946530   1.000000   1.000000
   11      -27.929717    -27.924293   1.000000   1.000000
   12      -27.899481    -27.892437   1.000000   1.000000
   13      -27.879011    -27.871931   1.000000   1.000000
   14      -27.869217    -27.863060   1.000000   1.000000
   15      -27.821644    -27.817178   1.000000   1.000000
   16      -27.816403    -27.810264   1.000000   1.000000
   17      -27.809697    -27.803647   1.000000   1.000000
   18      -27.761475    -27.754695   1.000000   1.000000
   19      -27.733744    -27.731170   1.000000   1.000000
   20      -12.682618    -12.681598   1.000000   1.000000
   21      -12.603815    -12.603011   1.000000   1.000000
   22      -12.582180    -12.581468   1.000000   1.000000
   23       -4.686084     -4.683685   1.000000   1.000000
   24       -4.356154     -4.354168   1.000000   1.000000
   25       -3.155295     -3.153418   1.000000   1.000000
   26       -2.926676     -2.924803   1.000000   1.000000
   27       -2.677872     -2.675603   1.000000   1.000000
   28       -2.517513     -2.514388   1.000000   1.000000
   29       -2.418943     -2.416826   1.000000   1.000000
   30       -2.094322     -2.092035   1.000000   1.000000
   31       -2.039087     -2.036721   1.000000   1.000000
   32       -1.787648     -1.785443   1.000000   1.000000
   33       -1.477173     -1.474282   1.000000   1.000000
   34       -1.323016     -1.319871   1.000000   1.000000
   35       -1.234254     -1.231632   1.000000   1.000000
   36       -1.057125     -1.054465   1.000000   1.000000
   37       -0.549569     -0.547288   1.000000   1.000000
   38       -0.004983     -0.001508   1.000000   1.000000
   39        0.352918      0.355559   1.000000   1.000000
   40        1.682440      1.687759   1.000000   1.000000
   41        1.931509      1.936654   1.000000   1.000000
   42        2.088301      2.091330   1.000000   1.000000
   43        2.400456      2.405200   1.000000   1.000000
   44        2.513092      2.518859   1.000000   1.000000
   45        3.542361      3.545720   1.000000   1.000000
   46        3.729256      3.735318   0.925019   0.901078
   47        3.851923      3.859378  -0.117289  -0.126682
   48        3.987148      3.994264  -0.012121  -0.006249
   49        4.057152      4.065107   0.000000   0.000000
   50        4.151684      4.160150   0.000000   0.000000
   51        4.261169      4.269180   0.000000   0.000000
   52        4.353063      4.361819   0.000000   0.000000
   53        4.581487      4.589636   0.000000   0.000000
   54        4.635248      4.644799   0.000000   0.000000
   55        5.283173      5.288871   0.000000   0.000000
   56        5.375085      5.380520   0.000000   0.000000
   57        6.066657      6.071792   0.000000   0.000000
   58        6.237478      6.243057   0.000000   0.000000
   59        6.832857      6.837965   0.000000   0.000000
   60        6.943324      6.947647   0.000000   0.000000
   61        7.067069      7.071625   0.000000   0.000000
   62        7.302362      7.306658   0.000000   0.000000
   63        7.623022      7.627829   0.000000   0.000000
   64        7.955141      7.959789   0.000000   0.000000
   65        8.146234      8.150872   0.000000   0.000000
   66        8.615712      8.620506   0.000000   0.000000
   67        8.678837      8.683558   0.000000   0.000000
   68        8.858409      8.861746   0.000000   0.000000
   69        9.186078      9.189703   0.000000   0.000000
   70        9.743149      9.746942   0.000000   0.000000
   71       10.029434     10.034462   0.000000   0.000000
   72       10.752473     10.756464   0.000000   0.000000
   73       10.834005     10.838882   0.000000   0.000000
   74       10.920917     10.924765   0.000000   0.000000
   75       11.356005     11.359488   0.000000   0.000000
   76       11.503750     11.506587   0.000000   0.000000
   77       11.879003     11.882282   0.000000   0.000000
   78       12.003254     12.006024   0.000000   0.000000
   79       12.166034     12.169071   0.000000   0.000000
   80       12.294758     12.297528   0.000000   0.000000
 
  0.3750000E+00  0.3750000E+00  0.1250000E+00  0.3125000E-01
    1      -30.155057    -30.154527   1.000000   1.000000
    2      -28.216191    -28.208797   1.000000   1.000000
    3      -28.175526    -28.169394   1.000000   1.000000
    4      -28.094488    -28.088302   1.000000   1.000000
    5      -28.057679    -28.051279   1.000000   1.000000
    6      -28.046192    -28.040565   1.000000   1.000000
    7      -28.024878    -28.018800   1.000000   1.000000
    8      -27.985817    -27.978439   1.000000   1.000000
    9      -27.968543    -27.963435   1.000000   1.000000
   10      -27.946725    -27.939767   1.000000   1.000000
   11      -27.931325    -27.925510   1.000000   1.000000
   12      -27.902823    -27.896006   1.000000   1.000000
   13      -27.887055    -27.882769   1.000000   1.000000
   14      -27.854006    -27.847400   1.000000   1.000000
   15      -27.837051    -27.829203   1.000000   1.000000
   16      -27.811778    -27.807405   1.000000   1.000000
   17      -27.803548    -27.797721   1.000000   1.000000
   18      -27.765190    -27.759309   1.000000   1.000000
   19      -27.730725    -27.727565   1.000000   1.000000
   20      -12.676490    -12.675546   1.000000   1.000000
   21      -12.607905    -12.607024   1.000000   1.000000
   22      -12.582644    -12.581948   1.000000   1.000000
   23       -4.783160     -4.780873   1.000000   1.000000
   24       -4.261024     -4.258909   1.000000   1.000000
   25       -3.233886     -3.232011   1.000000   1.000000
   26       -2.916757     -2.914711   1.000000   1.000000
   27       -2.582723     -2.580239   1.000000   1.000000
   28       -2.525855     -2.523303   1.000000   1.000000
   29       -2.389439     -2.386977   1.000000   1.000000
   30       -2.142279     -2.139674   1.000000   1.000000
   31       -2.074323     -2.071989   1.000000   1.000000
   32       -1.699847     -1.697767   1.000000   1.000000
   33       -1.473967     -1.470892   1.000000   1.000000
   34       -1.339176     -1.336460   1.000000   1.000000
   35       -1.238853     -1.236425   1.000000   1.000000
   36       -1.048426     -1.045881   1.000000   1.000000
   37       -0.519652     -0.516888   1.000000   1.000000
   38       -0.103522     -0.100365   1.000000   1.000000
   39        0.356199      0.358756   1.000000   1.000000
   40        1.661650      1.667246   1.000000   1.000000
   41        1.947418      1.951757   1.000000   1.000000
   42        2.215974      2.219818   1.000000   1.000000
   43        2.385244      2.390037   1.000000   1.000000
   44        2.526777      2.532125   1.000000   1.000000
   45        3.463162      3.466702   1.000000   1.000000
   46        3.763582      3.768971   0.811507   0.771421
   47        3.814402      3.825163  -0.077855  -0.103072
   48        3.958502      3.964787   0.000000   0.000000
   49        4.109512      4.115793   0.000000   0.000000
   50        4.153994      4.161946   0.000000   0.000000
   51        4.276727      4.284264   0.000000   0.000000
   52        4.349326      4.357963   0.000000   0.000000
   53        4.543341      4.552899   0.000000   0.000000
   54        4.647102      4.656795   0.000000   0.000000
   55        5.273828      5.279232   0.000000   0.000000
   56        5.381318      5.386787   0.000000   0.000000
   57        6.092366      6.097608   0.000000   0.000000
   58        6.209581      6.214031   0.000000   0.000000
   59        6.795043      6.800494   0.000000   0.000000
   60        6.939286      6.944262   0.000000   0.000000
   61        7.075035      7.079339   0.000000   0.000000
   62        7.310600      7.315087   0.000000   0.000000
   63        7.571995      7.576272   0.000000   0.000000
   64        7.904050      7.908761   0.000000   0.000000
   65        8.237200      8.241612   0.000000   0.000000
   66        8.574373      8.578467   0.000000   0.000000
   67        8.764640      8.770111   0.000000   0.000000
   68        8.808434      8.811941   0.000000   0.000000
   69        9.163599      9.167402   0.000000   0.000000
   70        9.726328      9.730317   0.000000   0.000000
   71        9.974298      9.978409   0.000000   0.000000
   72       10.672168     10.676572   0.000000   0.000000
   73       10.865561     10.870350   0.000000   0.000000
   74       10.912306     10.916448   0.000000   0.000000
   75       11.326829     11.330463   0.000000   0.000000
   76       11.549345     11.552301   0.000000   0.000000
   77       11.897954     11.901095   0.000000   0.000000
   78       12.096402     12.099646   0.000000   0.000000
   79       12.140754     12.143548   0.000000   0.000000
   80       12.298259     12.300750   0.000000   0.000000
 
 -0.3750000E+00  0.3750000E+00  0.1250000E+00  0.3125000E-01
    1      -30.151851    -30.151339   1.000000   1.000000
    2      -28.250311    -28.244124   1.000000   1.000000
    3      -28.191935    -28.185257   1.000000   1.000000
    4      -28.113613    -28.107789   1.000000   1.000000
    5      -28.089873    -28.084833   1.000000   1.000000
    6      -28.077609    -28.071811   1.000000   1.000000
    7      -28.029540    -28.023052   1.000000   1.000000
    8      -27.989146    -27.982165   1.000000   1.000000
    9      -27.954664    -27.947670   1.000000   1.000000
   10      -27.949076    -27.940053   1.000000   1.000000
   11      -27.905757    -27.898351   1.000000   1.000000
   12      -27.880144    -27.876060   1.000000   1.000000
   13      -27.875433    -27.868400   1.000000   1.000000
   14      -27.852646    -27.847982   1.000000   1.000000
   15      -27.831254    -27.824183   1.000000   1.000000
   16      -27.793187    -27.788716   1.000000   1.000000
   17      -27.779906    -27.774291   1.000000   1.000000
   18      -27.754119    -27.748040   1.000000   1.000000
   19      -27.719597    -27.717144   1.000000   1.000000
   20      -12.654896    -12.653984   1.000000   1.000000
   21      -12.596907    -12.596070   1.000000   1.000000
   22      -12.570297    -12.569582   1.000000   1.000000
   23       -5.345276     -5.343047   1.000000   1.000000
   24       -4.071003     -4.068686   1.000000   1.000000
   25       -3.452569     -3.450305   1.000000   1.000000
   26       -3.291880     -3.289660   1.000000   1.000000