   17   17   60    1
  0.6038019E+01  0.2818645E-09  0.4566352E-09  0.8338385E-09  0.5000000E-15
  1.000000000000000E-004
  CAR 
 unknown system                          
     17    316     20
 
  0.3742002E-15  0.3742002E-15  0.3742002E-15  0.1587302E-02
    1      -12.506751   1.000000
    2      -10.613246   1.000000
    3       -9.681433   1.000000
    4       -8.269744   1.000000
    5       -7.173354   1.000000
    6       -6.794816   1.000000
    7       -6.593810   1.000000
    8       -6.100127   1.000000
    9        2.176572   0.000000
   10        2.711177   0.000000
   11        3.125786   0.000000
   12        3.936287   0.000000
   13        5.066870   0.000000
   14        7.074367   0.000000
   15        7.212855   0.000000
   16        8.091091   0.000000
   17        8.405365   0.000000
   18       10.670158   0.000000
   19       11.246479   0.000000
   20       11.538426   0.000000
 
  0.7142857E-01  0.3728571E-15  0.3747003E-15  0.3174603E-02
    1      -12.418914   1.000000
    2      -10.537869   1.000000
    3       -9.616967   1.000000
    4       -8.206857   1.000000
    5       -7.134930   1.000000
    6       -6.766181   1.000000
    7       -6.570475   1.000000
    8       -6.102272   1.000000
    9        2.248255   0.000000
   10        2.774608   0.000000
   11        3.183045   0.000000
   12        3.907037   0.000000
   13        4.743526   0.000000
   14        5.198487   0.000000
   15        7.784639   0.000000
   16        8.213913   0.000000
   17        9.656563   0.000000
   18        9.934142   0.000000
   19       10.635186   0.000000
   20       11.474556   0.000000
 
  0.1428571E+00  0.3729655E-15  0.3729655E-15  0.3174603E-02
    1      -12.146920   1.000000
    2      -10.314098   1.000000
    3       -9.426783   1.000000
    4       -8.022360   1.000000
    5       -7.026518   1.000000
    6       -6.682827   1.000000
    7       -6.504408   1.000000
    8       -6.111069   1.000000
    9        2.033443   0.000000
   10        2.548123   0.000000
   11        3.030936   0.000000
   12        3.473401   0.000000
   13        4.297306   0.000000
   14        5.347225   0.000000
   15        7.107672   0.000000
   16        7.940037   0.000000
   17        8.300819   0.000000
   18        9.328844   0.000000
   19       10.130371   0.000000
   20       11.623177   0.000000
 
  0.2142857E+00  0.3740497E-15  0.3781697E-15  0.3174603E-02
    1      -11.701509   1.000000
    2       -9.943377   1.000000
    3       -9.123248   1.000000
    4       -7.726351   1.000000
    5       -6.874205   1.000000
    6       -6.586127   1.000000
    7       -6.433523   1.000000
    8       -6.139594   1.000000
    9        0.003355   0.000000
   10        2.826011   0.000000
   11        3.265443   0.000000
   12        3.812581   0.000000
   13        4.477712   0.000000
   14        5.518415   0.000000
   15        6.309212   0.000000
   16        6.948155   0.000000
   17        7.507176   0.000000
   18        8.246679   0.000000
   19        8.914150   0.000000
   20       10.397091   0.000000
 
  0.2857143E+00  0.3764350E-15  0.3781697E-15  0.3174603E-02
    1      -11.087744   1.000000
    2       -9.440615   1.000000
    3       -8.732353   1.000000
    4       -7.347260   1.000000
    5       -6.749312   1.000000
    6       -6.568655   1.000000
    7       -6.432104   1.000000
    8       -6.112298   1.000000
    9       -1.900328   0.999664
   10        3.012126   0.000000
   11        3.517364   0.000000
   12        4.258402   0.000000
   13        4.511166   0.000000
   14        5.352148   0.000000
   15        5.761264   0.000000
   16        6.325412   0.000000
   17        6.971865   0.000000
   18        7.618881   0.000000
   19        7.983984   0.000000
   20        9.189887   0.000000
 
  0.3571429E+00  0.3647256E-15  0.3538836E-15  0.3174603E-02
    1      -10.329141   1.000000
    2       -8.832714   1.000000
    3       -8.304647   1.000000
    4       -7.008128   1.000000
    5       -6.866769   1.000000
    6       -6.604651   1.000000
    7       -6.440284   1.000000
    8       -6.009792   1.000000
    9       -3.542130   1.000000
   10        2.798726   0.000000
   11        3.661720   0.000000
   12        4.268014   0.000000
   13        4.729212   0.000000
   14        5.065184   0.000000
   15        5.533609   0.000000
   16        6.154181   0.000000
   17        6.809303   0.000000
   18        7.418874   0.000000
   19        7.788932   0.000000
   20        8.351243   0.000000
 
  0.4285714E+00  0.3651593E-15  0.3747003E-15  0.3174603E-02
    1       -9.478314   1.000000
    2       -8.249834   1.000000
    3       -7.977913   1.000000
    4       -7.333227   1.000000
    5       -6.749181   1.000000
    6       -6.701238   1.000000
    7       -6.302388   1.000000
    8       -5.910121   1.000000
    9       -4.828267   1.000000
   10        2.484860   0.000000
   11        3.620665   0.000000
   12        4.070785   0.000000
   13        4.423445   0.000000
   14        5.233117   0.000000
   15        5.714141   0.000000
   16        6.180349   0.000000
   17        7.032843   0.000000
   18        7.439239   0.000000
   19        7.748605   0.000000
   20        8.596108   0.000000
 
  0.5000000E+00  0.3569194E-15  0.3538836E-15  0.1587302E-02
    1       -8.767617   1.000000
    2       -8.484490   1.000000
    3       -7.690361   1.000000
    4       -7.277583   1.000000
    5       -7.021431   1.000000
    6       -6.791925   1.000000
    7       -5.940647   1.000000
    8       -5.869604   1.000000
    9       -5.516216   1.000000
   10        2.352586   0.000000
   11        3.632067   0.000000
   12        3.974770   0.000000
   13        4.200211   0.000000
   14        5.199099   0.000000
   15        5.853350   0.000000
   16        6.469458   0.000000
   17        7.006384   0.000000
   18        7.665136   0.000000
   19        7.957359   0.000000
   20        8.325707   0.000000
 
  0.3751340E-15  0.1111111E+00  0.3816392E-15  0.3174603E-02
    1      -12.458814   1.000000
    2      -10.579314   1.000000
    3       -9.597867   1.000000
    4       -8.386438   1.000000
    5       -7.416561   1.000000
    6       -6.893274   1.000000
    7       -6.552585   1.000000
    8       -6.056321   1.000000
    9        2.327509   0.000000
   10        2.863624   0.000000
   11        3.287752   0.000000
   12        4.136409   0.000000
   13        5.270888   0.000000
   14        7.087161   0.000000
   15        7.232302   0.000000
   16        8.026484   0.000000
   17        8.341273   0.000000
   18       10.397306   0.000000
   19       11.130502   0.000000
   20       11.524464   0.000000
 
  0.7142857E-01  0.1111111E+00  0.3816392E-15  0.3174603E-02
    1      -12.362491   1.000000
    2      -10.495140   1.000000
    3       -9.527258   1.000000
    4       -8.343349   1.000000
    5       -7.395898   1.000000
    6       -6.876679   1.000000
    7       -6.519760   1.000000
    8       -6.076499   1.000000
    9        2.420227   0.000000
   10        2.938946   0.000000
   11        3.317807   0.000000
   12        3.955390   0.000000
   13        4.956008   0.000000
   14        5.333045   0.000000
   15        7.856838   0.000000
   16        8.126509   0.000000
   17        9.651341   0.000000
   18       10.023375   0.000000
   19       10.764702   0.000000
   20       11.347241   0.000000
 
  0.1428571E+00  0.1111111E+00  0.3747003E-15  0.3174603E-02
    1      -12.081499   1.000000
    2      -10.259993   1.000000
    3       -9.330990   1.000000
    4       -8.177911   1.000000
    5       -7.292147   1.000000
    6       -6.800915   1.000000
    7       -6.446149   1.000000
    8       -6.104853   1.000000
    9        1.973697   0.000000
   10        2.684770   0.000000
   11        3.234170   0.000000
   12        3.612708   0.000000
   13        4.588167   0.000000
   14        5.279715   0.000000
   15        7.342089   0.000000
   16        7.831068   0.000000
   17        8.530183   0.000000
   18        9.701599   0.000000
   19       10.549913   0.000000
   20       11.345131   0.000000
 
  0.2142857E+00  0.1111111E+00  0.3747003E-15  0.3174603E-02
    1      -11.624359   1.000000
    2       -9.880946   1.000000
    3       -9.022455   1.000000
    4       -7.905077   1.000000
    5       -7.128044   1.000000
    6       -6.695269   1.000000
    7       -6.381775   1.000000
    8       -6.136525   1.000000
    9       -0.054143   0.000000
   10        2.977921   0.000000
   11        3.413928   0.000000
   12        3.886391   0.000000
   13        4.684402   0.000000
   14        5.176450   0.000000
   15        6.666540   0.000000
   16        7.118301   0.000000
   17        7.705866   0.000000
   18        8.848687   0.000000
   19        9.407309   0.000000
   20       10.223589   0.000000
 
  0.2857143E+00  0.1111111E+00  0.3677614E-15  0.3174603E-02
    1      -10.999231   1.000000
    2       -9.374106   1.000000
    3       -8.626964   1.000000
    4       -7.558156   1.000000
    5       -6.945591   1.000000
    6       -6.646190   1.000000
    7       -6.431179   1.000000
    8       -6.099197   1.000000
    9       -1.945227   1.047326
   10        2.979641   0.000000
   11        3.611485   0.000000
   12        4.078342   0.000000
   13        4.672691   0.000000
   14        5.260475   0.000000
   15        6.030768   0.000000
   16        6.564999   0.000000
   17        7.138140   0.000000
   18        8.280787   0.000000
   19        8.638436   0.000000
   20        9.028319   0.000000
 
  0.3571429E+00  0.1111111E+00  0.3885781E-15  0.3174603E-02
    1      -10.233250   1.000000
    2       -8.769197   1.000000
    3       -8.200680   1.000000
    4       -7.222554   1.000000
    5       -6.950670   1.000000
    6       -6.716356   1.000000
    7       -6.429443   1.000000
    8       -6.019351   1.000000
    9       -3.584532   1.000000
   10        2.630348   0.000000
   11        3.522746   0.000000
   12        4.054674   0.000000
   13        4.826466   0.000000
   14        5.260915   0.000000
   15        5.843067   0.000000
   16        6.388665   0.000000
   17        6.911332   0.000000
   18        7.599452   0.000000
   19        8.006633   0.000000
   20        8.963099   0.000000
 
  0.4285714E+00  0.1111111E+00  0.4024558E-15  0.3174603E-02
    1       -9.376614   1.000000
    2       -8.225630   1.000000
    3       -7.859652   1.000000
    4       -7.379817   1.000000
    5       -6.953461   1.000000
    6       -6.746462   1.000000
    7       -6.282396   1.000000
    8       -5.955304   1.000000
    9       -4.882575   1.000000
   10        2.313865   0.000000
   11        3.367477   0.000000
   12        3.914256   0.000000
   13        4.398944   0.000000
   14        5.551520   0.000000
   15        5.726882   0.000000
   16        6.593958   0.000000
   17        6.869613   0.000000
   18        7.365489   0.000000
   19        8.045392   0.000000
   20        8.951519   0.000000
 
  0.5000000E+00  0.1111111E+00  0.3747003E-15  0.3174603E-02
    1       -8.721184   1.000000
    2       -8.434107   1.000000
    3       -7.687311   1.000000
    4       -7.276609   1.000000
    5       -7.027146   1.000000
    6       -6.775390   1.000000
    7       -5.999987   1.000000
    8       -5.900237   1.000000
    9       -5.603712   1.000000
   10        2.244167   0.000000
   11        3.408829   0.000000
   12        3.834488   0.000000
   13        4.082122   0.000000
   14        5.329758   0.000000
   15        5.744311   0.000000
   16        6.557744   0.000000
   17        7.018163   0.000000
   18        7.638255   0.000000
   19        8.188845   0.000000
   20        8.512037   0.000000
 
 -0.4285714E+00  0.1111111E+00  0.3781697E-15  0.3174603E-02
    1       -9.467129   1.000000
    2       -8.246775   1.000000
    3       -7.985167   1.000000
    4       -7.281330   1.000000
    5       -6.799652   1.000000
    6       -6.571332   1.000000
    7       -6.361158   1.000000
    8       -5.939384   1.000000
    9       -4.887001   1.000000
   10        2.477568   0.000000
   11        3.507872   0.000000
   12        3.927603   0.000000
   13        4.160785   0.000000
   14        5.355733   0.000000
   15        5.521694   0.000000
   16        6.191266   0.000000
   17        7.032572   0.000000
   18        7.386276   0.000000
   19        7.659106   0.000000
   20        8.211951   0.000000
 
 -0.3571429E+00  0.1111111E+00  0.3833739E-15  0.3174603E-02
    1      -10.309513   1.000000
    2       -8.860834   1.000000
    3       -8.258199   1.000000
    4       -7.055917   1.000000
    5       -6.923569   1.000000
    6       -6.550061   1.000000
    7       -6.401319   1.000000
    8       -5.989236   1.000000
    9       -3.556363   1.000000
   10        2.926494   0.000000
   11        3.617808   0.000000
   12        4.002138   0.000000
   13        4.597767   0.000000
   14        5.260658   0.000000
   15        5.500626   0.000000
   16        5.910781   0.000000
   17        6.780887   0.000000
   18        7.091671   0.000000
   19        7.651241   0.000000
   20        8.209357   0.000000
 
 -0.2857143E+00  0.1111111E+00  0.3640751E-15  0.3174603E-02
    1      -11.062654   1.000000
    2       -9.456137   1.000000
    3       -8.679345   1.000000
    4       -7.404789   1.000000
    5       -6.945416   1.000000
    6       -6.473799   1.000000
    7       -6.419602   1.000000
    8       -6.031950   1.000000
    9       -1.882408   0.910463
   10        3.167776   0.000000
   11        3.585452   0.000000
   12        4.099688   0.000000
   13        4.634393   0.000000
   14        5.421844   0.000000
   15        5.651832   0.000000
   16        6.167369   0.000000
   17        6.757963   0.000000
   18        7.329250   0.000000
   19        7.809866   0.000000
   20        8.966018   0.000000
 
 -0.2142857E+00  0.1111111E+00  0.3781697E-15  0.3174603E-02
    1      -11.672639   1.000000
    2       -9.945505   1.000000
    3       -9.064307   1.000000
    4       -7.796914   1.000000
    5       -7.073672   1.000000
    6       -6.586484   1.000000
    7       -6.424940   1.000000
    8       -6.025147   1.000000
    9        0.050689   0.000000
   10        2.919387   0.000000
   11        3.375503   0.000000
   12        3.910810   0.000000
   13        4.608670   0.000000
   14        5.623208   0.000000
   15        6.018762   0.000000
   16        6.943843   0.000000
   17        7.500944   0.000000
   18        7.891105   0.000000
   19        8.560876   0.000000
   20       10.038879   0.000000
 
 -0.1428571E+00  0.1111111E+00  0.3851086E-15  0.3174603E-02
    1      -12.111211   1.000000
    2      -10.301506   1.000000
    3       -9.358658   1.000000
    4       -8.105628   1.000000
    5       -7.231438   1.000000
    6       -6.731692   1.000000
    7       -6.482785   1.000000
    8       -6.018308   1.000000
    9        2.141118   0.000000
   10        2.652874   0.000000
   11        3.112733   0.000000
   12        3.612593   0.000000
   13        4.428683   0.000000
   14        5.526171   0.000000
   15        6.819654   0.000000
   16        7.944760   0.000000
   17        8.407758   0.000000
   18        8.972818   0.000000
   19        9.724974   0.000000
   20       11.189835   0.000000
 
 -0.7142857E-01  0.1111111E+00  0.3816392E-15  0.3174603E-02
    1      -12.374119   1.000000
    2      -10.514517   1.000000
    3       -9.541748   1.000000
    4       -8.306341   1.000000
    5       -7.356899   1.000000
    6       -6.842146   1.000000
    7       -6.534807   1.000000
    8       -6.033008   1.000000
    9        2.382281   0.000000
   10        2.909924   0.000000
   11        3.347508   0.000000
   12        4.186348   0.000000
   13        4.671293   0.000000
   14        5.406853   0.000000
   15        7.594844   0.000000
   16        8.162928   0.000000
   17        9.668262   0.000000
   18        9.901629   0.000000
   19       10.412300   0.000000
   20       11.103927   0.000000
 
  0.3755676E-15  0.2222222E+00  0.3747003E-15  0.3174603E-02
    1      -12.321970   1.000000
    2      -10.473560   1.000000
    3       -9.393346   1.000000
    4       -8.655586   1.000000
    5       -7.954369   1.000000
    6       -6.983402   1.000000
    7       -6.618047   1.000000
    8       -6.044513   1.000000
    9        2.698886   0.000000
   10        3.344075   0.000000
   11        3.793987   0.000000
   12        4.654643   0.000000
   13        5.794623   0.000000
   14        7.088037   0.000000
   15        7.300099   0.000000
   16        7.823686   0.000000
   17        8.214136   0.000000
   18        9.877928   0.000000
   19       10.517956   0.000000
   20       11.297859   0.000000
 
  0.7142857E-01  0.2222222E+00  0.3747003E-15  0.3174603E-02
    1      -12.217637   1.000000
    2      -10.379823   1.000000
    3       -9.314623   1.000000
    4       -8.622047   1.000000
    5       -7.941097   1.000000
    6       -6.956004   1.000000
    7       -6.585903   1.000000
    8       -6.072318   1.000000
    9        2.790744   0.000000
   10        3.414838   0.000000
   11        3.690404   0.000000
   12        4.280435   0.000000
   13        5.298141   0.000000
   14        5.796902   0.000000
   15        7.793467   0.000000
   16        7.899721   0.000000
   17        9.625147   0.000000
   18       10.075997   0.000000
   19       10.631992   0.000000
   20       10.872874   0.000000
 
  0.1428571E+00  0.2222222E+00  0.3885781E-15  0.3174603E-02
    1      -11.926123   1.000000
    2      -10.139772   1.000000
    3       -9.113430   1.000000
    4       -8.469788   1.000000
    5       -7.832608   1.000000
    6       -6.860591   1.000000
    7       -6.507835   1.000000
    8       -6.096964   1.000000
    9        1.967224   0.000000
   10        3.005964   0.000000
   11        3.708455   0.000000
   12        4.036834   0.000000
   13        5.094826   0.000000
   14        5.432097   0.000000
   15        7.477355   0.000000
   16        7.624856   0.000000
   17        9.002652   0.000000
   18       10.026103   0.000000
   19       10.409784   0.000000
   20       10.818437   0.000000
 
  0.2142857E+00  0.2222222E+00  0.3747003E-15  0.3174603E-02
    1      -11.458443   1.000000
    2       -9.763842   1.000000
    3       -8.804380   1.000000
    4       -8.217335   1.000000
    5       -7.642835   1.000000
    6       -6.729781   1.000000
    7       -6.432309   1.000000
    8       -6.124783   1.000000
    9       -0.087928   0.000000
   10        3.208682   0.000000
   11        3.782654   0.000000
   12        4.126596   0.000000
   13        4.874720   0.000000
   14        5.277176   0.000000
   15        6.907364   0.000000
   16        7.183646   0.000000
   17        8.194716   0.000000
   18        9.154393   0.000000
   19        9.785034   0.000000
   20        9.968314   0.000000
 
  0.2857143E+00  0.2222222E+00  0.3885781E-15  0.3174603E-02
    1      -10.818975   1.000000
    2       -9.261876   1.000000
    3       -8.413253   1.000000
    4       -7.894490   1.000000
    5       -7.413379   1.000000
    6       -6.623577   1.000000
    7       -6.454732   1.000000
    8       -6.104963   1.000000
    9       -1.991719   1.007785
   10        2.997287   0.000000
   11        3.681486   0.000000
   12        3.966915   0.000000
   13        4.777822   0.000000
   14        5.415681   0.000000
   15        6.337013   0.000000
   16        6.756949   0.000000
   17        7.655734   0.000000
   18        8.117483   0.000000
   19        9.057865   0.000000
   20        9.671299   0.000000
 
  0.3571429E+00  0.2222222E+00  0.3608225E-15  0.3174603E-02
    1      -10.036140   1.000000
    2       -8.667167   1.000000
    3       -8.001842   1.000000
    4       -7.562884   1.000000
    5       -7.227298   1.000000
    6       -6.752236   1.000000
    7       -6.413538   1.000000
    8       -6.050463   1.000000
    9       -3.655975   1.000000
   10        2.498037   0.000000
   11        3.266537   0.000000
   12        3.765695   0.000000
   13        4.753983   0.000000
   14        5.390299   0.000000
   15        6.033948   0.000000
   16        6.592074   0.000000
   17        7.160260   0.000000
   18        7.807058   0.000000
   19        8.539391   0.000000
   20        9.861783   0.000000
 
  0.4285714E+00  0.2222222E+00  0.4024558E-15  0.3174603E-02
    1       -9.167684   1.000000
    2       -8.139314   1.000000
    3       -7.723353   1.000000
    4       -7.419611   1.000000
    5       -7.185174   1.000000
    6       -6.838673   1.000000
    7       -6.302764   1.000000
    8       -6.023072   1.000000
    9       -5.011754   1.000000
   10        2.113179   0.000000
   11        3.016166   0.000000
   12        3.492664   0.000000
   13        4.324818   0.000000
   14        5.177788   0.000000
   15        5.807075   0.000000
   16        6.783799   0.000000
   17        7.095982   0.000000
   18        7.816843   0.000000
   19        8.766251   0.000000
   20        9.438136   0.000000
 
  0.5000000E+00  0.2222222E+00  0.3608225E-15  0.3174603E-02
    1       -8.579565   1.000000
    2       -8.279450   1.000000
    3       -7.683936   1.000000
    4       -7.270369   1.000000
    5       -7.064290   1.000000
    6       -6.725145   1.000000
    7       -6.141253   1.000000
    8       -5.996748   1.000000
    9       -5.796967   1.000000
   10        2.030564   0.000000
   11        3.008772   0.000000
   12        3.352094   0.000000
   13        4.033006   0.000000
   14        5.053558   0.000000
   15        5.470713   0.000000
   16        6.910355   0.000000
   17        7.263916   0.000000
   18        7.764124   0.000000
   19        8.367126   0.000000
   20        9.033712   0.000000
 
 -0.4285714E+00  0.2222222E+00  0.3747003E-15  0.3174603E-02
    1       -9.340695   1.000000
    2       -8.225102   1.000000
    3       -7.873908   1.000000
    4       -7.246670   1.000000
    5       -6.959895   1.000000
    6       -6.571565   1.000000
    7       -6.385378   1.000000
    8       -6.027310   1.000000
    9       -5.026247   1.000000
   10        2.301921   0.000000
   11        3.161850   0.000000
   12        3.472265   0.000000
   13        4.058761   0.000000
   14        5.236290   0.000000
   15        5.347615   0.000000
   16        6.559699   0.000000
   17        7.028550   0.000000
   18        7.447903   0.000000
   19        7.778625   0.000000
   20        8.398693   0.000000
 
 -0.3571429E+00  0.2222222E+00  0.3885781E-15  0.3174603E-02
    1      -10.184282   1.000000
    2       -8.831594   1.000000
    3       -8.107847   1.000000
    4       -7.257561   1.000000
    5       -7.174022   1.000000
    6       -6.532977   1.000000
    7       -6.380579   1.000000
    8       -5.985448   1.000000
    9       -3.628002   1.000000
   10        2.882691   0.000000
   11        3.435326   0.000000
   12        3.739953   0.000000
   13        4.368080   0.000000
   14        5.297838   0.000000
   15        5.658564   0.000000
   16        6.080676   0.000000
   17        6.660051   0.000000
   18        6.995570   0.000000
   19        7.941705   0.000000
   20        8.271744   0.000000
 
 -0.2857143E+00  0.2222222E+00  0.3955170E-15  0.3174603E-02
    1      -10.937125   1.000000
    2       -9.404788   1.000000
    3       -8.508639   1.000000
    4       -7.657768   1.000000
    5       -7.301298   1.000000
    6       -6.555314   1.000000
    7       -6.378520   1.000000
    8       -5.958331   1.000000
    9       -1.905777   1.017250
   10        3.450244   0.000000
   11        3.639016   0.000000
   12        3.990348   0.000000
   13        4.685140   0.000000
   14        5.394461   0.000000
   15        5.722132   0.000000
   16        6.234084   0.000000
   17        6.598676   0.000000
   18        7.179229   0.000000
   19        8.487324   0.000000
   20        8.606296   0.000000
 
 -0.2142857E+00  0.2222222E+00  0.3885781E-15  0.3174603E-02
    1      -11.543542   1.000000
    2       -9.874752   1.000000
    3       -8.881210   1.000000
    4       -8.047495   1.000000
    5       -7.505535   1.000000
    6       -6.686287   1.000000
    7       -6.432152   1.000000
    8       -5.944196   1.000000
    9        0.058931   0.000000
   10        3.246133   0.000000
   11        3.689591   0.000000
   12        4.228059   0.000000
   13        4.964643   0.000000
   14        5.464830   0.000000
   15        5.927380   0.000000
   16        6.932285   0.000000
   17        7.354258   0.000000
   18        7.932123   0.000000
   19        8.903152   0.000000
   20        9.446983   0.000000
 
 -0.1428571E+00  0.2222222E+00  0.3816392E-15  0.3174603E-02
    1      -11.983126   1.000000
    2      -10.215363   1.000000
    3       -9.168164   1.000000
    4       -8.360352   1.000000
    5       -7.717019   1.000000
    6       -6.830234   1.000000
    7       -6.520366   1.000000
    8       -5.963705   1.000000
    9        2.219668   0.000000
   10        2.962307   0.000000
   11        3.516164   0.000000
   12        4.048006   0.000000
   13        4.960769   0.000000
   14        5.756040   0.000000
   15        6.538890   0.000000
   16        7.793488   0.000000
   17        8.601971   0.000000
   18        8.678647   0.000000
   19        9.680141   0.000000
   20       10.416641   0.000000
 
 -0.7142857E-01  0.2222222E+00  0.3747003E-15  0.3174603E-02
    1      -12.242058   1.000000
    2      -10.417092   1.000000
    3       -9.342736   1.000000
    4       -8.565449   1.000000
    5       -7.875500   1.000000
    6       -6.936641   1.000000
    7       -6.591883   1.000000
    8       -6.004480   1.000000
    9        2.752329   0.000000
   10        3.361782   0.000000
   11        3.837262   0.000000
   12        4.647070   0.000000
   13        4.788568   0.000000
   14        5.884913   0.000000
   15        7.304899   0.000000
   16        8.039258   0.000000
   17        9.497897   0.000000
   18        9.850149   0.000000
   19       10.066559   0.000000
   20       10.650121   0.000000
 
  0.3642919E-15  0.3333333E+00  0.3885781E-15  0.3174603E-02
    1      -12.137732   1.000000
    2      -10.290414   1.000000
    3       -9.331585   1.000000
    4       -8.739995   1.000000
    5       -8.488535   1.000000
    6       -7.230527   1.000000
    7       -6.640198   1.000000
    8       -6.142550   1.000000
    9        3.142733   0.000000
   10        4.024299   0.000000
   11        4.582818   0.000000
   12        5.377631   0.000000
   13        6.396928   0.000000
   14        6.963804   0.000000
   15        7.426125   0.000000
   16        7.586020   0.000000
   17        8.090609   0.000000
   18        9.305850   0.000000
   19        9.943019   0.000000
   20       10.342245   0.000000
 
  0.7142857E-01  0.3333333E+00  0.3885781E-15  0.3174603E-02
    1      -12.027795   1.000000
    2      -10.196682   1.000000
    3       -9.267666   1.000000
    4       -8.691247   1.000000
    5       -8.466341   1.000000
    6       -7.206517   1.000000
    7       -6.592057   1.000000
    8       -6.168869   1.000000
    9        3.218664   0.000000
   10        3.944247   0.000000
   11        4.167732   0.000000
   12        4.954017   0.000000
   13        5.731912   0.000000
   14        6.447134   0.000000
   15        7.364741   0.000000
   16        7.805896   0.000000
   17        9.278360   0.000000
   18        9.755563   0.000000
   19       10.216199   0.000000
   20       10.583590   0.000000
 
  0.1428571E+00  0.3333333E+00  0.4440892E-15  0.3174603E-02
    1      -11.731588   1.000000
    2       -9.962724   1.000000
    3       -9.078656   1.000000
    4       -8.532035   1.000000
    5       -8.327534   1.000000
    6       -7.106141   1.000000
    7       -6.492683   1.000000
    8       -6.178459   1.000000
    9        2.011534   0.000000
   10        3.374749   0.000000
   11        4.270910   0.000000
   12        4.615136   0.000000
   13        5.552781   0.000000
   14        5.984588   0.000000
   15        7.136169   0.000000
   16        7.638008   0.000000
   17        9.205634   0.000000
   18        9.646873   0.000000
   19        9.796641   0.000000
   20       10.630495   0.000000
 
  0.2142857E+00  0.3333333E+00  0.3885781E-15  0.3174603E-02
    1      -11.255623   1.000000
    2       -9.602017   1.000000
    3       -8.788077   1.000000
    4       -8.288131   1.000000
    5       -8.100970   1.000000
    6       -6.961679   1.000000
    7       -6.392847   1.000000
    8       -6.181785   1.000000
    9       -0.085305   0.000000
   10        3.431786   0.000000
   11        4.110526   0.000000
   12        4.398519   0.000000
   13        5.164831   0.000000
   14        5.727778   0.000000
   15        6.689009   0.000000
   16        7.327929   0.000000
   17        8.658823   0.000000
   18        8.872726   0.000000
   19        9.500489   0.000000
   20       10.063110   0.000000
 
  0.2857143E+00  0.3333333E+00  0.4440892E-15  0.3174603E-02
    1      -10.599810   1.000000
    2       -9.122740   1.000000
    3       -8.416230   1.000000
    4       -7.987559   1.000000
    5       -7.791709   1.000000
    6       -6.816963   1.000000
    7       -6.386843   1.000000
    8       -6.135198   1.000000
    9       -2.016340   0.997304
   10        3.062212   0.000000
   11        3.527222   0.000000
   12        4.100120   0.000000
   13        4.990237   0.000000
   14        5.521362   0.000000
   15        6.190543   0.000000
   16        6.836370   0.000000
   17        7.888730   0.000000
   18        8.648437   0.000000
   19        9.278121   0.000000
   20        9.896624   0.000000
 
  0.3571429E+00  0.3333333E+00  0.3608225E-15  0.3174603E-02
    1       -9.788795   1.000000
    2       -8.563447   1.000000
    3       -8.032385   1.000000