   16   16   99    2
  0.6537745E+01  0.4444541E-09  0.4885191E-09  0.5502806E-09  0.5000000E-15
  1.000000000000000E-004
  CAR 
 unknown system                          
     16     51     32
 
  0.3742002E-15  0.3742002E-15  0.3742002E-15  0.1000000E-01
    1      -10.825119    -10.825178   1.000000   1.000000
    2       -9.182220     -9.182239   1.000000   1.000000
    3       -8.610945     -8.610971   1.000000   1.000000
    4       -8.510617     -8.510617   1.000000   1.000000
    5       -8.463530     -8.463548   1.000000   1.000000
    6       -8.333039     -8.333079   1.000000   1.000000
    7       -8.233117     -8.233158   1.000000   1.000000
    8       -7.829109     -7.829140   1.000000   1.000000
    9        1.075119      1.077527   0.000000   0.000000
   10        1.635495      1.634788   0.000000   0.000000
   11        2.041686      2.041177   0.000000   0.000000
   12        2.296729      2.296065   0.000000   0.000000
   13        2.661278      2.660990   0.000000   0.000000
   14        2.994946      2.993069   0.000000   0.000000
   15        3.479788      3.479693   0.000000   0.000000
   16        4.255529      4.258653   0.000000   0.000000
   17        4.942285      4.943299   0.000000   0.000000
   18        5.468013      5.465621   0.000000   0.000000
   19        5.885675      5.889773   0.000000   0.000000
   20        6.894774      6.894512   0.000000   0.000000
   21        7.960070      7.959979   0.000000   0.000000
   22        8.271528      8.270240   0.000000   0.000000
   23        8.574658      8.574216   0.000000   0.000000
   24        9.192239      9.188679   0.000000   0.000000
   25        9.367038      9.366750   0.000000   0.000000
   26        9.793378      9.793022   0.000000   0.000000
   27       10.265974     10.266111   0.000000   0.000000
   28       10.685203     10.685854   0.000000   0.000000
   29       11.302160     11.300762   0.000000   0.000000
   30       12.223225     12.225227   0.000000   0.000000
   31       12.448338     12.445672   0.000000   0.000000
   32       12.804871     12.813534   0.000000   0.000000
 
  0.2000000E+00  0.3487336E-15  0.3608225E-15  0.2000000E-01
    1      -10.660325    -10.660385   1.000000   1.000000
    2       -9.127738     -9.127754   1.000000   1.000000
    3       -8.820316     -8.820336   1.000000   1.000000
    4       -8.633772     -8.633818   1.000000   1.000000
    5       -8.460575     -8.460578   1.000000   1.000000
    6       -8.290148     -8.290182   1.000000   1.000000
    7       -8.242407     -8.242441   1.000000   1.000000
    8       -7.895446     -7.895481   1.000000   1.000000
    9        0.954885      0.957009   0.000000   0.000000
   10        1.640611      1.639969   0.000000   0.000000
   11        1.917471      1.917173   0.000000   0.000000
   12        2.441544      2.441304   0.000000   0.000000
   13        2.853753      2.853401   0.000000   0.000000
   14        3.265030      3.264325   0.000000   0.000000
   15        4.068797      4.067513   0.000000   0.000000
   16        4.393455      4.393318   0.000000   0.000000
   17        4.837320      4.838229   0.000000   0.000000
   18        5.625063      5.630384   0.000000   0.000000
   19        6.114183      6.112342   0.000000   0.000000
   20        6.429359      6.428556   0.000000   0.000000
   21        7.594031      7.593796   0.000000   0.000000
   22        8.307041      8.307853   0.000000   0.000000
   23        8.510994      8.510447   0.000000   0.000000
   24        8.717010      8.715949   0.000000   0.000000
   25        9.463025      9.462442   0.000000   0.000000
   26       10.265620     10.266373   0.000000   0.000000
   27       10.400513     10.399218   0.000000   0.000000
   28       10.835524     10.835152   0.000000   0.000000
   29       11.235657     11.236970   0.000000   0.000000
   30       11.870496     11.872105   0.000000   0.000000
   31       12.258410     12.259350   0.000000   0.000000
   32       12.727875     12.729103   0.000000   0.000000
 
  0.4000000E+00  0.4483718E-15  0.3885781E-15  0.2000000E-01
    1      -10.220907    -10.220965   1.000000   1.000000
    2       -9.433566     -9.433591   1.000000   1.000000
    3       -8.970101     -8.970129   1.000000   1.000000
    4       -8.645936     -8.645967   1.000000   1.000000
    5       -8.607523     -8.607529   1.000000   1.000000
    6       -8.336181     -8.336239   1.000000   1.000000
    7       -8.147711     -8.147722   1.000000   1.000000
    8       -7.990959     -7.990988   1.000000   1.000000
    9        0.818471      0.820479   0.000000   0.000000
   10        1.449567      1.449403   0.000000   0.000000
   11        2.241898      2.241146   0.000000   0.000000
   12        2.596308      2.596480   0.000000   0.000000
   13        3.285928      3.284486   0.000000   0.000000
   14        3.564841      3.564708   0.000000   0.000000
   15        4.057649      4.057867   0.000000   0.000000
   16        4.445818      4.445023   0.000000   0.000000
   17        5.148349      5.150314   0.000000   0.000000
   18        6.004817      6.003017   0.000000   0.000000
   19        6.261086      6.261930   0.000000   0.000000
   20        7.050385      7.050024   0.000000   0.000000
   21        7.233330      7.232137   0.000000   0.000000
   22        7.857372      7.858957   0.000000   0.000000
   23        8.433072      8.431081   0.000000   0.000000
   24        8.779861      8.780615   0.000000   0.000000
   25        9.203669      9.206706   0.000000   0.000000
   26        9.883937      9.890318   0.000000   0.000000
   27       10.280760     10.279742   0.000000   0.000000
   28       10.797936     10.796738   0.000000   0.000000
   29       11.195034     11.195912   0.000000   0.000000
   30       11.734632     11.734647   0.000000   0.000000
   31       12.081057     12.079972   0.000000   0.000000
   32       12.522040     12.522777   0.000000   0.000000
 
  0.3734678E-15  0.2000000E+00  0.3720982E-15  0.2000000E-01
    1      -10.683594    -10.683653   1.000000   1.000000
    2       -9.101264     -9.101278   1.000000   1.000000
    3       -8.998491     -8.998537   1.000000   1.000000
    4       -8.677897     -8.677898   1.000000   1.000000
    5       -8.404256     -8.404308   1.000000   1.000000
    6       -8.280199     -8.280212   1.000000   1.000000
    7       -8.107856     -8.107883   1.000000   1.000000
    8       -7.839283     -7.839311   1.000000   1.000000
    9        1.119459      1.121814   0.000000   0.000000
   10        1.874231      1.873424   0.000000   0.000000
   11        2.162360      2.162313   0.000000   0.000000
   12        2.286981      2.286078   0.000000   0.000000
   13        2.776608      2.775506   0.000000   0.000000
   14        3.125801      3.125240   0.000000   0.000000
   15        3.615508      3.617028   0.000000   0.000000
   16        4.248063      4.247805   0.000000   0.000000
   17        4.845264      4.846063   0.000000   0.000000
   18        5.654822      5.656291   0.000000   0.000000
   19        6.544342      6.544827   0.000000   0.000000
   20        6.908337      6.907114   0.000000   0.000000
   21        7.376937      7.376781   0.000000   0.000000
   22        7.951045      7.951360   0.000000   0.000000
   23        8.415677      8.415539   0.000000   0.000000
   24        8.892002      8.890145   0.000000   0.000000
   25        9.405971      9.405334   0.000000   0.000000
   26        9.644006      9.646906   0.000000   0.000000
   27       10.075793     10.074516   0.000000   0.000000
   28       10.497451     10.496278   0.000000   0.000000
   29       10.878299     10.878934   0.000000   0.000000
   30       11.665585     11.666733   0.000000   0.000000
   31       12.008878     12.006831   0.000000   0.000000
   32       12.617891     12.622478   0.000000   0.000000
 
  0.2000000E+00  0.2000000E+00  0.3330669E-15  0.2000000E-01
    1      -10.637966    -10.638027   1.000000   1.000000
    2       -9.139480     -9.139500   1.000000   1.000000
    3       -8.741804     -8.741821   1.000000   1.000000
    4       -8.630220     -8.630261   1.000000   1.000000
    5       -8.512043     -8.512065   1.000000   1.000000
    6       -8.354854     -8.354885   1.000000   1.000000
    7       -8.214911     -8.214925   1.000000   1.000000
    8       -7.934347     -7.934378   1.000000   1.000000
    9        1.020095      1.022488   0.000000   0.000000
   10        1.720139      1.719888   0.000000   0.000000
   11        2.201122      2.200160   0.000000   0.000000
   12        2.329262      2.329599   0.000000   0.000000
   13        2.824205      2.823459   0.000000   0.000000
   14        3.236943      3.235350   0.000000   0.000000
   15        3.812937      3.811184   0.000000   0.000000
   16        4.312223      4.315105   0.000000   0.000000
   17        4.789737      4.790607   0.000000   0.000000
   18        5.639474      5.638878   0.000000   0.000000
   19        6.013224      6.014115   0.000000   0.000000
   20        6.610812      6.609732   0.000000   0.000000
   21        7.738372      7.738792   0.000000   0.000000
   22        7.937449      7.938703   0.000000   0.000000
   23        8.645272      8.645444   0.000000   0.000000
   24        9.518232      9.517913   0.000000   0.000000
   25        9.897368      9.896187   0.000000   0.000000
   26       10.044529     10.044519   0.000000   0.000000
   27       10.273601     10.272504   0.000000   0.000000
   28       10.573492     10.575293   0.000000   0.000000
   29       11.149666     11.149108   0.000000   0.000000
   30       11.572895     11.571846   0.000000   0.000000
   31       12.121390     12.128261   0.000000   0.000000
   32       12.540379     12.543059   0.000000   0.000000
 
  0.4000000E+00  0.2000000E+00  0.4163336E-15  0.2000000E-01
    1      -10.291202    -10.291265   1.000000   1.000000
    2       -9.154031     -9.154023   1.000000   1.000000
    3       -9.032644     -9.032700   1.000000   1.000000
    4       -8.868033     -8.868079   1.000000   1.000000
    5       -8.472730     -8.472742   1.000000   1.000000
    6       -8.287255     -8.287266   1.000000   1.000000
    7       -8.204831     -8.204865   1.000000   1.000000
    8       -8.057923     -8.057952   1.000000   1.000000
    9        0.907835      0.910127   0.000000   0.000000
   10        1.685339      1.685063   0.000000   0.000000
   11        2.179355      2.178457   0.000000   0.000000
   12        2.295404      2.296361   0.000000   0.000000
   13        3.167487      3.166941   0.000000   0.000000
   14        3.584508      3.583197   0.000000   0.000000
   15        3.946454      3.945272   0.000000   0.000000
   16        4.595757      4.594906   0.000000   0.000000
   17        5.316050      5.317287   0.000000   0.000000
   18        5.688695      5.688493   0.000000   0.000000
   19        6.052361      6.051191   0.000000   0.000000
   20        6.991880      6.992459   0.000000   0.000000
   21        7.493553      7.495263   0.000000   0.000000
   22        8.254243      8.253373   0.000000   0.000000
   23        8.577107      8.582334   0.000000   0.000000
   24        8.757437      8.755248   0.000000   0.000000
   25        9.074288      9.074444   0.000000   0.000000
   26        9.730105      9.731728   0.000000   0.000000
   27       10.508291     10.506896   0.000000   0.000000
   28       10.909732     10.910405   0.000000   0.000000
   29       11.018059     11.019588   0.000000   0.000000
   30       11.550702     11.556142   0.000000   0.000000
   31       12.109835     12.110282   0.000000   0.000000
   32       12.238063     12.236878   0.000000   0.000000
 
 -0.4000000E+00  0.2000000E+00  0.3885781E-15  0.2000000E-01
    1       -9.961489     -9.961548   1.000000   1.000000
    2       -9.544264     -9.544306   1.000000   1.000000
    3       -9.128548     -9.128572   1.000000   1.000000
    4       -8.871489     -8.871516   1.000000   1.000000
    5       -8.619063     -8.619077   1.000000   1.000000
    6       -8.231043     -8.231054   1.000000   1.000000
    7       -8.076403     -8.076436   1.000000   1.000000
    8       -7.988638     -7.988669   1.000000   1.000000
    9        0.922891      0.925086   0.000000   0.000000
   10        1.548071      1.547776   0.000000   0.000000
   11        2.298677      2.298198   0.000000   0.000000
   12        2.619348      2.619835   0.000000   0.000000
   13        3.337945      3.336903   0.000000   0.000000
   14        3.681381      3.680580   0.000000   0.000000
   15        4.061303      4.060693   0.000000   0.000000
   16        4.610610      4.609861   0.000000   0.000000
   17        4.978397      4.979144   0.000000   0.000000
   18        5.857143      5.856827   0.000000   0.000000
   19        6.366781      6.367395   0.000000   0.000000
   20        6.794519      6.792785   0.000000   0.000000
   21        7.227520      7.228937   0.000000   0.000000
   22        7.721484      7.720716   0.000000   0.000000
   23        8.570739      8.571612   0.000000   0.000000
   24        8.961545      8.964784   0.000000   0.000000
   25        9.583225      9.582999   0.000000   0.000000
   26       10.036534     10.041950   0.000000   0.000000
   27       10.275342     10.274882   0.000000   0.000000
   28       10.765767     10.764162   0.000000   0.000000
   29       10.905030     10.905128   0.000000   0.000000
   30       11.568442     11.567299   0.000000   0.000000
   31       11.658975     11.658224   0.000000   0.000000
   32       12.187345     12.188261   0.000000   0.000000
 
 -0.2000000E+00  0.2000000E+00  0.3608225E-15  0.2000000E-01
    1      -10.410836    -10.410890   1.000000   1.000000
    2       -9.187779     -9.187833   1.000000   1.000000
    3       -9.011262     -9.011262   1.000000   1.000000
    4       -8.941210     -8.941238   1.000000   1.000000
    5       -8.564961     -8.564984   1.000000   1.000000
    6       -8.243212     -8.243230   1.000000   1.000000
    7       -8.018179     -8.018208   1.000000   1.000000
    8       -7.874436     -7.874468   1.000000   1.000000
    9        1.026972      1.028949   0.000000   0.000000
   10        1.637389      1.636955   0.000000   0.000000
   11        2.257475      2.257503   0.000000   0.000000
   12        2.499690      2.499490   0.000000   0.000000
   13        3.148195      3.147252   0.000000   0.000000
   14        3.553118      3.552545   0.000000   0.000000
   15        3.933904      3.933328   0.000000   0.000000
   16        4.489478      4.489197   0.000000   0.000000
   17        5.116190      5.120354   0.000000   0.000000
   18        5.664665      5.663419   0.000000   0.000000
   19        6.084072      6.082365   0.000000   0.000000
   20        6.452201      6.451714   0.000000   0.000000
   21        7.407442      7.407591   0.000000   0.000000
   22        7.812254      7.812347   0.000000   0.000000
   23        8.412958      8.416304   0.000000   0.000000
   24        8.837636      8.835731   0.000000   0.000000
   25        9.373504      9.373939   0.000000   0.000000
   26        9.597656      9.597755   0.000000   0.000000
   27       10.260392     10.262442   0.000000   0.000000
   28       10.484477     10.482704   0.000000   0.000000
   29       11.103780     11.102929   0.000000   0.000000
   30       11.678572     11.681837   0.000000   0.000000
   31       12.103697     12.102351   0.000000   0.000000
   32       12.444774     12.450711   0.000000   0.000000
 
  0.3762842E-15  0.4000000E+00  0.3738329E-15  0.2000000E-01
    1      -10.283247    -10.283311   1.000000   1.000000
    2       -9.657773     -9.657807   1.000000   1.000000
    3       -8.920913     -8.920922   1.000000   1.000000
    4       -8.749116     -8.749134   1.000000   1.000000
    5       -8.463149     -8.463194   1.000000   1.000000
    6       -8.354616     -8.354643   1.000000   1.000000
    7       -7.954505     -7.954519   1.000000   1.000000
    8       -7.874264     -7.874287   1.000000   1.000000
    9        1.338322      1.340815   0.000000   0.000000
   10        1.827084      1.826043   0.000000   0.000000
   11        2.130243      2.131821   0.000000   0.000000
   12        2.370660      2.369584   0.000000   0.000000
   13        3.090357      3.088818   0.000000   0.000000
   14        3.712555      3.712562   0.000000   0.000000
   15        4.234911      4.234650   0.000000   0.000000
   16        4.473294      4.472847   0.000000   0.000000
   17        5.110127      5.111364   0.000000   0.000000
   18        5.756688      5.755007   0.000000   0.000000
   19        6.251659      6.251376   0.000000   0.000000
   20        6.597824      6.596897   0.000000   0.000000
   21        7.080262      7.081442   0.000000   0.000000
   22        7.435700      7.439220   0.000000   0.000000
   23        8.013060      8.012210   0.000000   0.000000
   24        8.298328      8.298150   0.000000   0.000000
   25        8.867067      8.868066   0.000000   0.000000
   26        9.553880      9.553121   0.000000   0.000000
   27        9.966143      9.966378   0.000000   0.000000
   28       10.647599     10.647590   0.000000   0.000000
   29       11.125447     11.124550   0.000000   0.000000
   30       11.441567     11.440515   0.000000   0.000000
   31       11.897808     11.906034   0.000000   0.000000
   32       12.232118     12.235017   0.000000   0.000000
 
  0.2000000E+00  0.4000000E+00  0.3608225E-15  0.2000000E-01
    1      -10.346246    -10.346308   1.000000   1.000000
    2       -9.305602     -9.305634   1.000000   1.000000
    3       -9.038345     -9.038372   1.000000   1.000000
    4       -8.823857     -8.823896   1.000000   1.000000
    5       -8.464123     -8.464139   1.000000   1.000000
    6       -8.277806     -8.277813   1.000000   1.000000
    7       -8.147692     -8.147717   1.000000   1.000000
    8       -7.906454     -7.906480   1.000000   1.000000
    9        1.250044      1.253022   0.000000   0.000000
   10        1.768959      1.768620   0.000000   0.000000
   11        2.281417      2.281890   0.000000   0.000000
   12        2.604572      2.603578   0.000000   0.000000
   13        2.928014      2.926003   0.000000   0.000000
   14        3.383284      3.382699   0.000000   0.000000
   15        4.233092      4.232923   0.000000   0.000000
   16        4.362671      4.363869   0.000000   0.000000
   17        4.704582      4.703309   0.000000   0.000000
   18        5.414218      5.414757   0.000000   0.000000
   19        6.209422      6.209225   0.000000   0.000000
   20        7.008490      7.007846   0.000000   0.000000
   21        7.322708      7.322394   0.000000   0.000000
   22        7.852619      7.854781   0.000000   0.000000
   23        8.446620      8.445176   0.000000   0.000000
   24        8.955845      8.954643   0.000000   0.000000
   25        9.413632      9.415787   0.000000   0.000000
   26        9.566500      9.573731   0.000000   0.000000
   27       10.075536     10.074515   0.000000   0.000000
   28       10.344981     10.343795   0.000000   0.000000
   29       11.238189     11.236839   0.000000   0.000000
   30       11.739022     11.740354   0.000000   0.000000
   31       12.190730     12.194705   0.000000   0.000000
   32       12.363583     12.361260   0.000000   0.000000
 
  0.4000000E+00  0.4000000E+00  0.3608225E-15  0.2000000E-01
    1      -10.117793    -10.117863   1.000000   1.000000
    2       -9.376642     -9.376683   1.000000   1.000000
    3       -8.987731     -8.987751   1.000000   1.000000
    4       -8.772785     -8.772787   1.000000   1.000000
    5       -8.597852     -8.597911   1.000000   1.000000
    6       -8.420021     -8.420045   1.000000   1.000000
    7       -8.141812     -8.141823   1.000000   1.000000
    8       -8.030244     -8.030258   1.000000   1.000000
    9        1.154156      1.157484   0.000000   0.000000
   10        1.701406      1.701214   0.000000   0.000000
   11        2.263664      2.263476   0.000000   0.000000
   12        2.592749      2.591881   0.000000   0.000000
   13        3.085284      3.084520   0.000000   0.000000
   14        3.229009      3.228223   0.000000   0.000000
   15        4.163736      4.162791   0.000000   0.000000
   16        4.525835      4.524529   0.000000   0.000000
   17        5.323921      5.323252   0.000000   0.000000
   18        5.697933      5.697570   0.000000   0.000000
   19        6.204904      6.204985   0.000000   0.000000
   20        6.328967      6.327890   0.000000   0.000000
   21        7.276695      7.279063   0.000000   0.000000
   22        8.455483      8.455481   0.000000   0.000000
   23        8.805897      8.807126   0.000000   0.000000
   24        9.204059      9.209903   0.000000   0.000000
   25        9.394780      9.395035   0.000000   0.000000
   26        9.567834      9.570041   0.000000   0.000000
   27       10.230987     10.231406   0.000000   0.000000
   28       10.552914     10.551412   0.000000   0.000000
   29       11.244713     11.245657   0.000000   0.000000
   30       11.559887     11.563394   0.000000   0.000000
   31       11.907058     11.906963   0.000000   0.000000
   32       12.252173     12.252398   0.000000   0.000000
 
 -0.4000000E+00  0.4000000E+00  0.3608225E-15  0.2000000E-01
    1       -9.759738     -9.759847   1.000000   1.000000
    2       -9.649528     -9.649545   1.000000   1.000000
    3       -9.233265     -9.233271   1.000000   1.000000
    4       -8.858478     -8.858523   1.000000   1.000000
    5       -8.548533     -8.548533   1.000000   1.000000
    6       -8.277967     -8.277987   1.000000   1.000000
    7       -8.184023     -8.184050   1.000000   1.000000
    8       -7.962480     -7.962498   1.000000   1.000000
    9        1.160778      1.163905   0.000000   0.000000
   10        1.748981      1.748355   0.000000   0.000000
   11        2.241533      2.242588   0.000000   0.000000
   12        2.448160      2.447039   0.000000   0.000000
   13        3.281486      3.280393   0.000000   0.000000
   14        3.622046      3.621152   0.000000   0.000000
   15        4.002184      4.001516   0.000000   0.000000
   16        4.679146      4.676941   0.000000   0.000000
   17        5.396774      5.397218   0.000000   0.000000
   18        5.639211      5.637947   0.000000   0.000000
   19        5.966746      5.966353   0.000000   0.000000
   20        6.673877      6.675889   0.000000   0.000000
   21        7.188678      7.187736   0.000000   0.000000
   22        7.918961      7.920824   0.000000   0.000000
   23        8.444256      8.447101   0.000000   0.000000
   24        9.163451      9.164476   0.000000   0.000000
   25        9.812701      9.816165   0.000000   0.000000
   26       10.082209     10.082568   0.000000   0.000000
   27       10.318331     10.316804   0.000000   0.000000
   28       10.572986     10.574886   0.000000   0.000000
   29       10.972313     10.972564   0.000000   0.000000
   30       11.464232     11.465667   0.000000   0.000000
   31       11.748616     11.749735   0.000000   0.000000
   32       12.213895     12.213086   0.000000   0.000000
 
 -0.2000000E+00  0.4000000E+00  0.3747003E-15  0.2000000E-01
    1       -9.960528     -9.960604   1.000000   1.000000
    2       -9.785164     -9.785195   1.000000   1.000000
    3       -9.069075     -9.069100   1.000000   1.000000
    4       -8.712918     -8.712934   1.000000   1.000000
    5       -8.654427     -8.654459   1.000000   1.000000
    6       -8.324560     -8.324573   1.000000   1.000000
    7       -7.968124     -7.968139   1.000000   1.000000
    8       -7.886750     -7.886782   1.000000   1.000000
    9        1.269748      1.272345   0.000000   0.000000
   10        1.679241      1.678563   0.000000   0.000000
   11        2.193959      2.195162   0.000000   0.000000
   12        2.639643      2.638397   0.000000   0.000000
   13        3.276610      3.275179   0.000000   0.000000
   14        3.704018      3.704295   0.000000   0.000000
   15        4.386266      4.385606   0.000000   0.000000
   16        4.605301      4.604677   0.000000   0.000000
   17        5.065336      5.063840   0.000000   0.000000
   18        5.497224      5.497032   0.000000   0.000000
   19        5.809872      5.810819   0.000000   0.000000
   20        6.582645      6.583307   0.000000   0.000000
   21        7.162965      7.164315   0.000000   0.000000
   22        7.557457      7.558425   0.000000   0.000000
   23        8.119927      8.118700   0.000000   0.000000
   24        8.877551      8.877141   0.000000   0.000000
   25        9.495748      9.500365   0.000000   0.000000
   26        9.684269      9.682977   0.000000   0.000000
   27       10.118753     10.119788   0.000000   0.000000
   28       10.729031     10.728091   0.000000   0.000000
   29       10.932156     10.934087   0.000000   0.000000
   30       11.399805     11.400627   0.000000   0.000000
   31       12.019476     12.018502   0.000000   0.000000
   32       12.110532     12.112513   0.000000   0.000000
 
  0.3744834E-15  0.3743750E-15  0.2500000E+00  0.2000000E-01
    1      -10.680110    -10.680164   1.000000   1.000000
    2       -9.618134     -9.618174   1.000000   1.000000
    3       -8.562562     -8.562590   1.000000   1.000000
    4       -8.512418     -8.512413   1.000000   1.000000
    5       -8.378191     -8.378216   1.000000   1.000000
    6       -8.289259     -8.289291   1.000000   1.000000
    7       -8.090822     -8.090855   1.000000   1.000000
    8       -7.845814     -7.845845   1.000000   1.000000
    9        1.172900      1.174326   0.000000   0.000000
   10        1.508533      1.507992   0.000000   0.000000
   11        1.936697      1.936819   0.000000   0.000000
   12        2.115146      2.114717   0.000000   0.000000
   13        2.958118      2.957455   0.000000   0.000000
   14        3.310361      3.310395   0.000000   0.000000
   15        3.765329      3.765803   0.000000   0.000000
   16        4.238162      4.241040   0.000000   0.000000
   17        5.035347      5.036876   0.000000   0.000000
   18        5.508205      5.506121   0.000000   0.000000
   19        6.036092      6.035009   0.000000   0.000000
   20        6.355449      6.354554   0.000000   0.000000
   21        7.203122      7.201797   0.000000   0.000000
   22        7.695536      7.696264   0.000000   0.000000
   23        8.073916      8.073303   0.000000   0.000000
   24        9.155492      9.155487   0.000000   0.000000
   25        9.645524      9.644417   0.000000   0.000000
   26       10.052728     10.053444   0.000000   0.000000
   27       10.673572     10.675681   0.000000   0.000000
   28       10.962442     10.964692   0.000000   0.000000
   29       11.573128     11.570754   0.000000   0.000000
   30       11.893011     11.893634   0.000000   0.000000
   31       12.421527     12.423350   0.000000   0.000000
   32       12.595808     12.594271   0.000000   0.000000
 
  0.2000000E+00  0.3485710E-15  0.2500000E+00  0.2000000E-01
    1      -10.596269    -10.596319   1.000000   1.000000
    2       -9.354805     -9.354836   1.000000   1.000000
    3       -8.676811     -8.676844   1.000000   1.000000
    4       -8.623365     -8.623384   1.000000   1.000000
    5       -8.493977     -8.493997   1.000000   1.000000
    6       -8.284825     -8.284847   1.000000   1.000000
    7       -8.211154     -8.211176   1.000000   1.000000
    8       -7.902774     -7.902826   1.000000   1.000000
    9        1.152513      1.154986   0.000000   0.000000
   10        1.375100      1.374518   0.000000   0.000000
   11        1.912017      1.911617   0.000000   0.000000
   12        2.450505      2.450237   0.000000   0.000000
   13        2.940821      2.941057   0.000000   0.000000
   14        3.308360      3.307187   0.000000   0.000000
   15        4.197143      4.196189   0.000000   0.000000
   16        4.401981      4.403080   0.000000   0.000000
   17        4.883666      4.883455   0.000000   0.000000
   18        5.673100      5.674975   0.000000   0.000000
   19        6.532199      6.531258   0.000000   0.000000
   20        6.817318      6.817643   0.000000   0.000000
   21        7.289505      7.288055   0.000000   0.000000
   22        7.816359      7.816876   0.000000   0.000000
   23        8.445816      8.446755   0.000000   0.000000
   24        8.858446      8.857582   0.000000   0.000000
   25        9.125231      9.123657   0.000000   0.000000
   26        9.522316      9.523589   0.000000   0.000000
   27       10.218548     10.218885   0.000000   0.000000
   28       10.594471     10.595854   0.000000   0.000000
   29       11.015319     11.018192   0.000000   0.000000
   30       11.743720     11.742585   0.000000   0.000000
   31       12.147430     12.147766   0.000000   0.000000
   32       12.867742     12.867512   0.000000   0.000000
 
  0.4000000E+00  0.4481008E-15  0.2500000E+00  0.2000000E-01
    1      -10.229396    -10.229436   1.000000   1.000000
    2       -9.245817     -9.245849   1.000000   1.000000
    3       -9.010882     -9.010926   1.000000   1.000000
    4       -8.813681     -8.813732   1.000000   1.000000
    5       -8.621172     -8.621178   1.000000   1.000000
    6       -8.319344     -8.319357   1.000000   1.000000
    7       -8.228563     -8.228591   1.000000   1.000000
    8       -7.911146     -7.911196   1.000000   1.000000
    9        0.926379      0.928741   0.000000   0.000000
   10        1.421008      1.420840   0.000000   0.000000
   11        2.344087      2.343419   0.000000   0.000000
   12        2.668673      2.668196   0.000000   0.000000
   13        3.177180      3.176367   0.000000   0.000000
   14        3.534092      3.534427   0.000000   0.000000
   15        3.882948      3.882754   0.000000   0.000000
   16        4.675167      4.674444   0.000000   0.000000