  13  13   0   0
  0.8363099E+01  0.3142511E-09  0.5123785E-09  0.6940063E-09  0.5000000E-15
  1.000000000000000E-004
  CAR 
 unknown system                          
      9.41011528    -35.99811517  301     -0.05320298      1.00000000
    -35.998  0.0000E+00  0.0000E+00
    -35.847  0.0000E+00  0.0000E+00
    -35.695  0.0000E+00  0.0000E+00
    -35.544  0.0000E+00  0.0000E+00
    -35.393  0.0000E+00  0.0000E+00
    -35.241  0.0000E+00  0.0000E+00
    -35.090  0.0000E+00  0.0000E+00
    -34.939  0.0000E+00  0.0000E+00
    -34.787  0.4461E-31  0.6752E-32
    -34.636  0.4472E-21  0.6769E-22
    -34.485  0.4022E-13  0.6087E-14
    -34.333  0.2886E-07  0.4368E-08
    -34.182  0.1100E-03  0.1665E-04
    -34.030 -0.3048E-02 -0.4447E-03
    -33.879  0.7586E-01  0.1104E-01
    -33.728  0.1338E+00  0.3129E-01
    -33.576  0.1319E-01  0.3329E-01
    -33.425  0.2742E-03  0.3333E-01
    -33.274  0.5218E-05  0.3333E-01
    -33.122  0.1154E-09  0.3333E-01
    -32.971  0.1505E-16  0.3333E-01
    -32.820  0.0000E+00  0.3333E-01
    -32.668  0.0000E+00  0.3333E-01
    -32.517  0.0000E+00  0.3333E-01
    -32.365  0.0000E+00  0.3333E-01
    -32.214  0.0000E+00  0.3333E-01
    -32.063  0.0000E+00  0.3333E-01
    -31.911  0.0000E+00  0.3333E-01
    -31.760  0.0000E+00  0.3333E-01
    -31.609  0.0000E+00  0.3333E-01
    -31.457  0.7436E-38  0.3333E-01
    -31.306  0.1134E-26  0.3333E-01
    -31.155  0.1561E-17  0.3333E-01
    -31.003  0.1803E-10  0.3333E-01
    -30.852  0.1433E-05  0.3333E-01
    -30.700  0.2437E-03  0.3337E-01
    -30.549  0.4227E-02  0.3401E-01
    -30.398  0.7116E-01  0.4478E-01
    -30.246  0.2808E+00  0.8728E-01
    -30.095  0.2781E+00  0.1294E+00
    -29.944  0.2662E-01  0.1334E+00
    -29.792 -0.5038E-03  0.1333E+00
    -29.641  0.3192E-04  0.1333E+00
    -29.490  0.3916E-08  0.1333E+00
    -29.338  0.2972E-14  0.1333E+00
    -29.187  0.0000E+00  0.1333E+00
    -29.036  0.0000E+00  0.1333E+00
    -28.884  0.0000E+00  0.1333E+00
    -28.733  0.0000E+00  0.1333E+00
    -28.581  0.0000E+00  0.1333E+00
    -28.430  0.0000E+00  0.1333E+00
    -28.279  0.0000E+00  0.1333E+00
    -28.127  0.0000E+00  0.1333E+00
    -27.976  0.0000E+00  0.1333E+00
    -27.825  0.0000E+00  0.1333E+00
    -27.673  0.0000E+00  0.1333E+00
    -27.522  0.0000E+00  0.1333E+00
    -27.371  0.0000E+00  0.1333E+00
    -27.219  0.0000E+00  0.1333E+00
    -27.068  0.0000E+00  0.1333E+00
    -26.916  0.0000E+00  0.1333E+00
    -26.765  0.0000E+00  0.1333E+00
    -26.614  0.0000E+00  0.1333E+00
    -26.462  0.0000E+00  0.1333E+00
    -26.311  0.0000E+00  0.1333E+00
    -26.160  0.0000E+00  0.1333E+00
    -26.008  0.0000E+00  0.1333E+00
    -25.857  0.0000E+00  0.1333E+00
    -25.706  0.0000E+00  0.1333E+00
    -25.554  0.0000E+00  0.1333E+00
    -25.403  0.0000E+00  0.1333E+00
    -25.252  0.0000E+00  0.1333E+00
    -25.100  0.0000E+00  0.1333E+00
    -24.949  0.0000E+00  0.1333E+00
    -24.797  0.0000E+00  0.1333E+00
    -24.646  0.0000E+00  0.1333E+00
    -24.495  0.0000E+00  0.1333E+00
    -24.343  0.0000E+00  0.1333E+00
    -24.192  0.0000E+00  0.1333E+00
    -24.041  0.0000E+00  0.1333E+00
    -23.889  0.0000E+00  0.1333E+00
    -23.738  0.0000E+00  0.1333E+00
    -23.587  0.0000E+00  0.1333E+00
    -23.435  0.0000E+00  0.1333E+00
    -23.284  0.0000E+00  0.1333E+00
    -23.132  0.0000E+00  0.1333E+00
    -22.981  0.0000E+00  0.1333E+00
    -22.830  0.0000E+00  0.1333E+00
    -22.678  0.0000E+00  0.1333E+00
    -22.527  0.0000E+00  0.1333E+00
    -22.376  0.0000E+00  0.1333E+00
    -22.224  0.0000E+00  0.1333E+00
    -22.073  0.0000E+00  0.1333E+00
    -21.922  0.0000E+00  0.1333E+00
    -21.770  0.0000E+00  0.1333E+00
    -21.619  0.0000E+00  0.1333E+00
    -21.467  0.0000E+00  0.1333E+00
    -21.316  0.0000E+00  0.1333E+00
    -21.165  0.0000E+00  0.1333E+00
    -21.013  0.0000E+00  0.1333E+00
    -20.862  0.0000E+00  0.1333E+00
    -20.711  0.0000E+00  0.1333E+00
    -20.559  0.0000E+00  0.1333E+00
    -20.408  0.0000E+00  0.1333E+00
    -20.257  0.0000E+00  0.1333E+00
    -20.105  0.0000E+00  0.1333E+00
    -19.954  0.0000E+00  0.1333E+00
    -19.803  0.0000E+00  0.1333E+00
    -19.651  0.0000E+00  0.1333E+00
    -19.500  0.0000E+00  0.1333E+00
    -19.348  0.0000E+00  0.1333E+00
    -19.197  0.0000E+00  0.1333E+00
    -19.046  0.0000E+00  0.1333E+00
    -18.894  0.0000E+00  0.1333E+00
    -18.743  0.0000E+00  0.1333E+00
    -18.592  0.0000E+00  0.1333E+00
    -18.440  0.0000E+00  0.1333E+00
    -18.289  0.0000E+00  0.1333E+00
    -18.138  0.0000E+00  0.1333E+00
    -17.986  0.0000E+00  0.1333E+00
    -17.835  0.3537E-35  0.1333E+00
    -17.683  0.1862E-24  0.1333E+00
    -17.532  0.8781E-16  0.1333E+00
    -17.381  0.3373E-09  0.1333E+00
    -17.229  0.7865E-05  0.1333E+00
    -17.078 -0.2792E-03  0.1333E+00
    -16.927  0.1611E-01  0.1357E+00
    -16.775  0.3160E-01  0.1405E+00
    -16.624  0.2061E-01  0.1436E+00
    -16.473  0.1641E-01  0.1461E+00
    -16.321  0.1799E-01  0.1488E+00
    -16.170  0.1544E-02  0.1491E+00
    -16.018  0.1382E+00  0.1700E+00
    -15.867  0.1843E+00  0.1979E+00
    -15.716  0.1391E+00  0.2189E+00
    -15.564  0.4401E-01  0.2256E+00
    -15.413  0.2431E-01  0.2293E+00
    -15.262  0.2690E-01  0.2334E+00
    -15.110 -0.2631E-03  0.2333E+00
    -14.959  0.7535E-04  0.2333E+00
    -14.808  0.1018E-06  0.2333E+00
    -14.656  0.4516E-12  0.2333E+00
    -14.505  0.0000E+00  0.2333E+00
    -14.354  0.0000E+00  0.2333E+00
    -14.202  0.0000E+00  0.2333E+00
    -14.051  0.0000E+00  0.2333E+00
    -13.899  0.0000E+00  0.2333E+00
    -13.748  0.0000E+00  0.2333E+00
    -13.597  0.0000E+00  0.2333E+00
    -13.445  0.0000E+00  0.2333E+00
    -13.294  0.0000E+00  0.2333E+00
    -13.143  0.0000E+00  0.2333E+00
    -12.991  0.0000E+00  0.2333E+00
    -12.840  0.0000E+00  0.2333E+00
    -12.689  0.0000E+00  0.2333E+00
    -12.537  0.0000E+00  0.2333E+00
    -12.386  0.0000E+00  0.2333E+00
    -12.234  0.0000E+00  0.2333E+00
    -12.083  0.0000E+00  0.2333E+00
    -11.932  0.0000E+00  0.2333E+00
    -11.780  0.0000E+00  0.2333E+00
    -11.629  0.0000E+00  0.2333E+00
    -11.478  0.0000E+00  0.2333E+00
    -11.326  0.0000E+00  0.2333E+00
    -11.175  0.0000E+00  0.2333E+00
    -11.024  0.0000E+00  0.2333E+00
    -10.872  0.0000E+00  0.2333E+00
    -10.721  0.0000E+00  0.2333E+00
    -10.570  0.0000E+00  0.2333E+00
    -10.418  0.0000E+00  0.2333E+00
    -10.267  0.0000E+00  0.2333E+00
    -10.115  0.0000E+00  0.2333E+00
     -9.964  0.0000E+00  0.2333E+00
     -9.813  0.0000E+00  0.2333E+00
     -9.661  0.0000E+00  0.2333E+00
     -9.510  0.0000E+00  0.2333E+00
     -9.359  0.0000E+00  0.2333E+00
     -9.207  0.0000E+00  0.2333E+00
     -9.056  0.0000E+00  0.2333E+00
     -8.905  0.8660E-39  0.2333E+00
     -8.753  0.8797E-28  0.2333E+00
     -8.602  0.8027E-19  0.2333E+00
     -8.450  0.6057E-12  0.2333E+00
     -8.299  0.3051E-07  0.2333E+00
     -8.148  0.4636E-05  0.2333E+00
     -7.996 -0.3778E-05  0.2333E+00
     -7.845  0.3214E-02  0.2338E+00
     -7.694  0.6332E-02  0.2348E+00
     -7.542  0.1330E-01  0.2368E+00
     -7.391  0.1455E-01  0.2390E+00
     -7.240  0.2106E-01  0.2422E+00
     -7.088  0.2485E-01  0.2459E+00
     -6.937  0.1963E-01  0.2489E+00
     -6.785  0.2082E-01  0.2521E+00
     -6.634  0.2226E-01  0.2554E+00
     -6.483  0.2189E-01  0.2587E+00
     -6.331  0.4045E-01  0.2649E+00
     -6.180  0.5570E-01  0.2733E+00
     -6.029  0.2607E-01  0.2772E+00
     -5.877  0.2761E-01  0.2814E+00
     -5.726  0.3692E-01  0.2870E+00
     -5.575  0.8681E-01  0.3002E+00
     -5.423  0.5105E-01  0.3079E+00
     -5.272  0.1928E-01  0.3108E+00
     -5.121  0.2092E-01  0.3140E+00
     -4.969  0.2010E-01  0.3170E+00
     -4.818  0.6007E-02  0.3179E+00
     -4.666  0.9864E-02  0.3194E+00
     -4.515  0.1828E-01  0.3222E+00
     -4.364  0.6287E-02  0.3231E+00
     -4.212  0.1174E-01  0.3249E+00
     -4.061  0.1619E-01  0.3274E+00
     -3.910  0.3336E-01  0.3324E+00
     -3.758  0.4143E-01  0.3387E+00
     -3.607  0.4826E-01  0.3460E+00
     -3.456  0.6943E-01  0.3565E+00
     -3.304  0.5994E-01  0.3656E+00
     -3.153  0.4386E-01  0.3722E+00
     -3.001  0.7964E-01  0.3843E+00
     -2.850  0.5497E-01  0.3926E+00
     -2.699  0.2831E-01  0.3969E+00
     -2.547  0.8285E-01  0.4094E+00
     -2.396  0.6655E-01  0.4195E+00
     -2.245  0.3351E-01  0.4245E+00
     -2.093  0.1294E+00  0.4441E+00
     -1.942  0.6264E-01  0.4536E+00
     -1.791  0.5472E-01  0.4619E+00
     -1.639  0.7809E-01  0.4737E+00
     -1.488  0.1146E+00  0.4911E+00
     -1.336  0.1543E-01  0.4934E+00
     -1.185  0.2662E-01  0.4974E+00
     -1.034  0.1644E-01  0.4999E+00
     -0.882  0.4567E-03  0.5000E+00
     -0.731 -0.3620E-03  0.4999E+00
     -0.580  0.1701E-01  0.5025E+00
     -0.428  0.6689E-01  0.5126E+00
     -0.277  0.9650E-01  0.5272E+00
     -0.126  0.3772E-01  0.5330E+00
      0.026  0.2496E-02  0.5333E+00
      0.177 -0.7409E-05  0.5333E+00
      0.328  0.3009E-05  0.5333E+00
      0.480  0.7078E-09  0.5333E+00
      0.631  0.1187E-14  0.5333E+00
      0.783  0.0000E+00  0.5333E+00
      0.934  0.0000E+00  0.5333E+00
      1.085  0.0000E+00  0.5333E+00
      1.237  0.9915E-29  0.5333E+00
      1.388  0.2200E-19  0.5333E+00
      1.539  0.4422E-12  0.5333E+00
      1.691  0.7312E-07  0.5333E+00
      1.842  0.6161E-04  0.5333E+00
      1.993 -0.7045E-03  0.5332E+00
      2.145  0.2591E-01  0.5372E+00
      2.296  0.6632E-01  0.5472E+00
      2.448  0.1417E+00  0.5686E+00
      2.599  0.1036E+00  0.5843E+00
      2.750  0.4595E-01  0.5913E+00
      2.902  0.3207E-01  0.5961E+00
      3.053  0.3365E-01  0.6012E+00
      3.204  0.2942E-01  0.6057E+00
      3.356  0.1770E-01  0.6084E+00
      3.507  0.7746E-02  0.6095E+00
      3.658  0.1467E-01  0.6117E+00
      3.810  0.6453E-02  0.6127E+00
      3.961  0.1246E-01  0.6146E+00
      4.112  0.3313E-01  0.6196E+00
      4.264  0.3777E-01  0.6253E+00
      4.415  0.2668E-01  0.6294E+00
      4.567  0.2892E-01  0.6338E+00
      4.718  0.4112E-01  0.6400E+00
      4.869  0.7669E-01  0.6516E+00
      5.021  0.6793E-01  0.6619E+00
      5.172  0.4127E-01  0.6681E+00
      5.323  0.4811E-01  0.6754E+00
      5.475  0.7259E-01  0.6864E+00
      5.626  0.8580E-01  0.6994E+00
      5.777  0.6355E-01  0.7090E+00
      5.929  0.8106E-01  0.7213E+00
      6.080  0.7783E-01  0.7330E+00
      6.232  0.7874E-01  0.7450E+00
      6.383  0.9514E-01  0.7594E+00
      6.534  0.7708E-01  0.7710E+00
      6.686  0.5813E-01  0.7798E+00
      6.837  0.6604E-01  0.7898E+00
      6.988  0.2630E-01  0.7938E+00
      7.140  0.1732E-01  0.7964E+00
      7.291  0.2149E-01  0.7997E+00
      7.442  0.2160E-02  0.8000E+00
      7.594 -0.3440E-04  0.8000E+00
      7.745  0.3139E-05  0.8000E+00
      7.897  0.8102E-09  0.8000E+00
      8.048  0.1206E-14  0.8000E+00
      8.199  0.0000E+00  0.8000E+00
      8.351  0.0000E+00  0.8000E+00
      8.502  0.0000E+00  0.8000E+00
      8.653  0.0000E+00  0.8000E+00
      8.805  0.0000E+00  0.8000E+00
      8.956  0.0000E+00  0.8000E+00
      9.107  0.0000E+00  0.8000E+00
      9.259  0.0000E+00  0.8000E+00
      9.410  0.0000E+00  0.8000E+00
