unknown system                          
           1
     2.794046    0.083420   -0.015817
     0.993610    5.790505    0.044632
     0.674776    0.404405    6.333087
   H 
  17
Direct configuration=     1
   0.98026100  0.78619100  0.30022900
   0.15494200  0.71027000  0.22760500
   0.62191600  0.79446500  0.91980500
   0.39338100  0.81586200  0.86361600
   0.08694100  0.60552400  0.61234600
   0.76077200  0.60119500  0.59351800
   0.41883600  0.61538900  0.59731100
   0.45997300  0.20628000  0.79831500
   0.45487900  0.33218800  0.80568400
   0.51888300  0.11548700  0.11282700
   0.96152200  0.04852400  0.59614100
   0.17573900  0.95553800  0.56861900
   0.78319400  0.49383100  0.10581000
   0.91087200  0.38452900  0.05841300
   0.37705700  0.28254300  0.44546200
   0.57034500  0.33784500  0.38438400
   0.36973600  0.04143800  0.18065100
unknown system                          
           1
     2.825419    0.084741   -0.015907
     1.005223    5.867468    0.047932
     0.682526    0.412818    6.410207
   H 
  17
Direct configuration=     2
   0.98011552  0.78614775  0.30000724
   0.15517962  0.71005861  0.22773549
   0.62041166  0.79474477  0.91947080
   0.39433539  0.81583602  0.86408338
   0.08665092  0.60555765  0.61226849
   0.76094903  0.60138173  0.59386714
   0.41883934  0.61515502  0.59757782
   0.45964821  0.20537068  0.79829471
   0.45537430  0.33266375  0.80567982
   0.51896726  0.11533902  0.11317917
   0.96023497  0.04902521  0.59597760
   0.17708280  0.95511699  0.56827722
   0.78276693  0.49417096  0.10574912
   0.91179614  0.38416439  0.05809433
   0.37695878  0.28294050  0.44529726
   0.57025640  0.33792216  0.38447800
   0.36968173  0.04150379  0.18069841
unknown system                          
           1
     2.891202    0.087510   -0.016095
     1.029573    6.028844    0.054851
     0.698776    0.430459    6.571914
   H 
  17
Direct configuration=     3
   0.97981362  0.78605853  0.29954787
   0.15567216  0.70962099  0.22800599
   0.61729242  0.79532431  0.91877826
   0.39631471  0.81578154  0.86505161
   0.08604939  0.60562742  0.61210789
   0.76131663  0.60176768  0.59459024
   0.41884616  0.61467050  0.59813075
   0.45897348  0.20348906  0.79825347
   0.45640199  0.33364818  0.80567073
   0.51914206  0.11503235  0.11390885
   0.95756677  0.05006278  0.59563871
   0.17986843  0.95424603  0.56756953
   0.78188179  0.49487459  0.10562272
   0.91371167  0.38341017  0.05743446
   0.37675552  0.28376327  0.44495565
   0.57007286  0.33808171  0.38467268
   0.36956934  0.04163989  0.18079658
unknown system                          
           1
     2.899026    0.088026   -0.015772
     1.032872    6.047778    0.055378
     0.701544    0.432106    6.592682
   H 
  17
Direct configuration=     4
   0.98021660  0.78585711  0.29931029
   0.15529317  0.70975647  0.22821886
   0.61694905  0.79539269  0.91870551
   0.39651468  0.81578054  0.86515908
   0.08602122  0.60564203  0.61205882
   0.76130292  0.60183182  0.59470028
   0.41885915  0.61458973  0.59821048
   0.45887435  0.20386252  0.79828369
   0.45654646  0.33315916  0.80563482
   0.51885957  0.11484618  0.11413562
   0.95821723  0.04976883  0.59547144
   0.17923414  0.95455985  0.56760610
   0.78228439  0.49452777  0.10541859
   0.91343809  0.38375319  0.05754030
   0.37710606  0.28397077  0.44479702
   0.56967409  0.33799682  0.38481205
   0.36985785  0.04180353  0.18067306
unknown system                          
           1
     2.922497    0.089575   -0.014802
     1.042768    6.104580    0.056959
     0.709848    0.437047    6.654986
   H 
  17
Direct configuration=     5
   0.98142243  0.78525471  0.29859976
   0.15415911  0.71016166  0.22885547
   0.61592170  0.79559722  0.91848798
   0.39711292  0.81577752  0.86548044
   0.08593696  0.60568575  0.61191209
   0.76126182  0.60202360  0.59502934
   0.41889798  0.61434820  0.59844892
   0.45857773  0.20497941  0.79837402
   0.45697875  0.33169667  0.80552746
   0.51801426  0.11428942  0.11481385
   0.96016349  0.04888968  0.59497116
   0.17733631  0.95549843  0.56771552
   0.78348907  0.49349053  0.10480811
   0.91261949  0.38477905  0.05785680
   0.37815496  0.28459128  0.44432256
   0.56848089  0.33774298  0.38522892
   0.37072114  0.04229288  0.18030359
unknown system                          
           1
     2.969439    0.092673   -0.012863
     1.062560    6.218184    0.060120
     0.726457    0.446928    6.779594
   H 
  17
Direct configuration=     6
   0.98381571  0.78406100  0.29719178
   0.15190833  0.71096463  0.23011702
   0.61388355  0.79600279  0.91805728
   0.39829956  0.81577131  0.86611695
   0.08576994  0.60577242  0.61162137
   0.76117992  0.60240354  0.59568125
   0.41897480  0.61386954  0.59892140
   0.45798904  0.20719248  0.79855274
   0.45783666  0.32879881  0.80531507
   0.51633640  0.11318628  0.11615805
   0.96402565  0.04714736  0.59397961
   0.17357063  0.95735861  0.56793264
   0.78587998  0.49143517  0.10359852
   0.91099489  0.38681183  0.05848383
   0.38023654  0.28582065  0.44338199
   0.56611306  0.33724021  0.38605534
   0.37243435  0.04326238  0.17957114
unknown system                          
           1
     3.063323    0.098868   -0.008985
     1.102144    6.445392    0.066443
     0.759674    0.466691    7.028809
   H 
  17
Direct configuration=     7
   0.98853036  0.78171669  0.29442682
   0.14747456  0.71254171  0.23259466
   0.60987184  0.79680035  0.91721273
   0.40063443  0.81575822  0.86736584
   0.08544170  0.60594284  0.61105069
   0.76101732  0.60314925  0.59696094
   0.41912513  0.61292942  0.59984923
   0.45682945  0.21153804  0.79890263
   0.45952641  0.32310852  0.80489934
   0.51303061  0.11102039  0.11879878
   0.97163135  0.04372494  0.59203161
   0.16615644  0.96101280  0.56836013
   0.79058968  0.48739893  0.10122356
   0.90779502  0.39080367  0.05971461
   0.38433629  0.28823398  0.44153336
   0.56144987  0.33625375  0.38767957
   0.37580852  0.04516552  0.17813149
unknown system                          
           1
     3.086157    0.100292   -0.008810
     1.111093    6.515803    0.069135
     0.765938    0.473950    7.102337
   H 
  17
Direct configuration=     8
   0.98819842  0.78177894  0.29430477
   0.14788310  0.71226925  0.23262895
   0.60890533  0.79701270  0.91702976
   0.40114264  0.81577023  0.86766277
   0.08567883  0.60604678  0.61063255
   0.76053534  0.60348117  0.59748744
   0.41926434  0.61250599  0.60019264
   0.45648624  0.21178697  0.79896392
   0.46001990  0.32247614  0.80483328
   0.51320874  0.11096023  0.11904315
   0.97207465  0.04349904  0.59170290
   0.16577859  0.96130201  0.56828309
   0.79058928  0.48735933  0.10102426
   0.90818621  0.39085309  0.05960630
   0.38408077  0.28849330  0.44145435
   0.56157721  0.33635272  0.38768354
   0.37563942  0.04515111  0.17820233
unknown system                          
           1
     3.116444    0.102180   -0.008576
     1.122964    6.609195    0.072705
     0.774247    0.483579    7.199865
   H 
  17
Direct configuration=     9
   0.98776135  0.78186072  0.29414454
   0.14842065  0.71191169  0.23267403
   0.60763291  0.79729155  0.91678954
   0.40181206  0.81578578  0.86805252
   0.08599082  0.60618334  0.61008363
   0.75990166  0.60391648  0.59817847
   0.41944733  0.61195022  0.60064357
   0.45603474  0.21211359  0.79904431
   0.46066870  0.32164637  0.80474677
   0.51344342  0.11088115  0.11936394
   0.97265772  0.04320274  0.59127147
   0.16528141  0.96168158  0.56818187
   0.79058852  0.48730748  0.10076266
   0.90870125  0.39091792  0.05946409
   0.38374461  0.28883363  0.44135055
   0.56174501  0.33648255  0.38768871
   0.37541683  0.04513220  0.17829533
unknown system                          
           1
     3.113337    0.102085   -0.008311
     1.121183    6.623518    0.073531
     0.774059    0.485199    7.213611
   H 
  17
Direct configuration=    10
   0.98822115  0.78163100  0.29390058
   0.14798044  0.71208484  0.23288579
   0.60749523  0.79734470  0.91678676
   0.40182887  0.81580474  0.86808798
   0.08629398  0.60626819  0.60970189
   0.75943926  0.60413101  0.59850475
   0.41956562  0.61167576  0.60082615
   0.45591626  0.21162521  0.79904950
   0.46083185  0.32201551  0.80475255
   0.51319628  0.11073608  0.11954684
   0.97187768  0.04353099  0.59129526
   0.16609100  0.96136531  0.56806374
   0.79060268  0.48727963  0.10069271
   0.90876826  0.39097247  0.05945627
   0.38401951  0.28896891  0.44123526
   0.56146578  0.33641038  0.38777164
   0.37565515  0.04525427  0.17817834
unknown system                          
           1
     3.108828    0.101948   -0.007925
     1.118597    6.644306    0.074729
     0.773786    0.487549    7.233561
   H 
  17
Direct configuration=    11
   0.98888853  0.78129835  0.29354717
   0.14734140  0.71233556  0.23319256
   0.60729530  0.79742168  0.91678272
   0.40185337  0.81583219  0.86813935
   0.08673429  0.60639114  0.60914886
   0.75876815  0.60444164  0.59897741
   0.41973708  0.61127823  0.60109067
   0.45574315  0.21091790  0.79905708
   0.46106963  0.32255012  0.80476087
   0.51283708  0.11052596  0.11981185
   0.97074504  0.04400638  0.59132971
   0.16726650  0.96090728  0.56789260
   0.79062313  0.48723932  0.10059138
   0.90886571  0.39105147  0.05944493
   0.38441908  0.28916487  0.44106821
   0.56106001  0.33630584  0.38789180
   0.37600156  0.04543108  0.17800884
unknown system                          
           1
     3.104244    0.101929   -0.007782
     1.116569    6.654772    0.075102
     0.772974    0.488495    7.244979
   H 
  17
Direct configuration=    12
   0.98896582  0.78123764  0.29345727
   0.14728151  0.71234506  0.23325230
   0.60731478  0.79745731  0.91681898
   0.40172458  0.81586438  0.86813318
   0.08699587  0.60647363  0.60877487
   0.75835206  0.60464796  0.59929224
   0.41985199  0.61101643  0.60126412
   0.45565579  0.21098975  0.79909191
   0.46119651  0.32236571  0.80473956
   0.51282658  0.11050029  0.11988281
   0.97083792  0.04396564  0.59125715
   0.16720611  0.96095630  0.56788288
   0.79071841  0.48714537  0.10049788
   0.90883854  0.39117519  0.05946959
   0.38438715  0.28920587  0.44105183
   0.56109393  0.33631536  0.38787589
   0.37600145  0.04543714  0.17799356
unknown system                          
           1
     3.090491    0.101875   -0.007351
     1.110488    6.686169    0.076222
     0.770539    0.491334    7.279233
   H 
  17
Direct configuration=    13
   0.98919764  0.78105579  0.29318799
   0.14710172  0.71237353  0.23343125
   0.60737352  0.79756401  0.91692758
   0.40133774  0.81596079  0.86811471
   0.08778135  0.60672072  0.60765465
   0.75710332  0.60526593  0.60023526
   0.42019662  0.61023223  0.60178368
   0.45539368  0.21120496  0.79919623
   0.46157697  0.32181336  0.80467574
   0.51279508  0.11042339  0.12009535
   0.97111666  0.04384361  0.59103979
   0.16702482  0.96110315  0.56785376
   0.79100413  0.48686395  0.10021782
   0.90875744  0.39154575  0.05954344
   0.38429135  0.28932868  0.44100276
   0.56119585  0.33634386  0.38782820
   0.37600110  0.04545527  0.17794779
unknown system                          
           1
     3.062987    0.101765   -0.006490
     1.098324    6.748964    0.078461
     0.765668    0.497013    7.347741
   H 
  17
Direct configuration=    14
   0.98966093  0.78069386  0.29265197
   0.14674147  0.71243017  0.23378747
   0.60749275  0.79777639  0.91714373
   0.40056124  0.81615276  0.86807797
   0.08935670  0.60721273  0.60542461
   0.75460299  0.60649594  0.60211243
   0.42088525  0.60867114  0.60281805
   0.45486910  0.21163335  0.79940388
   0.46233696  0.32071387  0.80454876
   0.51273208  0.11027028  0.12051846
   0.97167487  0.04360072  0.59060712
   0.16666159  0.96139548  0.56779579
   0.79157495  0.48630381  0.09966035
   0.90859753  0.39228335  0.05969038
   0.38409960  0.28957317  0.44090508
   0.56140063  0.33640060  0.38773327
   0.37600036  0.04549138  0.17785668
unknown system                          
           1
     3.007978    0.101545   -0.004767
     1.073996    6.874552    0.082938
     0.755927    0.508369    7.484756
   H 
  17
Direct configuration=    15
   0.99058625  0.77997694  0.29158997
   0.14601813  0.71254232  0.23449333
   0.60773824  0.79819702  0.91757189
   0.39899672  0.81653327  0.86800526
   0.09252535  0.60818810  0.60100555
   0.74959027  0.60893258  0.60583185
   0.42226016  0.60557769  0.60486796
   0.45381844  0.21248210  0.79981525
   0.46385344  0.31853545  0.80429745
   0.51260605  0.10996678  0.12135688
   0.97279434  0.04311958  0.58974982
   0.16593241  0.96197475  0.56768089
   0.79271416  0.48519418  0.09855592
   0.90828690  0.39374466  0.05998127
   0.38371547  0.29005762  0.44071148
   0.56181398  0.33651301  0.38754511
   0.37599868  0.04556296  0.17767614
unknown system                          
           1
     2.993527    0.101223   -0.005116
     1.066861    6.911030    0.084860
     0.751288    0.512640    7.522807
   H 
  17
Direct configuration=    16
   0.98900666  0.78053635  0.29195906
   0.14765224  0.71178537  0.23404424
   0.60803827  0.79829947  0.91776028
   0.39831145  0.81666286  0.86792249
   0.09216856  0.60839828  0.60013777
   0.74969305  0.60944513  0.60662888
   0.42236574  0.60495696  0.60532617
   0.45346527  0.21260518  0.79993364
   0.46433180  0.31803140  0.80422231
   0.51342866  0.11027188  0.12125478
   0.97282754  0.04307357  0.58953076
   0.16605416  0.96199663  0.56762105
   0.79181624  0.48582346  0.09862786
   0.90940687  0.39324555  0.05967623
   0.38264293  0.28996353  0.44093937
   0.56290313  0.33679832  0.38720416
   0.37513642  0.04520507  0.17794693
unknown system                          
           1
     2.993356    0.101219   -0.005120
     1.066777    6.911461    0.084883
     0.751233    0.512690    7.523257
   H 
  17
Direct configuration=    17
   0.98898794  0.78054293  0.29196340
   0.14767159  0.71177647  0.23403896
   0.60804184  0.79830068  0.91776249
   0.39830331  0.81666438  0.86792152
   0.09216431  0.60840075  0.60012757
   0.74969432  0.60945115  0.60663825
   0.42236698  0.60494966  0.60533156
   0.45346109  0.21260662  0.79993503
   0.46433746  0.31802548  0.80422143
   0.51343844  0.11027546  0.12125358
   0.97282793  0.04307303  0.58952819
   0.16605561  0.96199688  0.56762035
   0.79180561  0.48583086  0.09862871
   0.90942013  0.39323968  0.05967265
   0.38263019  0.28996242  0.44094205
   0.56291606  0.33680168  0.38720015
   0.37512617  0.04520086  0.17795011
unknown system                          
           1
     2.991452    0.101164   -0.005102
     1.065906    6.913428    0.084883
     0.750792    0.512787    7.525106
   H 
  17
Direct configuration=    18
   0.98898125  0.78048531  0.29192136
   0.14769061  0.71177505  0.23408949
   0.60799146  0.79833097  0.91778296
   0.39828560  0.81667951  0.86792194
   0.09107590  0.60836983  0.60036391
   0.75098008  0.60936083  0.60651698
   0.42213257  0.60509928  0.60528662
   0.45335110  0.21249836  0.79995553
   0.46446276  0.31806297  0.80420411
   0.51346564  0.11025982  0.12129817
   0.97269423  0.04309159  0.58949810
   0.16625147  0.96192549  0.56760230
   0.79170247  0.48587067  0.09859990
   0.90954312  0.39324925  0.05965818
   0.38263726  0.29001629  0.44091908
   0.56291766  0.33680383  0.38720017
   0.37508583  0.04521993  0.17791719
unknown system                          
           1
     2.985977    0.101007   -0.005050
     1.063403    6.919084    0.084884
     0.749522    0.513067    7.530421
   H 
  17
Direct configuration=    19
   0.98896190  0.78031972  0.29180052
   0.14774533  0.71177097  0.23423471
   0.60784657  0.79841805  0.91784177
   0.39823466  0.81672297  0.86792315
   0.08794506  0.60828097  0.60104317
   0.75467854  0.60910127  0.60616841
   0.42145841  0.60552929  0.60515747
   0.45303458  0.21218723  0.80001446
   0.46482325  0.31817072  0.80415435
   0.51354390  0.11021487  0.12142634
   0.97230964  0.04314492  0.58941164
   0.16681479  0.96172031  0.56755041
   0.79140580  0.48598507  0.09851710
   0.90989692  0.39327676  0.05961658
   0.38265762  0.29017111  0.44085309
   0.56292226  0.33681002  0.38720024
   0.37496979  0.04527475  0.17782258
