   18   18   60    1
  0.8163329E+01  0.4847788E-09  0.5037665E-09  0.6069544E-09  0.5000000E-15
  1.000000000000000E-004
  CAR 
 unknown system                          
     57    226     40
 
  0.3742002E-15  0.3742002E-15  0.3742002E-15  0.2232143E-02
    1      -32.507756   1.000000
    2      -28.781891   1.000000
    3      -28.749932   1.000000
    4      -28.552829   1.000000
    5      -28.506221   1.000000
    6      -28.401808   1.000000
    7      -28.371816   1.000000
    8      -28.273770   1.000000
    9      -28.005999   1.000000
   10      -27.789617   1.000000
   11      -14.604684   1.000000
   12      -14.572041   1.000000
   13      -14.564095   1.000000
   14       -7.202301   1.000000
   15       -5.076750   1.000000
   16       -3.729178   1.000000
   17       -3.349694   1.000000
   18       -2.641833   1.000000
   19       -2.075678   1.000000
   20       -1.639744   1.000000
   21       -1.409222   1.000000
   22       -1.199303   1.000000
   23       -0.845548   1.000000
   24       -0.599743   1.000000
   25       -0.096514   1.000000
   26        0.616362   1.000000
   27        1.800704   1.000000
   28        2.042461   1.000000
   29        3.111992  -0.035301
   30        3.691251   0.000000
   31        4.234197   0.000000
   32        4.387533   0.000000
   33        4.807861   0.000000
   34        5.418332   0.000000
   35        5.856051   0.000000
   36        6.178795   0.000000
   37        6.230634   0.000000
   38        6.407638   0.000000
   39        6.925271   0.000000
   40        7.208304   0.000000
 
  0.1250000E+00  0.3731824E-15  0.3764350E-15  0.4464286E-02
    1      -32.507642   1.000000
    2      -28.784053   1.000000
    3      -28.742659   1.000000
    4      -28.554299   1.000000
    5      -28.510117   1.000000
    6      -28.409117   1.000000
    7      -28.375903   1.000000
    8      -28.263702   1.000000
    9      -28.005486   1.000000
   10      -27.789700   1.000000
   11      -14.611270   1.000000
   12      -14.571994   1.000000
   13      -14.563549   1.000000
   14       -7.106344   1.000000
   15       -5.030886   1.000000
   16       -3.701590   1.000000
   17       -3.331436   1.000000
   18       -2.723038   1.000000
   19       -2.062185   1.000000
   20       -1.709244   1.000000
   21       -1.438055   1.000000
   22       -1.327202   1.000000
   23       -0.836131   1.000000
   24       -0.595838   1.000000
   25       -0.105081   1.000000
   26        0.656446   1.000000
   27        1.722438   1.000000
   28        2.069966   1.000000
   29        3.133323  -0.051510
   30        3.665103   0.000000
   31        4.165638   0.000000
   32        4.300816   0.000000
   33        4.816234   0.000000
   34        5.378558   0.000000
   35        5.892119   0.000000
   36        6.156574   0.000000
   37        6.233961   0.000000
   38        6.534475   0.000000
   39        6.962069   0.000000
   40        7.429213   0.000000
 
  0.2500000E+00  0.3762182E-15  0.3712308E-15  0.4464286E-02
    1      -32.507380   1.000000
    2      -28.787066   1.000000
    3      -28.726498   1.000000
    4      -28.557480   1.000000
    5      -28.519272   1.000000
    6      -28.430766   1.000000
    7      -28.380011   1.000000
    8      -28.243379   1.000000
    9      -28.004376   1.000000
   10      -27.790168   1.000000
   11      -14.627498   1.000000
   12      -14.571910   1.000000
   13      -14.562431   1.000000
   14       -6.849139   1.000000
   15       -4.917153   1.000000
   16       -3.684904   1.000000
   17       -3.334211   1.000000
   18       -2.894798   1.000000
   19       -2.087832   1.000000
   20       -1.771980   1.000000
   21       -1.592747   1.000000
   22       -1.390499   1.000000
   23       -0.980963   1.000000
   24       -0.555442   1.000000
   25       -0.125447   1.000000
   26        0.717003   1.000000
   27        1.559040   1.000000
   28        2.115354   1.000000
   29        3.030875   0.550011
   30        3.500119   0.000000
   31        4.061519   0.000000
   32        4.324368   0.000000
   33        4.776145   0.000000
   34        5.370357   0.000000
   35        5.886061   0.000000
   36        6.249044   0.000000
   37        6.317955   0.000000
   38        6.729287   0.000000
   39        7.162968   0.000000
   40        7.522960   0.000000
 
  0.3750000E+00  0.3781697E-15  0.3747003E-15  0.4464286E-02
    1      -32.507116   1.000000
    2      -28.788738   1.000000
    3      -28.710019   1.000000
    4      -28.559410   1.000000
    5      -28.528576   1.000000
    6      -28.454974   1.000000
    7      -28.381521   1.000000
    8      -28.225976   1.000000
    9      -28.003299   1.000000
   10      -27.790683   1.000000
   11      -14.643762   1.000000
   12      -14.571716   1.000000
   13      -14.561164   1.000000
   14       -6.525107   1.000000
   15       -4.811206   1.000000
   16       -3.867201   1.000000
   17       -3.321296   1.000000
   18       -2.941479   1.000000
   19       -2.249271   1.000000
   20       -1.809809   1.000000
   21       -1.606552   1.000000
   22       -1.330171   1.000000
   23       -1.159606   1.000000
   24       -0.566862   1.000000
   25       -0.138718   1.000000
   26        0.727410   1.000000
   27        1.392279   1.000000
   28        2.163067   1.000000
   29        2.761339   0.999106
   30        3.317205   0.000667
   31        4.024359   0.000000
   32        4.513853   0.000000
   33        4.684440   0.000000
   34        5.399084   0.000000
   35        5.780946   0.000000
   36        6.433805   0.000000
   37        6.605664   0.000000
   38        7.033427   0.000000
   39        7.375105   0.000000
   40        7.690862   0.000000
 
  0.5000000E+00  0.3766518E-15  0.3816392E-15  0.2232143E-02
    1      -32.507003   1.000000
    2      -28.789209   1.000000
    3      -28.702728   1.000000
    4      -28.559231   1.000000
    5      -28.532774   1.000000
    6      -28.465674   1.000000
    7      -28.381868   1.000000
    8      -28.219303   1.000000
    9      -28.002651   1.000000
   10      -27.790903   1.000000
   11      -14.650349   1.000000
   12      -14.571561   1.000000
   13      -14.560566   1.000000
   14       -6.352866   1.000000
   15       -4.787141   1.000000
   16       -4.000377   1.000000
   17       -3.279584   1.000000
   18       -2.941587   1.000000
   19       -2.356952   1.000000
   20       -1.828134   1.000000
   21       -1.543650   1.000000
   22       -1.288344   1.000000
   23       -1.242365   1.000000
   24       -0.586953   1.000000
   25       -0.142304   1.000000
   26        0.713567   1.000000
   27        1.318858   1.000000
   28        2.200583   1.000000
   29        2.604392   1.000000
   30        3.257137   0.004116
   31        4.051848   0.000000
   32        4.494260   0.000000
   33        4.726404   0.000000
   34        5.413121   0.000000
   35        5.716241   0.000000
   36        6.492411   0.000000
   37        6.943277   0.000000
   38        7.157995   0.000000
   39        7.626788   0.000000
   40        7.717923   0.000000
 
  0.3736703E-15  0.1250000E+00  0.3720982E-15  0.4464286E-02
    1      -32.507672   1.000000
    2      -28.775059   1.000000
    3      -28.744192   1.000000
    4      -28.552060   1.000000
    5      -28.512345   1.000000
    6      -28.414347   1.000000
    7      -28.375527   1.000000
    8      -28.261978   1.000000
    9      -28.004591   1.000000
   10      -27.794703   1.000000
   11      -14.605009   1.000000
   12      -14.575422   1.000000
   13      -14.567178   1.000000
   14       -7.121512   1.000000
   15       -5.045352   1.000000
   16       -3.748419   1.000000
   17       -3.317293   1.000000
   18       -2.679434   1.000000
   19       -2.098372   1.000000
   20       -1.667030   1.000000
   21       -1.396444   1.000000
   22       -1.228999   1.000000
   23       -0.875163   1.000000
   24       -0.656319   1.000000
   25       -0.156573   1.000000
   26        0.537693   1.000000
   27        1.786688   1.000000
   28        2.090795   1.000000
   29        3.120312  -0.046741
   30        3.707534   0.000000
   31        4.236259   0.000000
   32        4.479608   0.000000
   33        4.805253   0.000000
   34        5.410256   0.000000
   35        5.796219   0.000000
   36        6.175131   0.000000
   37        6.243254   0.000000
   38        6.465523   0.000000
   39        6.996247   0.000000
   40        7.504551   0.000000
 
  0.1250000E+00  0.1250000E+00  0.3755676E-15  0.4464286E-02
    1      -32.507541   1.000000
    2      -28.786903   1.000000
    3      -28.730323   1.000000
    4      -28.562222   1.000000
    5      -28.525278   1.000000
    6      -28.406231   1.000000
    7      -28.373142   1.000000
    8      -28.250784   1.000000
    9      -28.003910   1.000000
   10      -27.796490   1.000000
   11      -14.610026   1.000000
   12      -14.575407   1.000000
   13      -14.566481   1.000000
   14       -7.059760   1.000000
   15       -5.017819   1.000000
   16       -3.688043   1.000000
   17       -3.324652   1.000000
   18       -2.663191   1.000000
   19       -2.171987   1.000000
   20       -1.715055   1.000000
   21       -1.460001   1.000000
   22       -1.267974   1.000000
   23       -0.890289   1.000000
   24       -0.648877   1.000000
   25       -0.076327   1.000000
   26        0.495280   1.000000
   27        1.863903   1.000000
   28        2.131199   1.000000
   29        2.974994   0.989821
   30        3.635253   0.000000
   31        4.131628   0.000000
   32        4.399717   0.000000
   33        4.830118   0.000000
   34        5.325611   0.000000
   35        5.856737   0.000000
   36        6.172902   0.000000
   37        6.279152   0.000000
   38        6.715254   0.000000
   39        6.974155   0.000000
   40        7.293236   0.000000
 
  0.2500000E+00  0.1250000E+00  0.3781697E-15  0.4464286E-02
    1      -32.507262   1.000000
    2      -28.796018   1.000000
    3      -28.711551   1.000000
    4      -28.575554   1.000000
    5      -28.536257   1.000000
    6      -28.404680   1.000000
    7      -28.381261   1.000000
    8      -28.232469   1.000000
    9      -28.003267   1.000000
   10      -27.797495   1.000000
   11      -14.625216   1.000000
   12      -14.575208   1.000000
   13      -14.565079   1.000000
   14       -6.837100   1.000000
   15       -4.913275   1.000000
   16       -3.624019   1.000000
   17       -3.286493   1.000000
   18       -2.883436   1.000000
   19       -2.136369   1.000000
   20       -1.903262   1.000000
   21       -1.630883   1.000000
   22       -1.320787   1.000000
   23       -0.981780   1.000000
   24       -0.536008   1.000000
   25       -0.046668   1.000000
   26        0.501726   1.000000
   27        1.795615   1.000000
   28        2.166700   1.000000
   29        2.868942   1.001344
   30        3.458909   0.000000
   31        4.001248   0.000000
   32        4.374524   0.000000
   33        4.856473   0.000000
   34        5.233551   0.000000
   35        5.868722   0.000000
   36        6.157042   0.000000
   37        6.437661   0.000000
   38        6.836900   0.000000
   39        6.905385   0.000000
   40        7.502002   0.000000
 
  0.3750000E+00  0.1250000E+00  0.3816392E-15  0.4464286E-02
    1      -32.507000   1.000000
    2      -28.799204   1.000000
    3      -28.696472   1.000000
    4      -28.582063   1.000000
    5      -28.541894   1.000000
    6      -28.415308   1.000000
    7      -28.389036   1.000000
    8      -28.218484   1.000000
    9      -28.003104   1.000000
   10      -27.797207   1.000000
   11      -14.641579   1.000000
   12      -14.574931   1.000000
   13      -14.563700   1.000000
   14       -6.537776   1.000000
   15       -4.786157   1.000000
   16       -3.748793   1.000000
   17       -3.337816   1.000000
   18       -2.930003   1.000000
   19       -2.221356   1.000000
   20       -2.003605   1.000000
   21       -1.705993   1.000000
   22       -1.307602   1.000000
   23       -1.062463   1.000000
   24       -0.528140   1.000000
   25       -0.112825   1.000000
   26        0.565582   1.000000
   27        1.619674   1.000000
   28        2.250925   1.000000
   29        2.676000   0.999988
   30        3.256035   0.004191
   31        4.032852   0.000000
   32        4.480195   0.000000
   33        4.684829   0.000000
   34        5.315164   0.000000
   35        5.819359   0.000000
   36        6.319073   0.000000
   37        6.633848   0.000000
   38        6.888757   0.000000
   39        7.146417   0.000000
   40        7.690999   0.000000
 
  0.5000000E+00  0.1250000E+00  0.3677614E-15  0.4464286E-02
    1      -32.506901   1.000000
    2      -28.798100   1.000000
    3      -28.691934   1.000000
    4      -28.571329   1.000000
    5      -28.541794   1.000000
    6      -28.438564   1.000000
    7      -28.388238   1.000000
    8      -28.215689   1.000000
    9      -28.003383   1.000000
   10      -27.795600   1.000000
   11      -14.648990   1.000000
   12      -14.575090   1.000000
   13      -14.563050   1.000000
   14       -6.341276   1.000000
   15       -4.723859   1.000000
   16       -3.972923   1.000000
   17       -3.298205   1.000000
   18       -2.903404   1.000000
   19       -2.364226   1.000000
   20       -1.950934   1.000000
   21       -1.656975   1.000000
   22       -1.321988   1.000000
   23       -1.127997   1.000000
   24       -0.557127   1.000000
   25       -0.205675   1.000000
   26        0.655826   1.000000
   27        1.476680   1.000000
   28        2.256978   1.000000
   29        2.618155   1.000000
   30        3.289018   0.001867
   31        4.013105   0.000000
   32        4.488877   0.000000
   33        4.673178   0.000000
   34        5.414518   0.000000
   35        5.710161   0.000000
   36        6.362328   0.000000
   37        6.913022   0.000000
   38        7.056632   0.000000
   39        7.488922   0.000000
   40        7.620322   0.000000
 
 -0.3750000E+00  0.1250000E+00  0.3677614E-15  0.4464286E-02
    1      -32.507023   1.000000
    2      -28.793955   1.000000
    3      -28.699558   1.000000
    4      -28.549626   1.000000
    5      -28.533421   1.000000
    6      -28.458433   1.000000
    7      -28.385180   1.000000
    8      -28.225209   1.000000
    9      -28.004099   1.000000
   10      -27.793584   1.000000
   11      -14.643457   1.000000
   12      -14.575463   1.000000
   13      -14.563607   1.000000
   14       -6.445341   1.000000
   15       -4.753601   1.000000
   16       -3.925714   1.000000
   17       -3.282341   1.000000
   18       -2.928913   1.000000
   19       -2.284175   1.000000
   20       -1.950675   1.000000
   21       -1.581618   1.000000
   22       -1.421921   1.000000
   23       -1.068958   1.000000
   24       -0.570286   1.000000
   25       -0.246782   1.000000
   26        0.722938   1.000000
   27        1.450716   1.000000
   28        2.162423   1.000000
   29        2.881932   1.008379
   30        3.472109   0.000000
   31        3.935213   0.000000
   32        4.395806   0.000000
   33        4.757922   0.000000
   34        5.456533   0.000000
   35        5.705907   0.000000
   36        6.279340   0.000000
   37        6.694637   0.000000
   38        6.994015   0.000000
   39        7.492449   0.000000
   40        7.674188   0.000000
 
 -0.2500000E+00  0.1250000E+00  0.3642919E-15  0.4464286E-02
    1      -32.507305   1.000000
    2      -28.786719   1.000000
    3      -28.716184   1.000000
    4      -28.544618   1.000000
    5      -28.510078   1.000000
    6      -28.460282   1.000000
    7      -28.382210   1.000000
    8      -28.242461   1.000000
    9      -28.004791   1.000000
   10      -27.792426   1.000000
   11      -14.628461   1.000000
   12      -14.575831   1.000000
   13      -14.564967   1.000000
   14       -6.740609   1.000000
   15       -4.862971   1.000000
   16       -3.779475   1.000000
   17       -3.272448   1.000000
   18       -2.872055   1.000000
   19       -2.245590   1.000000
   20       -1.848631   1.000000
   21       -1.526188   1.000000
   22       -1.434090   1.000000
   23       -0.967036   1.000000
   24       -0.578221   1.000000
   25       -0.216464   1.000000
   26        0.707010   1.000000
   27        1.499289   1.000000
   28        2.132553   1.000000
   29        3.239490   0.004925
   30        3.637170   0.000000
   31        3.973856   0.000000
   32        4.246239   0.000000
   33        4.837057   0.000000
   34        5.414977   0.000000
   35        5.855661   0.000000
   36        6.142673   0.000000
   37        6.323489   0.000000
   38        6.723507   0.000000
   39        7.337328   0.000000
   40        7.565672   0.000000
 
 -0.1250000E+00  0.1250000E+00  0.3677614E-15  0.4464286E-02
    1      -32.507577   1.000000
    2      -28.777041   1.000000
    3      -28.736298   1.000000
    4      -28.546724   1.000000
    5      -28.504485   1.000000
    6      -28.436298   1.000000
    7      -28.379945   1.000000
    8      -28.258114   1.000000
    9      -28.005002   1.000000
   10      -27.793050   1.000000
   11      -14.612723   1.000000
   12      -14.575726   1.000000
   13      -14.566514   1.000000
   14       -7.004356   1.000000
   15       -4.985608   1.000000
   16       -3.759571   1.000000
   17       -3.261140   1.000000
   18       -2.784068   1.000000
   19       -2.150557   1.000000
   20       -1.717548   1.000000
   21       -1.431129   1.000000
   22       -1.390742   1.000000
   23       -0.858610   1.000000
   24       -0.614569   1.000000
   25       -0.182258   1.000000
   26        0.621575   1.000000
   27        1.614051   1.000000
   28        2.106804   1.000000
   29        3.319359   0.000610
   30        3.703262   0.000000
   31        4.126838   0.000000
   32        4.359237   0.000000
   33        4.844440   0.000000
   34        5.400381   0.000000
   35        5.855834   0.000000
   36        6.097537   0.000000
   37        6.180783   0.000000
   38        6.541757   0.000000
   39        7.042168   0.000000
   40        7.559044   0.000000
 
  0.3770855E-15  0.2500000E+00  0.3694961E-15  0.4464286E-02
    1      -32.507478   1.000000
    2      -28.758190   1.000000
    3      -28.728072   1.000000
    4      -28.550371   1.000000
    5      -28.524225   1.000000
    6      -28.440097   1.000000
    7      -28.393513   1.000000
    8      -28.233381   1.000000
    9      -28.001240   1.000000
   10      -27.807793   1.000000
   11      -14.607926   1.000000
   12      -14.588823   1.000000
   13      -14.567161   1.000000
   14       -6.909147   1.000000
   15       -4.958101   1.000000
   16       -3.777114   1.000000
   17       -3.330840   1.000000
   18       -2.794568   1.000000
   19       -2.032800   1.000000
   20       -1.795102   1.000000
   21       -1.517860   1.000000
   22       -1.178643   1.000000
   23       -0.915722   1.000000
   24       -0.765885   1.000000
   25       -0.296204   1.000000
   26        0.429407   1.000000
   27        1.564097   1.000000
   28        2.316083   1.000000
   29        3.192155  -0.006564
   30        3.789002   0.000000
   31        4.165069   0.000000
   32        4.595508   0.000000
   33        4.864656   0.000000
   34        5.392010   0.000000
   35        5.708680   0.000000
   36        6.101771   0.000000
   37        6.203952   0.000000
   38        6.730685   0.000000
   39        7.220863   0.000000
   40        7.571430   0.000000
 
  0.1250000E+00  0.2500000E+00  0.3768687E-15  0.4464286E-02
    1      -32.507329   1.000000
    2      -28.780126   1.000000
    3      -28.707851   1.000000
    4      -28.571659   1.000000
    5      -28.536561   1.000000
    6      -28.430938   1.000000
    7      -28.373423   1.000000
    8      -28.224931   1.000000
    9      -28.001222   1.000000
   10      -27.810425   1.000000
   11      -14.610028   1.000000
   12      -14.589789   1.000000
   13      -14.567120   1.000000
   14       -6.880636   1.000000
   15       -4.938379   1.000000
   16       -3.714339   1.000000
   17       -3.337954   1.000000
   18       -2.675950   1.000000
   19       -2.229730   1.000000
   20       -1.766856   1.000000
   21       -1.550083   1.000000
   22       -1.236112   1.000000
   23       -1.004265   1.000000
   24       -0.737648   1.000000
   25       -0.087528   1.000000
   26        0.316887   1.000000
   27        1.722312   1.000000
   28        2.381746   1.000000
   29        3.009581   0.761370
   30        3.605231   0.000000
   31        4.072731   0.000000
   32        4.467500   0.000000
   33        4.942040   0.000000
   34        5.296827   0.000000
   35        5.752125   0.000000
   36        6.149468   0.000000
   37        6.302350   0.000000
   38        6.894617   0.000000
   39        7.129855   0.000000
   40        7.402480   0.000000
 
  0.2500000E+00  0.2500000E+00  0.3764350E-15  0.4464286E-02
    1      -32.507025   1.000000
    2      -28.800154   1.000000
    3      -28.687585   1.000000
    4      -28.595580   1.000000
    5      -28.541876   1.000000
    6      -28.422637   1.000000
    7      -28.363501   1.000000
    8      -28.213752   1.000000
    9      -28.002146   1.000000
   10      -27.811589   1.000000
   11      -14.622748   1.000000
   12      -14.588958   1.000000
   13      -14.566355   1.000000
   14       -6.713764   1.000000
   15       -4.840015   1.000000
   16       -3.644246   1.000000
   17       -3.204630   1.000000
   18       -2.786159   1.000000
   19       -2.443562   1.000000
   20       -1.906777   1.000000
   21       -1.718142   1.000000
   22       -1.285044   1.000000
   23       -1.045131   1.000000
   24       -0.562273   1.000000
   25       -0.051950   1.000000
   26        0.371487   1.000000
   27        1.819070   1.000000
   28        2.309818   1.000000
   29        2.994996   0.879148
   30        3.442930   0.000000
   31        3.792187   0.000000
   32        4.414807   0.000000
   33        5.020754   0.000000
   34        5.100130   0.000000
   35        5.779799   0.000000
   36        6.156505   0.000000
   37        6.368065   0.000000
   38        6.843511   0.000000
   39        7.126842   0.000000
   40        7.641066   0.000000
 
  0.3750000E+00  0.2500000E+00  0.3816392E-15  0.4464286E-02
    1      -32.506747   1.000000
    2      -28.810731   1.000000
    3      -28.677423   1.000000
    4      -28.608249   1.000000
    5      -28.540690   1.000000
    6      -28.413793   1.000000
    7      -28.371496   1.000000
    8      -28.206531   1.000000
    9      -28.003397   1.000000
   10      -27.810649   1.000000
   11      -14.638031   1.000000
   12      -14.587731   1.000000
   13      -14.565525   1.000000
   14       -6.479347   1.000000
   15       -4.700810   1.000000
   16       -3.619925   1.000000
   17       -3.292409   1.000000
   18       -2.919538   1.000000
   19       -2.422853   1.000000
   20       -2.134887   1.000000
   21       -1.777825   1.000000
   22       -1.320416   1.000000
   23       -1.049353   1.000000
   24       -0.498059   1.000000
   25       -0.222497   1.000000
   26        0.570393   1.000000
   27        1.770345   1.000000
   28        2.279123   1.000000
   29        2.910151   1.032612
   30        3.294759   0.001548
   31        3.786944   0.000000
   32        4.436313   0.000000
   33        4.730034   0.000000
   34        5.228446   0.000000
   35        5.769931   0.000000
   36        6.165551   0.000000
   37        6.594676   0.000000
   38        6.811037   0.000000
   39        7.231484   0.000000
   40        7.628080   0.000000
 
  0.5000000E+00  0.2500000E+00  0.3608225E-15  0.4464286E-02
    1      -32.506648   1.000000
    2      -28.811673   1.000000
    3      -28.676656   1.000000
    4      -28.602045   1.000000
    5      -28.535768   1.000000
    6      -28.408351   1.000000
    7      -28.390278   1.000000
    8      -28.208127   1.000000
    9      -28.004038   1.000000
   10      -27.807954   1.000000
   11      -14.645413   1.000000
   12      -14.587839   1.000000
   13      -14.564880   1.000000
   14       -6.310877   1.000000
   15       -4.573781   1.000000
   16       -3.877016   1.000000
   17       -3.328128   1.000000
   18       -2.829701   1.000000
   19       -2.449927   1.000000
   20       -2.176439   1.000000
   21       -1.768982   1.000000
   22       -1.389513   1.000000
   23       -1.061842   1.000000
   24       -0.507011   1.000000
   25       -0.325563   1.000000
   26        0.676362   1.000000
   27        1.637212   1.000000
   28        2.291292   1.000000
   29        2.893781   1.017393
   30        3.356330   0.000108
   31        3.880666   0.000000
   32        4.403687   0.000000
   33        4.604225   0.000000
   34        5.374267   0.000000
   35        5.649167   0.000000
   36        6.280697   0.000000
   37        6.631497   0.000000
   38        7.021269   0.000000
   39        7.203227   0.000000
   40        7.480683   0.000000
 
 -0.3750000E+00  0.2500000E+00  0.3816392E-15  0.4464286E-02
    1      -32.506790   1.000000
    2      -28.804216   1.000000
    3      -28.681954   1.000000
    4      -28.577456   1.000000
    5      -28.532012   1.000000
    6      -28.427493   1.000000
    7      -28.393805   1.000000
    8      -28.218117   1.000000
    9      -28.003980   1.000000
   10      -27.805176   1.000000
   11      -14.640989   1.000000
   12      -14.589100   1.000000
   13      -14.564760   1.000000
   14       -6.350072   1.000000
   15       -4.586785   1.000000
   16       -3.977959   1.000000
   17       -3.213023   1.000000
   18       -2.936977   1.000000
   19       -2.325849   1.000000
   20       -2.151706   1.000000
   21       -1.765417   1.000000
   22       -1.490674   1.000000
   23       -0.947079   1.000000
   24       -0.540475   1.000000
   25       -0.338632   1.000000
   26        0.667591   1.000000
   27        1.531463   1.000000
   28        2.267128   1.000000
   29        3.127532  -0.051068
   30        3.605792   0.000000
   31        3.923069   0.000000
   32        4.189364   0.000000
   33        4.729586   0.000000
   34        5.412249   0.000000
   35        5.673377   0.000000
   36        6.221930   0.000000
   37        6.637733   0.000000
   38        6.705658   0.000000
   39        7.258548   0.000000
   40        7.608275   0.000000
 
 -0.2500000E+00  0.2500000E+00  0.3608225E-15  0.4464286E-02
    1      -32.507093   1.000000
    2      -28.789383   1.000000
    3      -28.694246   1.000000
    4      -28.542695   1.000000
    5      -28.532031   1.000000
    6      -28.451536   1.000000
    7      -28.394890   1.000000
    8      -28.229785   1.000000
    9      -28.003317   1.000000
   10      -27.803998   1.000000
   11      -14.627960   1.000000
   12      -14.590189   1.000000
   13      -14.565634   1.000000
   14       -6.565391   1.000000
   15       -4.744247   1.000000
   16       -3.875751   1.000000
   17       -3.139957   1.000000
   18       -2.961657   1.000000
   19       -2.367778   1.000000
   20       -1.977739   1.000000
   21       -1.651094   1.000000
   22       -1.510889   1.000000
   23       -0.850533   1.000000
   24       -0.573999   1.000000
   25       -0.292867   1.000000
   26        0.583020   1.000000
   27        1.438788   1.000000
   28        2.284571   1.000000
   29        3.478740   0.000000
   30        3.708851   0.000000
   31        3.937769   0.000000
   32        4.227422   0.000000
   33        4.819485   0.000000
   34        5.390844   0.000000
   35        5.795094   0.000000
   36        6.061225   0.000000
   37        6.372786   0.000000
   38        6.654808   0.000000
   39        7.104513   0.000000
   40        7.662103   0.000000
 
 -0.1250000E+00  0.2500000E+00  0.3712308E-15  0.4464286E-02
    1      -32.507378   1.000000
    2      -28.768737   1.000000
    3      -28.715073   1.000000
    4      -28.539246   1.000000
    5      -28.516828   1.000000
    6      -28.456026   1.000000
    7      -28.400053   1.000000
    8      -28.235661   1.000000
    9      -28.002162   1.000000
   10      -27.805019   1.000000
   11      -14.614689   1.000000
   12      -14.589587   1.000000
   13      -14.566576   1.000000
   14       -6.789275   1.000000
   15       -4.888203   1.000000
   16       -3.818798   1.000000
   17       -3.206131   1.000000
   18       -2.911611   1.000000
   19       -2.191824   1.000000
   20       -1.864825   1.000000
   21       -1.553565   1.000000
   22       -1.347717   1.000000
   23       -0.865656   1.000000
   24       -0.629665   1.000000
   25       -0.295988   1.000000
   26        0.503509   1.000000
   27        1.431414   1.000000
   28        2.286785   1.000000
   29        3.438335   0.000001
   30        3.841582   0.000000
   31        4.015304   0.000000
   32        4.511028   0.000000
   33        4.837725   0.000000
   34        5.406883   0.000000
   35        5.778829   0.000000
   36        5.967652   0.000000
   37        6.211426   0.000000
   38        6.736166   0.000000
   39        7.024516   0.000000
   40        7.616164   0.000000
 
  0.3796876E-15  0.3750000E+00  0.3729655E-15  0.4464286E-02
    1      -32.507276   1.000000
    2      -28.741853   1.000000
    3      -28.706774   1.000000
    4      -28.549347   1.000000
    5      -28.531588   1.000000
    6      -28.464305   1.000000
    7      -28.419650   1.000000
    8      -28.205165   1.000000
    9      -27.997589   1.000000
   10      -27.822050   1.000000
   11      -14.617449   1.000000
   12      -14.596341   1.000000
   13      -14.565826   1.000000
   14       -6.664838   1.000000
   15       -4.827664   1.000000
   16       -3.803552   1.000000
   17       -3.568744   1.000000
   18       -2.767177   1.000000
   19       -2.012119   1.000000
   20       -1.880083   1.000000
   21       -1.637307   1.000000