   22   22   60    1
  0.8098397E+01  0.3481293E-09  0.6793910E-09  0.7906478E-09  0.5000000E-15
  1.000000000000000E-004
  CAR 
 unknown system                          
     80    182     52
 
  0.3742002E-15  0.3742002E-15  0.3742002E-15  0.2777778E-02
    1      -31.642900   1.000000
    2      -31.476831   1.000000
    3      -27.338880   1.000000
    4      -27.275953   1.000000
    5      -27.199686   1.000000
    6      -27.090784   1.000000
    7      -27.062601   1.000000
    8      -26.985909   1.000000
    9      -26.972464   1.000000
   10      -26.951511   1.000000
   11      -26.927185   1.000000
   12      -26.731986   1.000000
   13      -26.566813   1.000000
   14      -26.382788   1.000000
   15      -14.307329   1.000000
   16      -13.692111   1.000000
   17      -13.498657   1.000000
   18      -13.438736   1.000000
   19      -13.321946   1.000000
   20      -13.275094   1.000000
   21       -5.962347   1.000000
   22       -3.725519   1.000000
   23       -3.451857   1.000000
   24       -3.274996   1.000000
   25       -2.619457   1.000000
   26       -2.407101   1.000000
   27       -1.701290   1.000000
   28       -1.370566   1.000000
   29       -1.039098   1.000000
   30       -0.640752   1.000000
   31       -0.050011   1.000000
   32        0.348142   1.000000
   33        1.339052   1.000000
   34        1.430404   1.000000
   35        1.921981   1.000000
   36        2.600013   1.000000
   37        3.360884   1.000000
   38        3.628340   1.000000
   39        3.670659   1.000000
   40        4.692643   0.354509
   41        5.139931   0.000000
   42        5.180215   0.000000
   43        5.259392   0.000000
   44        5.421343   0.000000
   45        5.490180   0.000000
   46        5.785876   0.000000
   47        5.926906   0.000000
   48        6.108688   0.000000
   49        6.531040   0.000000
   50        6.669678   0.000000
   51        6.826420   0.000000
   52        7.243351   0.000000
 
  0.8333333E-01  0.3712308E-15  0.3747003E-15  0.5555556E-02
    1      -31.638371   1.000000
    2      -31.472449   1.000000
    3      -27.335358   1.000000
    4      -27.273244   1.000000
    5      -27.198283   1.000000
    6      -27.115260   1.000000
    7      -27.060274   1.000000
    8      -26.991204   1.000000
    9      -26.978171   1.000000
   10      -26.962860   1.000000
   11      -26.923880   1.000000
   12      -26.732239   1.000000
   13      -26.565963   1.000000
   14      -26.393767   1.000000
   15      -14.295170   1.000000
   16      -13.682253   1.000000
   17      -13.499181   1.000000
   18      -13.490836   1.000000
   19      -13.329759   1.000000
   20      -13.316812   1.000000
   21       -5.851949   1.000000
   22       -3.634872   1.000000
   23       -3.394557   1.000000
   24       -3.210630   1.000000
   25       -2.572542   1.000000
   26       -2.325428   1.000000
   27       -1.655670   1.000000
   28       -1.418930   1.000000
   29       -1.044833   1.000000
   30       -0.661202   1.000000
   31       -0.069086   1.000000
   32        0.338876   1.000000
   33        1.183180   1.000000
   34        1.276557   1.000000
   35        1.835006   1.000000
   36        2.199306   1.000000
   37        3.301449   1.000000
   38        3.663217   1.000000
   39        3.686775   1.000000
   40        4.776964  -0.051430
   41        4.986969   0.000201
   42        5.163850   0.000000
   43        5.385254   0.000000
   44        5.546177   0.000000
   45        5.728830   0.000000
   46        5.943768   0.000000
   47        6.045934   0.000000
   48        6.230018   0.000000
   49        6.369341   0.000000
   50        6.773345   0.000000
   51        6.819785   0.000000
   52        7.341437   0.000000
 
  0.1666667E+00  0.3703635E-15  0.3608225E-15  0.5555556E-02
    1      -31.625957   1.000000
    2      -31.460432   1.000000
    3      -27.326777   1.000000
    4      -27.268099   1.000000
    5      -27.195251   1.000000
    6      -27.162458   1.000000
    7      -27.071234   1.000000
    8      -27.012994   1.000000
    9      -27.002319   1.000000
   10      -26.968745   1.000000
   11      -26.919154   1.000000
   12      -26.733286   1.000000
   13      -26.564069   1.000000
   14      -26.422956   1.000000
   15      -14.261686   1.000000
   16      -13.661181   1.000000
   17      -13.654022   1.000000
   18      -13.476257   1.000000
   19      -13.466691   1.000000
   20      -13.303228   1.000000
   21       -5.532350   1.000000
   22       -3.459762   1.000000
   23       -3.199580   1.000000
   24       -2.995617   1.000000
   25       -2.432252   1.000000
   26       -2.110887   1.000000
   27       -1.590239   1.000000
   28       -1.481097   1.000000
   29       -1.060017   1.000000
   30       -0.728412   1.000000
   31       -0.163313   1.000000
   32        0.254774   1.000000
   33        0.876393   1.000000
   34        1.004218   1.000000
   35        1.549032   1.000000
   36        1.648300   1.000000
   37        2.939459   1.000000
   38        3.610679   1.000000
   39        3.708194   1.000000
   40        4.571504   1.047899
   41        5.045312   0.000008
   42        5.209279   0.000000
   43        5.712181   0.000000
   44        5.894120   0.000000
   45        6.000765   0.000000
   46        6.043388   0.000000
   47        6.205810   0.000000
   48        6.452648   0.000000
   49        6.746503   0.000000
   50        6.808586   0.000000
   51        6.874734   0.000000
   52        7.615951   0.000000
 
  0.2500000E+00  0.3694961E-15  0.3747003E-15  0.5555556E-02
    1      -31.608907   1.000000
    2      -31.443931   1.000000
    3      -27.321015   1.000000
    4      -27.270942   1.000000
    5      -27.210233   1.000000
    6      -27.190908   1.000000
    7      -27.097576   1.000000
    8      -27.039720   1.000000
    9      -27.026974   1.000000
   10      -26.972202   1.000000
   11      -26.914687   1.000000
   12      -26.735896   1.000000
   13      -26.562594   1.000000
   14      -26.461494   1.000000
   15      -14.215035   1.000000
   16      -13.871526   1.000000
   17      -13.662463   1.000000
   18      -13.616001   1.000000
   19      -13.438790   1.000000
   20      -13.284376   1.000000
   21       -5.055853   1.000000
   22       -3.397042   1.000000
   23       -2.819259   1.000000
   24       -2.666594   1.000000
   25       -2.203199   1.000000
   26       -1.896457   1.000000
   27       -1.707988   1.000000
   28       -1.352141   1.000000
   29       -1.051274   1.000000
   30       -0.812512   1.000000
   31       -0.403881   1.000000
   32        0.090649   1.000000
   33        0.449174   1.000000
   34        0.923435   1.000000
   35        1.180185   1.000000
   36        1.402592   1.000000
   37        2.494576   1.000000
   38        3.454584   1.000000
   39        3.710411   1.000000
   40        4.202534   1.000000
   41        5.065374   0.000002
   42        5.441126   0.000000
   43        5.715457   0.000000
   44        5.941075   0.000000
   45        6.023931   0.000000
   46        6.412330   0.000000
   47        6.592554   0.000000
   48        6.822040   0.000000
   49        6.868386   0.000000
   50        7.090268   0.000000
   51        7.287279   0.000000
   52        7.977474   0.000000
 
  0.3333333E+00  0.3452100E-15  0.3747003E-15  0.5555556E-02
    1      -31.591762   1.000000
    2      -31.427334   1.000000
    3      -27.331802   1.000000
    4      -27.288542   1.000000
    5      -27.240199   1.000000
    6      -27.190388   1.000000
    7      -27.116688   1.000000
    8      -27.056660   1.000000
    9      -27.041070   1.000000
   10      -26.984442   1.000000
   11      -26.909497   1.000000
   12      -26.739683   1.000000
   13      -26.562342   1.000000
   14      -26.498514   1.000000
   15      -14.167852   1.000000
   16      -14.072732   1.000000
   17      -13.841792   1.000000
   18      -13.577236   1.000000
   19      -13.408488   1.000000
   20      -13.265276   1.000000
   21       -4.503519   1.000000
   22       -3.406426   1.000000
   23       -2.538041   1.000000
   24       -2.285367   1.000000
   25       -1.959358   1.000000
   26       -1.853266   1.000000
   27       -1.716548   1.000000
   28       -1.274269   1.000000
   29       -0.947562   1.000000
   30       -0.831460   1.000000
   31       -0.658217   1.000000
   32       -0.172464   1.000000
   33        0.129686   1.000000
   34        0.850085   1.000000
   35        1.006080   1.000000
   36        1.340147   1.000000
   37        2.113699   1.000000
   38        3.327559   1.000000
   39        3.658147   1.000000
   40        3.912435   1.000000
   41        5.007828   0.000069
   42        5.614511   0.000000
   43        5.768041   0.000000
   44        5.982369   0.000000
   45        6.169368   0.000000
   46        6.424745   0.000000
   47        6.600782   0.000000
   48        6.800754   0.000000
   49        7.213387   0.000000
   50        7.295275   0.000000
   51        7.832213   0.000000
   52        8.313342   0.000000
 
  0.4166667E+00  0.3955170E-15  0.3608225E-15  0.5555556E-02
    1      -31.579154   1.000000
    2      -31.415124   1.000000
    3      -27.354108   1.000000
    4      -27.305022   1.000000
    5      -27.262246   1.000000
    6      -27.189125   1.000000
    7      -27.116594   1.000000
    8      -27.059560   1.000000
    9      -27.046581   1.000000
   10      -27.003936   1.000000
   11      -26.904755   1.000000
   12      -26.743181   1.000000
   13      -26.562678   1.000000
   14      -26.524612   1.000000
   15      -14.214593   1.000000
   16      -14.132724   1.000000
   17      -13.968656   1.000000
   18      -13.548140   1.000000
   19      -13.386001   1.000000
   20      -13.251119   1.000000
   21       -3.988913   1.000000
   22       -3.460456   1.000000
   23       -2.487996   1.000000
   24       -2.099965   1.000000
   25       -1.898266   1.000000
   26       -1.800228   1.000000
   27       -1.539164   1.000000
   28       -1.101055   1.000000
   29       -0.986155   1.000000
   30       -0.829221   1.000000
   31       -0.688542   1.000000
   32       -0.381778   1.000000
   33       -0.062874   1.000000
   34        0.776518   1.000000
   35        0.878947   1.000000
   36        1.384012   1.000000
   37        1.867513   1.000000
   38        3.259804   1.000000
   39        3.586872   1.000000
   40        3.734440   1.000000
   41        5.043932   0.000008
   42        5.639198   0.000000
   43        5.959615   0.000000
   44        6.043772   0.000000
   45        6.303937   0.000000
   46        6.408806   0.000000
   47        6.561920   0.000000
   48        6.741805   0.000000
   49        6.956124   0.000000
   50        7.599186   0.000000
   51        7.925220   0.000000
   52        8.262603   0.000000
 
  0.5000000E+00  0.3573530E-15  0.4163336E-15  0.2777778E-02
    1      -31.574522   1.000000
    2      -31.410641   1.000000
    3      -27.364197   1.000000
    4      -27.312016   1.000000
    5      -27.271344   1.000000
    6      -27.188330   1.000000
    7      -27.111231   1.000000
    8      -27.067574   1.000000
    9      -27.028584   1.000000
   10      -27.025517   1.000000
   11      -26.902653   1.000000
   12      -26.744514   1.000000
   13      -26.562886   1.000000
   14      -26.533817   1.000000
   15      -14.265326   1.000000
   16      -14.119733   1.000000
   17      -14.014097   1.000000
   18      -13.537297   1.000000
   19      -13.377755   1.000000
   20      -13.245772   1.000000
   21       -3.695274   1.000000
   22       -3.555227   1.000000
   23       -2.499016   1.000000
   24       -2.144270   1.000000
   25       -1.841480   1.000000
   26       -1.784692   1.000000
   27       -1.311046   1.000000
   28       -1.240944   1.000000
   29       -0.885952   1.000000
   30       -0.819150   1.000000
   31       -0.657536   1.000000
   32       -0.457209   1.000000
   33       -0.113133   1.000000
   34        0.634053   1.000000
   35        0.918865   1.000000
   36        1.401412   1.000000
   37        1.780750   1.000000
   38        3.243495   1.000000
   39        3.556175   1.000000
   40        3.676212   1.000000
   41        5.100971   0.000000
   42        5.653854   0.000000
   43        5.974018   0.000000
   44        6.161224   0.000000
   45        6.346670   0.000000
   46        6.399281   0.000000
   47        6.527527   0.000000
   48        6.595362   0.000000
   49        6.968099   0.000000
   50        7.754408   0.000000
   51        7.877690   0.000000
   52        8.184983   0.000000
 
  0.3729113E-15  0.1666667E+00  0.3677614E-15  0.5555556E-02
    1      -31.640031   1.000000
    2      -31.479873   1.000000
    3      -27.333191   1.000000
    4      -27.267403   1.000000
    5      -27.191273   1.000000
    6      -27.089991   1.000000
    7      -27.068376   1.000000
    8      -26.993615   1.000000
    9      -26.976001   1.000000
   10      -26.949216   1.000000
   11      -26.930237   1.000000
   12      -26.742028   1.000000
   13      -26.565593   1.000000
   14      -26.382905   1.000000
   15      -14.249529   1.000000
   16      -13.682687   1.000000
   17      -13.512706   1.000000
   18      -13.435721   1.000000
   19      -13.390585   1.000000
   20      -13.278595   1.000000
   21       -5.851259   1.000000
   22       -3.897452   1.000000
   23       -3.454288   1.000000
   24       -3.215068   1.000000
   25       -2.547106   1.000000
   26       -2.373864   1.000000
   27       -1.873807   1.000000
   28       -1.317331   1.000000
   29       -0.958341   1.000000
   30       -0.600371   1.000000
   31       -0.077179   1.000000
   32        0.362227   1.000000
   33        1.265947   1.000000
   34        1.388115   1.000000
   35        1.962692   1.000000
   36        2.318151   1.000000
   37        3.388105   1.000000
   38        3.650042   1.000000
   39        3.673327   1.000000
   40        4.500813   0.997622
   41        5.080223   0.000001
   42        5.146484   0.000000
   43        5.200752   0.000000
   44        5.611843   0.000000
   45        5.788438   0.000000
   46        5.911640   0.000000
   47        6.063565   0.000000
   48        6.105079   0.000000
   49        6.273317   0.000000
   50        6.582907   0.000000
   51        6.908721   0.000000
   52        7.392398   0.000000
 
  0.8333333E-01  0.1666667E+00  0.3747003E-15  0.5555556E-02
    1      -31.635513   1.000000
    2      -31.475469   1.000000
    3      -27.329596   1.000000
    4      -27.264523   1.000000
    5      -27.189605   1.000000
    6      -27.114531   1.000000
    7      -27.064987   1.000000
    8      -27.000239   1.000000
    9      -26.979591   1.000000
   10      -26.962224   1.000000
   11      -26.927077   1.000000
   12      -26.741707   1.000000
   13      -26.564738   1.000000
   14      -26.393676   1.000000
   15      -14.237699   1.000000
   16      -13.672649   1.000000
   17      -13.505147   1.000000
   18      -13.495465   1.000000
   19      -13.384737   1.000000
   20      -13.332966   1.000000
   21       -5.749250   1.000000
   22       -3.802350   1.000000
   23       -3.356432   1.000000
   24       -3.137585   1.000000
   25       -2.512125   1.000000
   26       -2.320811   1.000000
   27       -1.850419   1.000000
   28       -1.323917   1.000000
   29       -0.994794   1.000000
   30       -0.605895   1.000000
   31       -0.088013   1.000000
   32        0.358006   1.000000
   33        1.097350   1.000000
   34        1.245113   1.000000
   35        1.833414   1.000000
   36        2.022479   1.000000
   37        3.348608   1.000000
   38        3.622344   1.000000
   39        3.678149   1.000000
   40        4.566666   1.044573
   41        5.051462   0.000005
   42        5.176314   0.000000
   43        5.401780   0.000000
   44        5.644076   0.000000
   45        5.944652   0.000000
   46        5.962375   0.000000
   47        6.028308   0.000000
   48        6.223907   0.000000
   49        6.336547   0.000000
   50        6.619499   0.000000
   51        6.927296   0.000000
   52        7.472576   0.000000
 
  0.1666667E+00  0.1666667E+00  0.3747003E-15  0.5555556E-02
    1      -31.623148   1.000000
    2      -31.463399   1.000000
    3      -27.321142   1.000000
    4      -27.259121   1.000000
    5      -27.186159   1.000000
    6      -27.161304   1.000000
    7      -27.074424   1.000000
    8      -27.022256   1.000000
    9      -26.998993   1.000000
   10      -26.975739   1.000000
   11      -26.922802   1.000000
   12      -26.741844   1.000000
   13      -26.563057   1.000000
   14      -26.422765   1.000000
   15      -14.205418   1.000000
   16      -13.656122   1.000000
   17      -13.644909   1.000000
   18      -13.484418   1.000000
   19      -13.478255   1.000000
   20      -13.367516   1.000000
   21       -5.440973   1.000000
   22       -3.549898   1.000000
   23       -3.158375   1.000000
   24       -2.971213   1.000000
   25       -2.386579   1.000000
   26       -2.124023   1.000000
   27       -1.793050   1.000000
   28       -1.352760   1.000000
   29       -1.042281   1.000000
   30       -0.649618   1.000000
   31       -0.181402   1.000000
   32        0.287721   1.000000
   33        0.823190   1.000000
   34        0.905318   1.000000
   35        1.463206   1.000000
   36        1.631201   1.000000
   37        3.004092   1.000000
   38        3.533392   1.000000
   39        3.704601   1.000000
   40        4.507451   0.999584
   41        4.987077   0.000200
   42        5.246638   0.000000
   43        5.689106   0.000000
   44        5.830695   0.000000
   45        5.978792   0.000000
   46        6.076177   0.000000
   47        6.206736   0.000000
   48        6.522635   0.000000
   49        6.683424   0.000000
   50        6.882479   0.000000
   51        7.043669   0.000000
   52        7.699265   0.000000
 
  0.2500000E+00  0.1666667E+00  0.3469447E-15  0.5555556E-02
    1      -31.606173   1.000000
    2      -31.446819   1.000000
    3      -27.315623   1.000000
    4      -27.262338   1.000000
    5      -27.207957   1.000000
    6      -27.181710   1.000000
    7      -27.100965   1.000000
    8      -27.042333   1.000000
    9      -27.028462   1.000000
   10      -26.979573   1.000000
   11      -26.920536   1.000000
   12      -26.743426   1.000000
   13      -26.561784   1.000000
   14      -26.460986   1.000000
   15      -14.160585   1.000000
   16      -13.864075   1.000000
   17      -13.670308   1.000000
   18      -13.607128   1.000000
   19      -13.451910   1.000000
   20      -13.346010   1.000000
   21       -4.971872   1.000000
   22       -3.313803   1.000000
   23       -2.912000   1.000000
   24       -2.670330   1.000000
   25       -2.173046   1.000000
   26       -1.921146   1.000000
   27       -1.741837   1.000000
   28       -1.359910   1.000000
   29       -1.050863   1.000000
   30       -0.726714   1.000000
   31       -0.422897   1.000000
   32        0.110134   1.000000
   33        0.408959   1.000000
   34        0.799186   1.000000
   35        1.183028   1.000000
   36        1.371518   1.000000
   37        2.542652   1.000000
   38        3.348496   1.000000
   39        3.698331   1.000000
   40        4.169795   1.000000
   41        5.153311   0.000000
   42        5.338448   0.000000
   43        5.589252   0.000000
   44        5.768134   0.000000
   45        6.035495   0.000000
   46        6.378086   0.000000
   47        6.739930   0.000000
   48        6.810527   0.000000
   49        6.991480   0.000000
   50        7.251420   0.000000
   51        7.522420   0.000000
   52        7.988944   0.000000
 
  0.3333333E+00  0.1666667E+00  0.3747003E-15  0.5555556E-02
    1      -31.589099   1.000000
    2      -31.430140   1.000000
    3      -27.327153   1.000000
    4      -27.281911   1.000000
    5      -27.236460   1.000000
    6      -27.180921   1.000000
    7      -27.120077   1.000000
    8      -27.057102   1.000000
    9      -27.042510   1.000000
   10      -26.989380   1.000000
   11      -26.919238   1.000000
   12      -26.746486   1.000000
   13      -26.561766   1.000000
   14      -26.497656   1.000000
   15      -14.115406   1.000000
   16      -14.062652   1.000000
   17      -13.851711   1.000000
   18      -13.568981   1.000000
   19      -13.421382   1.000000
   20      -13.324101   1.000000
   21       -4.415277   1.000000
   22       -3.284667   1.000000
   23       -2.559338   1.000000
   24       -2.368705   1.000000
   25       -1.979776   1.000000
   26       -1.879838   1.000000
   27       -1.647615   1.000000
   28       -1.316549   1.000000
   29       -0.991015   1.000000
   30       -0.812910   1.000000
   31       -0.657706   1.000000
   32       -0.176707   1.000000
   33        0.099662   1.000000
   34        0.758909   1.000000
   35        1.129092   1.000000
   36        1.251143   1.000000
   37        2.128098   1.000000
   38        3.156939   1.000000
   39        3.625899   1.000000
   40        3.878999   1.000000
   41        5.234365   0.000000
   42        5.453784   0.000000
   43        5.670350   0.000000
   44        5.815625   0.000000
   45        6.065931   0.000000
   46        6.422964   0.000000
   47        6.743109   0.000000
   48        6.922801   0.000000
   49        7.483686   0.000000
   50        7.609649   0.000000
   51        7.956557   0.000000
   52        8.243850   0.000000
 
  0.4166667E+00  0.1666667E+00  0.3885781E-15  0.5555556E-02
    1      -31.576545   1.000000
    2      -31.417865   1.000000
    3      -27.350058   1.000000
    4      -27.299556   1.000000
    5      -27.257985   1.000000
    6      -27.179740   1.000000
    7      -27.119171   1.000000
    8      -27.062860   1.000000
    9      -27.044435   1.000000
   10      -27.005765   1.000000
   11      -26.917773   1.000000
   12      -26.749616   1.000000
   13      -26.562281   1.000000
   14      -26.523409   1.000000
   15      -14.203470   1.000000
   16      -14.080819   1.000000
   17      -13.980011   1.000000
   18      -13.540475   1.000000
   19      -13.398697   1.000000
   20      -13.307845   1.000000
   21       -3.883507   1.000000
   22       -3.352511   1.000000
   23       -2.444751   1.000000
   24       -2.127066   1.000000
   25       -1.978860   1.000000
   26       -1.784360   1.000000
   27       -1.516196   1.000000
   28       -1.215855   1.000000
   29       -0.996391   1.000000
   30       -0.867805   1.000000
   31       -0.735228   1.000000
   32       -0.367377   1.000000
   33       -0.099077   1.000000
   34        0.765297   1.000000
   35        1.000908   1.000000
   36        1.294936   1.000000
   37        1.886766   1.000000
   38        3.022044   1.000000
   39        3.528158   1.000000
   40        3.722693   1.000000
   41        5.287788   0.000000
   42        5.607201   0.000000
   43        5.846536   0.000000
   44        5.974342   0.000000
   45        6.182173   0.000000
   46        6.459817   0.000000
   47        6.613941   0.000000
   48        6.869025   0.000000
   49        7.222413   0.000000
   50        7.797899   0.000000
   51        8.036019   0.000000
   52        8.267235   0.000000
 
  0.5000000E+00  0.1666667E+00  0.3608225E-15  0.5555556E-02
    1      -31.571943   1.000000
    2      -31.413361   1.000000
    3      -27.360308   1.000000
    4      -27.306964   1.000000
    5      -27.267112   1.000000
    6      -27.178901   1.000000
    7      -27.113790   1.000000
    8      -27.070258   1.000000
    9      -27.029505   1.000000
   10      -27.023926   1.000000
   11      -26.917038   1.000000
   12      -26.751025   1.000000
   13      -26.562616   1.000000
   14      -26.532652   1.000000
   15      -14.253641   1.000000
   16      -14.067922   1.000000
   17      -14.026845   1.000000
   18      -13.529985   1.000000
   19      -13.390463   1.000000
   20      -13.301874   1.000000
   21       -3.577239   1.000000
   22       -3.455175   1.000000
   23       -2.494138   1.000000
   24       -2.134701   1.000000
   25       -1.870393   1.000000
   26       -1.769695   1.000000
   27       -1.354675   1.000000
   28       -1.216903   1.000000
   29       -1.070107   1.000000
   30       -0.846898   1.000000
   31       -0.706705   1.000000
   32       -0.428557   1.000000
   33       -0.178200   1.000000
   34        0.779734   1.000000
   35        0.808883   1.000000
   36        1.357405   1.000000
   37        1.874368   1.000000
   38        3.003207   1.000000
   39        3.476665   1.000000
   40        3.689757   1.000000
   41        5.349464   0.000000
   42        5.646405   0.000000
   43        6.021884   0.000000
   44        6.150895   0.000000
   45        6.337310   0.000000
   46        6.365195   0.000000
   47        6.557761   0.000000
   48        6.749474   0.000000
   49        6.975044   0.000000
   50        7.555172   0.000000
   51        7.880879   0.000000
   52        8.221682   0.000000
 
 -0.4166667E+00  0.1666667E+00  0.3885781E-15  0.5555556E-02
    1      -31.576555   1.000000
    2      -31.417868   1.000000
    3      -27.349985   1.000000
    4      -27.299604   1.000000
    5      -27.257912   1.000000
    6      -27.179574   1.000000
    7      -27.119821   1.000000
    8      -27.062272   1.000000
    9      -27.045038   1.000000
   10      -27.006112   1.000000
   11      -26.917606   1.000000
   12      -26.749690   1.000000
   13      -26.562453   1.000000
   14      -26.523454   1.000000
   15      -14.203209   1.000000
   16      -14.081030   1.000000
   17      -13.980471   1.000000
   18      -13.540580   1.000000
   19      -13.398790   1.000000
   20      -13.307683   1.000000
   21       -3.884859   1.000000
   22       -3.346169   1.000000
   23       -2.588619   1.000000
   24       -2.081516   1.000000
   25       -1.878266   1.000000
   26       -1.755537   1.000000
   27       -1.538305   1.000000
   28       -1.175460   1.000000
   29       -1.016227   1.000000
   30       -0.854734   1.000000
   31       -0.693262   1.000000
   32       -0.413131   1.000000
   33       -0.144383   1.000000
   34        0.743426   1.000000
   35        0.812332   1.000000
   36        1.364974   1.000000
   37        2.043931   1.000000
   38        3.089532   1.000000
   39        3.523383   1.000000
   40        3.721093   1.000000
   41        5.311855   0.000000
   42        5.621076   0.000000
   43        5.948318   0.000000
   44        6.183393   0.000000
   45        6.254839   0.000000
   46        6.416428   0.000000
   47        6.544953   0.000000
   48        6.747360   0.000000
   49        7.045591   0.000000
   50        7.153996   0.000000
   51        7.809037   0.000000
   52        8.197817   0.000000
 
 -0.3333333E+00  0.1666667E+00  0.3747003E-15  0.5555556E-02
    1      -31.589114   1.000000
    2      -31.430134   1.000000
    3      -27.327018   1.000000
    4      -27.281920   1.000000
    5      -27.236240   1.000000
    6      -27.180432   1.000000
    7      -27.121117   1.000000
    8      -27.056177   1.000000
    9      -27.043015   1.000000
   10      -26.990227   1.000000
   11      -26.918860   1.000000
   12      -26.746645   1.000000
   13      -26.561889   1.000000
   14      -26.497724   1.000000
   15      -14.115470   1.000000
   16      -14.062626   1.000000
   17      -13.852064   1.000000
   18      -13.569195   1.000000
   19      -13.421227   1.000000
   20      -13.323821   1.000000
   21       -4.387947   1.000000
   22       -3.330320   1.000000
   23       -2.763563   1.000000
   24       -2.233481   1.000000
   25       -1.929547   1.000000
   26       -1.769267   1.000000
   27       -1.711914   1.000000
   28       -1.233289   1.000000
   29       -0.990187   1.000000
   30       -0.821867   1.000000
   31       -0.658161   1.000000
   32       -0.236216   1.000000
   33        0.032125   1.000000
   34        0.735885   1.000000
   35        0.968118   1.000000
   36        1.332546   1.000000
   37        2.321601   1.000000
   38        3.243869   1.000000
   39        3.616242   1.000000
   40        3.849461   1.000000
   41        5.256045   0.000000
   42        5.475711   0.000000
   43        5.807440   0.000000
   44        5.966195   0.000000
   45        6.274376   0.000000
   46        6.432709   0.000000
   47        6.557859   0.000000
   48        6.747183   0.000000
   49        6.927375   0.000000
   50        7.349347   0.000000
   51        7.797281   0.000000
   52        8.332309   0.000000
 
 -0.2500000E+00  0.1666667E+00  0.3747003E-15  0.5555556E-02
    1      -31.606184   1.000000
    2      -31.446809   1.000000
    3      -27.315653   1.000000
    4      -27.262521   1.000000
    5      -27.207945   1.000000
    6      -27.180994   1.000000
    7      -27.102227   1.000000
    8      -27.040446   1.000000
    9      -27.029257   1.000000
   10      -26.980974   1.000000
   11      -26.919803   1.000000
   12      -26.743630   1.000000
   13      -26.561858   1.000000
   14      -26.461063   1.000000
   15      -14.160994   1.000000
   16      -13.863788   1.000000
   17      -13.670669   1.000000
   18      -13.607579   1.000000
   19      -13.451851   1.000000
   20      -13.345729   1.000000
   21       -4.933729   1.000000
   22       -3.387102   1.000000
   23       -3.045217   1.000000
   24       -2.599485   1.000000
   25       -2.166497   1.000000
   26       -1.863921   1.000000
   27       -1.715954   1.000000
   28       -1.257150   1.000000
   29       -0.969272   1.000000
   30       -0.866358   1.000000
   31       -0.396302   1.000000
   32       -0.004929   1.000000
   33        0.367670   1.000000
   34        0.869864   1.000000
   35        1.072665   1.000000
   36        1.420020   1.000000
   37        2.675674   1.000000
   38        3.418674   1.000000