       N       E                     dE             d eps       ncg     rms          rms(c)
DAV:   1     0.505949285276E+03    0.50595E+03   -0.26292E+04 19192   0.915E+02
DAV:   2    -0.705984453321E+02   -0.57655E+03   -0.55601E+03 23560   0.427E+02
DAV:   3    -0.108328131154E+03   -0.37730E+02   -0.36887E+02 29160   0.101E+02
DAV:   4    -0.110239943979E+03   -0.19118E+01   -0.18893E+01 32792   0.209E+01
DAV:   5    -0.110324137491E+03   -0.84194E-01   -0.83798E-01 32992   0.405E+00    0.613E+01
DAV:   6    -0.103162760704E+03    0.71614E+01   -0.20748E+01 28400   0.244E+01    0.241E+01
DAV:   7    -0.102429666564E+03    0.73309E+00   -0.40224E+00 28144   0.107E+01    0.108E+01
DAV:   8    -0.102402359848E+03    0.27307E-01   -0.14367E+00 29392   0.106E+01    0.634E+00
DAV:   9    -0.102314222399E+03    0.88137E-01   -0.37744E-01 28400   0.458E+00    0.315E+00
DAV:  10    -0.102311465856E+03    0.27565E-02   -0.11075E-01 29232   0.263E+00    0.168E+00
DAV:  11    -0.102303328967E+03    0.81369E-02   -0.49021E-02 28240   0.193E+00    0.369E-01
DAV:  12    -0.102302647739E+03    0.68123E-03   -0.80798E-03 26224   0.674E-01    0.192E-01
DAV:  13    -0.102302606200E+03    0.41539E-04   -0.13018E-03 29024   0.254E-01    0.112E-01
DAV:  14    -0.102302576796E+03    0.29404E-04   -0.19927E-04 16592   0.131E-01
   1 F= -.10230258E+03 E0= -.10230255E+03  d E =-.102303E+03
       N       E                     dE             d eps       ncg     rms          rms(c)
DAV:   1    -0.102305609298E+03   -0.30031E-02   -0.12875E-01 21380   0.208E+00    0.279E-01
DAV:   2    -0.102305046973E+03    0.56232E-03   -0.10610E-02 21792   0.581E-01    0.148E-01
DAV:   3    -0.102304657141E+03    0.38983E-03   -0.10092E-03 26016   0.242E-01    0.751E-02
DAV:   4    -0.102304562703E+03    0.94438E-04   -0.24999E-04 17840   0.195E-01
   2 F= -.10230456E+03 E0= -.10230454E+03  d E =-.198591E-02
       N       E                     dE             d eps       ncg     rms          rms(c)
DAV:   1    -0.102309012992E+03   -0.43559E-02   -0.49315E-01 20780   0.407E+00    0.549E-01
DAV:   2    -0.102306680572E+03    0.23324E-02   -0.41158E-02 21056   0.113E+00    0.280E-01
DAV:   3    -0.102304911657E+03    0.17689E-02   -0.36680E-03 25168   0.336E-01    0.106E-01
DAV:   4    -0.102304804344E+03    0.10731E-03   -0.62568E-04 25184   0.217E-01    0.772E-02
DAV:   5    -0.102304763069E+03    0.41275E-04   -0.12965E-04 15416   0.141E-01
   3 F= -.10230476E+03 E0= -.10230476E+03  d E =-.218627E-02
       N       E                     dE             d eps       ncg     rms          rms(c)
DAV:   1    -0.102300036818E+03    0.47675E-02   -0.40279E-01 21884   0.451E+00    0.335E-01
DAV:   2    -0.102306277969E+03   -0.62412E-02   -0.73255E-02 19760   0.127E+00    0.222E-01
DAV:   3    -0.102306294524E+03   -0.16555E-04   -0.23606E-03 26484   0.347E-01    0.111E-01
DAV:   4    -0.102306230036E+03    0.64489E-04   -0.31535E-04 20672   0.192E-01
   4 F= -.10230623E+03 E0= -.10230623E+03  d E =-.146697E-02
       N       E                     dE             d eps       ncg     rms          rms(c)
DAV:   1    -0.102306071020E+03    0.22350E-03   -0.11906E-02 22748   0.786E-01    0.735E-02
DAV:   2    -0.102306277359E+03   -0.20634E-03   -0.22534E-03 22316   0.248E-01    0.591E-02
DAV:   3    -0.102306259422E+03    0.17937E-04   -0.82377E-05 13468   0.101E-01
   5 F= -.10230626E+03 E0= -.10230626E+03  d E =-.149635E-02
