unknown system                          
           1
     3.755401   -0.155485   -0.266232
    -0.018997    6.675340   -0.802685
    -0.552211   -1.157797    7.616420
   Sr   Nb   H 
   2   3  17
Direct configuration=     1
   0.98908400  0.79576500  0.18701200
   0.20429500  0.33733900  0.28068700
   0.76583000  0.67002300  0.59905800
   0.71951500  0.14239200  0.58398200
   0.31403000  0.52103000  0.81743900
   0.84022700  0.63757500  0.84866700
   0.32668200  0.50259300  0.05946300
   0.89292200  0.97424900  0.73545200
   0.44421600  0.91398300  0.60224500
   0.88016800  0.88097600  0.48460100
   0.59680400  0.05805900  0.31711800
   0.75492000  0.37538700  0.48073400
   0.69693700  0.58952300  0.33921500
   0.65369200  0.18538300  0.08320900
   0.62117800  0.27561100  0.03829700
   0.48361300  0.24136400  0.78476600
   0.21483700  0.01032900  0.00395700
   0.04524600  0.06341400  0.98075500
   0.99685700  0.29282300  0.81199700
   0.42540000  0.78099100  0.98542900
   0.20712000  0.15875200  0.50665400
   0.25919300  0.58832200  0.57820000
unknown system                          
           1
     3.790799   -0.157283   -0.268454
    -0.019856    6.734547   -0.808474
    -0.556669   -1.166063    7.687523
   Sr   Nb   H 
   2   3  17
Direct configuration=     2
   0.98898678  0.79570182  0.18693323
   0.20467511  0.33754843  0.28094933
   0.76647882  0.66973747  0.59865867
   0.71919635  0.14135385  0.58434164
   0.31339095  0.52132521  0.81780738
   0.84023229  0.63771310  0.84863911
   0.32672472  0.50268267  0.05953472
   0.89294194  0.97457739  0.73532752
   0.44457977  0.91444439  0.60239304
   0.87968005  0.88101068  0.48451184
   0.59660936  0.05809427  0.31715363
   0.75454519  0.37554021  0.48060407
   0.69747564  0.58947373  0.33941028
   0.65367966  0.18540827  0.08316370
   0.62094118  0.27560398  0.03827748
   0.48407210  0.24124089  0.78442376
   0.21527284  0.01013631  0.00409653
   0.04420918  0.06358479  0.98060503
   0.99714496  0.29278691  0.81185860
   0.42551606  0.78087987  0.98542960
   0.20727098  0.15872137  0.50669592
   0.25914207  0.58831741  0.57812190
unknown system                          
           1
     3.825910   -0.159066   -0.270658
    -0.020707    6.793272   -0.814216
    -0.561091   -1.174262    7.758047
   Sr   Nb   H 
   2   3  17
Direct configuration=     3
   0.98889126  0.79563973  0.18685585
   0.20504859  0.33775423  0.28120706
   0.76711638  0.66945694  0.59826631
   0.71888301  0.14033307  0.58469523
   0.31276300  0.52161527  0.81816934
   0.84023752  0.63784888  0.84861169
   0.32676669  0.50277081  0.05960517
   0.89296161  0.97490028  0.73520515
   0.44493724  0.91489795  0.60253843
   0.87920061  0.88104479  0.48442423
   0.59641811  0.05812892  0.31718864
   0.75417695  0.37569087  0.48047639
   0.69800487  0.58942523  0.33960216
   0.65366755  0.18543313  0.08311919
   0.62070848  0.27559708  0.03825831
   0.48452325  0.24112001  0.78408747
   0.21570103  0.00994684  0.00423365
   0.04319046  0.06375271  0.98045767
   0.99742794  0.29275149  0.81172260
   0.42563009  0.78077062  0.98543020
   0.20741932  0.15869124  0.50673711
   0.25909204  0.58831293  0.57804516
unknown system                          
           1
     3.811962   -0.158357   -0.269782
    -0.020369    6.769944   -0.811935
    -0.559334   -1.171005    7.730032
   Sr   Nb   H 
   2   3  17
Direct configuration=     4
   0.98892886  0.79566417  0.18688630
   0.20490160  0.33767322  0.28110563
   0.76686543  0.66956735  0.59842074
   0.71900642  0.14073511  0.58455598
   0.31301017  0.52150111  0.81802688
   0.84023545  0.63779540  0.84862249
   0.32675017  0.50273611  0.05957745
   0.89295384  0.97477311  0.73525334
   0.44479653  0.91471936  0.60248124
   0.87938931  0.88103135  0.48445871
   0.59649338  0.05811528  0.31717486
   0.75432187  0.37563152  0.48052665
   0.69779659  0.58944435  0.33952664
   0.65367231  0.18542333  0.08313671
   0.62080006  0.27559980  0.03826585
   0.48434566  0.24116755  0.78421984
   0.21553252  0.01002147  0.00417967
   0.04359140  0.06368658  0.98051567
   0.99731655  0.29276541  0.81177613
   0.42558522  0.78081364  0.98542995
   0.20736094  0.15870311  0.50672089
   0.25911173  0.58831469  0.57807537
unknown system                          
           1
     3.804033   -0.155749   -0.268182
    -0.016272    6.749564   -0.803315
    -0.557404   -1.161483    7.700749
   Sr   Nb   H 
   2   3  17
Direct configuration=     5
   0.98839272  0.79546590  0.18659415
   0.20591262  0.33797364  0.28210863
   0.76685176  0.66806433  0.59868410
   0.71899472  0.14030624  0.58462055
   0.31197810  0.52211599  0.81756731
   0.84003674  0.63746885  0.84778433
   0.32627134  0.50292087  0.05893005
   0.89215329  0.97503961  0.73437887
   0.44661750  0.91543377  0.60255806
   0.87817744  0.88126686  0.48479349
   0.59675980  0.05832879  0.31811729
   0.75378545  0.37556455  0.48113168
   0.69873152  0.58955029  0.34027958
   0.65316678  0.18738703  0.08238653
   0.62112417  0.27388175  0.03918211
   0.48503432  0.24173868  0.78330103
   0.20887495  0.01191364  0.00347482
   0.04963122  0.06174357  0.98143159
   0.99771438  0.29300184  0.81060770
   0.42502510  0.77968633  0.98500776
   0.20778739  0.15858799  0.50719492
   0.25974467  0.58844248  0.57880244
unknown system                          
           1
     3.808588   -0.157247   -0.269101
    -0.018625    6.761272   -0.808267
    -0.558513   -1.166953    7.717571
   Sr   Nb   H 
   2   3  17
Direct configuration=     6
   0.98870122  0.79557988  0.18676246
   0.20533081  0.33780123  0.28153054
   0.76685859  0.66893033  0.59853150
   0.71900116  0.14055334  0.58458311
   0.31257264  0.52176133  0.81783250
   0.84015092  0.63765656  0.84826744
   0.32654712  0.50281404  0.05930338
   0.89261433  0.97488552  0.73488315
   0.44556975  0.91502262  0.60251430
   0.87887520  0.88113108  0.48460045
   0.59660656  0.05820626  0.31757401
   0.75409418  0.37560329  0.48078273
   0.69819339  0.58948979  0.33984558
   0.65345915  0.18625531  0.08282001
   0.62093640  0.27487199  0.03865297
   0.48463831  0.24140939  0.78383117
   0.21270867  0.01082184  0.00388152
   0.04615307  0.06286462  0.98090311
   0.99748556  0.29286520  0.81128158
   0.42534677  0.78033546  0.98525058
   0.20754182  0.15865461  0.50692158
   0.25938039  0.58836931  0.57838333
