       N       E                     dE             d eps       ncg     rms          rms(c)
DAV:   1     0.172963743359E+03    0.17296E+03   -0.12966E+04 16568   0.741E+02
DAV:   2    -0.280332311984E+02   -0.20100E+03   -0.19658E+03 20264   0.293E+02
DAV:   3    -0.426646868390E+02   -0.14631E+02   -0.14523E+02 26804   0.591E+01
DAV:   4    -0.434890428583E+02   -0.82436E+00   -0.82194E+00 25656   0.119E+01
DAV:   5    -0.435094219355E+02   -0.20379E-01   -0.20371E-01 26268   0.177E+00    0.365E+01
DAV:   6    -0.418456603385E+02    0.16638E+01   -0.39715E+01 25440   0.196E+01    0.115E+01
DAV:   7    -0.411395849692E+02    0.70608E+00   -0.47852E+01 25904   0.185E+01    0.211E+01
DAV:   8    -0.395538743321E+02    0.15857E+01   -0.35410E+00 21996   0.766E+00    0.783E+00
DAV:   9    -0.393615516257E+02    0.19232E+00   -0.22161E+00 24960   0.474E+00    0.225E+00
DAV:  10    -0.393520906621E+02    0.94610E-02   -0.67560E-01 24984   0.222E+00    0.166E+00
DAV:  11    -0.393320837041E+02    0.20007E-01   -0.23207E-01 23152   0.114E+00    0.909E-01
DAV:  12    -0.393296332665E+02    0.24504E-02   -0.99442E-03 19984   0.380E-01    0.536E-01
DAV:  13    -0.393285173586E+02    0.11159E-02   -0.10656E-02 23120   0.257E-01    0.159E-01
DAV:  14    -0.393284684519E+02    0.48907E-04   -0.47473E-04 16376   0.901E-02
   1 F= -.39328468E+02 E0= -.39328195E+02  d E =-.393285E+02
       N       E                     dE             d eps       ncg     rms          rms(c)
DAV:   1    -0.393894194056E+02   -0.60902E-01   -0.19836E+01 17668   0.304E+01    0.326E+00
DAV:   2    -0.395058626003E+02   -0.11644E+00   -0.21246E+00 18480   0.742E+00    0.249E+00
DAV:   3    -0.394715719614E+02    0.34291E-01   -0.78101E-01 24684   0.240E+00    0.190E+00
DAV:   4    -0.394468282834E+02    0.24744E-01   -0.77438E-02 24944   0.123E+00    0.705E-01
DAV:   5    -0.394452853702E+02    0.15429E-02   -0.79951E-03 25840   0.479E-01    0.322E-01
DAV:   6    -0.394454453852E+02   -0.16002E-03   -0.10721E-03 24740   0.180E-01    0.141E-01
DAV:   7    -0.394453839669E+02    0.61418E-04   -0.58958E-04 14464   0.932E-02
   2 F= -.39445384E+02 E0= -.39445447E+02  d E =-.116916E+00
       N       E                     dE             d eps       ncg     rms          rms(c)
DAV:   1    -0.394640227678E+02   -0.18577E-01   -0.26934E+00 17764   0.114E+01    0.116E+00
DAV:   2    -0.394818905374E+02   -0.17868E-01   -0.31229E-01 18360   0.283E+00    0.988E-01
DAV:   3    -0.394760043901E+02    0.58861E-02   -0.82730E-02 23632   0.836E-01    0.675E-01
DAV:   4    -0.394731041574E+02    0.29002E-02   -0.97211E-03 24936   0.418E-01    0.249E-01
DAV:   5    -0.394729735921E+02    0.13057E-03   -0.13004E-03 21948   0.170E-01    0.191E-01
DAV:   6    -0.394728822462E+02    0.91346E-04   -0.65874E-04 16072   0.949E-02
   3 F= -.39472882E+02 E0= -.39472827E+02  d E =-.144414E+00
       N       E                     dE             d eps       ncg     rms          rms(c)
DAV:   1    -0.395959240240E+02   -0.12295E+00   -0.12519E+01 18368   0.278E+01    0.313E+00
DAV:   2    -0.397252143001E+02   -0.12929E+00   -0.23109E+00 18400   0.749E+00    0.310E+00
DAV:   3    -0.396560048379E+02    0.69209E-01   -0.88566E-01 24792   0.244E+00    0.123E+00
DAV:   4    -0.396382614994E+02    0.17743E-01   -0.64395E-02 28272   0.131E+00    0.544E-01
DAV:   5    -0.396376876123E+02    0.57389E-03   -0.58497E-03 28152   0.339E-01    0.450E-01
DAV:   6    -0.396379503136E+02   -0.26270E-03   -0.34136E-03 31656   0.263E-01    0.187E-01
DAV:   7    -0.396377946715E+02    0.15564E-03   -0.13916E-03 17944   0.130E-01    0.452E-02
DAV:   8    -0.396378048097E+02   -0.10138E-04   -0.44579E-05 11296   0.434E-02
   4 F= -.39637805E+02 E0= -.39637897E+02  d E =-.164923E+00
       N       E                     dE             d eps       ncg     rms          rms(c)
DAV:   1    -0.394354584709E+02    0.20234E+00   -0.10928E+02 17552   0.829E+01    0.106E+01
DAV:   2    -0.404256495866E+02   -0.99019E+00   -0.18857E+01 18388   0.216E+01    0.744E+00
DAV:   3    -0.399833932423E+02    0.44226E+00   -0.80371E+00 26424   0.766E+00    0.382E+00
DAV:   4    -0.397908569150E+02    0.19254E+00   -0.70607E-01 27988   0.431E+00    0.159E+00
DAV:   5    -0.397844136125E+02    0.64433E-02   -0.49175E-02 25720   0.118E+00    0.105E+00
DAV:   6    -0.397880335546E+02   -0.36199E-02   -0.36972E-02 31772   0.746E-01    0.613E-01
DAV:   7    -0.397869289914E+02    0.11046E-02   -0.12865E-02 24960   0.398E-01    0.108E-01
DAV:   8    -0.397869098325E+02    0.19159E-04   -0.49628E-04 16252   0.117E-01
   5 F= -.39786910E+02 E0= -.39786973E+02  d E =-.314028E+00
       N       E                     dE             d eps       ncg     rms          rms(c)
DAV:   1    -0.397850167108E+02    0.19123E-02   -0.70902E+00 18000   0.215E+01    0.212E+00
DAV:   2    -0.398500420749E+02   -0.65025E-01   -0.12978E+00 18716   0.592E+00    0.211E+00
DAV:   3    -0.398119919072E+02    0.38050E-01   -0.27965E-01 23872   0.173E+00    0.871E-01
DAV:   4    -0.398043331773E+02    0.76587E-02   -0.21262E-02 27780   0.861E-01    0.506E-01
DAV:   5    -0.398043226049E+02    0.10572E-04   -0.30228E-03 30216   0.224E-01    0.464E-01
DAV:   6    -0.398040803081E+02    0.24230E-03   -0.32959E-03 31328   0.246E-01    0.536E-02
DAV:   7    -0.398040946252E+02   -0.14317E-04   -0.98706E-05 12240   0.566E-02
   6 F= -.39804095E+02 E0= -.39803876E+02  d E =-.331212E+00
       N       E                     dE             d eps       ncg     rms          rms(c)
DAV:   1    -0.398632183282E+02   -0.59138E-01   -0.77179E+00 17536   0.219E+01    0.151E+00
DAV:   2    -0.399241569744E+02   -0.60939E-01   -0.89457E-01 16944   0.506E+00    0.841E-01
DAV:   3    -0.399199096933E+02    0.42473E-02   -0.21251E-02 23740   0.866E-01    0.544E-01
DAV:   4    -0.399190198197E+02    0.88987E-03   -0.13324E-02 27776   0.519E-01    0.333E-01
DAV:   5    -0.399181201793E+02    0.89964E-03   -0.13093E-02 23608   0.351E-01    0.260E-01
DAV:   6    -0.399178809232E+02    0.23926E-03   -0.15724E-03 20160   0.156E-01    0.809E-02
DAV:   7    -0.399178838219E+02   -0.28987E-05   -0.60225E-05 11380   0.592E-02
   7 F= -.39917884E+02 E0= -.39917865E+02  d E =-.113789E+00
       N       E                     dE             d eps       ncg     rms          rms(c)
DAV:   1    -0.398678212935E+02    0.50060E-01   -0.13229E+01 16432   0.286E+01    0.192E+00
DAV:   2    -0.399799035764E+02   -0.11208E+00   -0.16218E+00 16956   0.679E+00    0.107E+00
DAV:   3    -0.399731179009E+02    0.67857E-02   -0.39888E-02 23460   0.116E+00    0.734E-01
DAV:   4    -0.399718889538E+02    0.12289E-02   -0.28675E-02 26928   0.673E-01    0.498E-01
DAV:   5    -0.399692702183E+02    0.26187E-02   -0.24269E-02 25328   0.530E-01    0.295E-01
DAV:   6    -0.399690431098E+02    0.22711E-03   -0.22062E-03 22476   0.205E-01    0.114E-01
DAV:   7    -0.399690501230E+02   -0.70132E-05   -0.10145E-04 11644   0.812E-02
   8 F= -.39969050E+02 E0= -.39969122E+02  d E =-.164955E+00
       N       E                     dE             d eps       ncg     rms          rms(c)
DAV:   1    -0.400481979066E+02   -0.79155E-01   -0.24555E+00 16072   0.106E+01    0.192E+00
DAV:   2    -0.400718598025E+02   -0.23662E-01   -0.82199E-01 24576   0.396E+00    0.224E+00
DAV:   3    -0.400215234211E+02    0.50336E-01   -0.27667E-01 24240   0.165E+00    0.549E-01
DAV:   4    -0.400167858838E+02    0.47375E-02   -0.17388E-02 23936   0.688E-01    0.598E-01
DAV:   5    -0.400168506179E+02   -0.64734E-04   -0.33424E-03 24384   0.208E-01    0.427E-01
DAV:   6    -0.400169824221E+02   -0.13180E-03   -0.76966E-04 25440   0.123E-01    0.118E-01
DAV:   7    -0.400168733155E+02    0.10911E-03   -0.81927E-04 24600   0.144E-01    0.613E-02
DAV:   8    -0.400168743324E+02   -0.10169E-05   -0.51492E-05 11256   0.382E-02
   9 F= -.40016874E+02 E0= -.40016901E+02  d E =-.478242E-01
       N       E                     dE             d eps       ncg     rms          rms(c)
DAV:   1    -0.400812748998E+02   -0.64402E-01   -0.38214E+00 16072   0.132E+01    0.234E+00
DAV:   2    -0.401197635395E+02   -0.38489E-01   -0.13364E+00 24608   0.497E+00    0.285E+00
DAV:   3    -0.400390971595E+02    0.80666E-01   -0.42381E-01 24160   0.205E+00    0.661E-01
DAV:   4    -0.400319652138E+02    0.71319E-02   -0.28636E-02 24632   0.830E-01    0.744E-01
DAV:   5    -0.400319175049E+02    0.47709E-04   -0.57185E-03 24120   0.271E-01    0.513E-01
DAV:   6    -0.400321762515E+02   -0.25875E-03   -0.11566E-03 27976   0.147E-01    0.156E-01
DAV:   7    -0.400319836204E+02    0.19263E-03   -0.14525E-03 28172   0.185E-01    0.747E-02
DAV:   8    -0.400319816818E+02    0.19386E-05   -0.64453E-05 11240   0.387E-02
  10 F= -.40031982E+02 E0= -.40031948E+02  d E =-.629316E-01
       N       E                     dE             d eps       ncg     rms          rms(c)
DAV:   1    -0.400671399159E+02   -0.35156E-01   -0.44021E+00 16224   0.149E+01    0.141E+00
DAV:   2    -0.400939680887E+02   -0.26828E-01   -0.57181E-01 22072   0.407E+00    0.138E+00
DAV:   3    -0.400757699048E+02    0.18198E-01   -0.13705E-01 24104   0.124E+00    0.525E-01
DAV:   4    -0.400728290685E+02    0.29408E-02   -0.80608E-03 22552   0.491E-01    0.275E-01
DAV:   5    -0.400724953299E+02    0.33374E-03   -0.18565E-03 27420   0.219E-01    0.189E-01
DAV:   6    -0.400724651467E+02    0.30183E-04   -0.52055E-04 16024   0.105E-01
  11 F= -.40072465E+02 E0= -.40072374E+02  d E =-.404835E-01
       N       E                     dE             d eps       ncg     rms          rms(c)
DAV:   1    -0.400802796606E+02   -0.77843E-02   -0.50969E+00 16272   0.160E+01    0.150E+00
DAV:   2    -0.401116942745E+02   -0.31415E-01   -0.66621E-01 21928   0.436E+00    0.151E+00
DAV:   3    -0.400900500183E+02    0.21644E-01   -0.15494E-01 24224   0.132E+00    0.546E-01
DAV:   4    -0.400867419585E+02    0.33081E-02   -0.88470E-03 22340   0.524E-01    0.286E-01
DAV:   5    -0.400863746298E+02    0.36733E-03   -0.21457E-03 27904   0.233E-01    0.201E-01
DAV:   6    -0.400863421655E+02    0.32464E-04   -0.61497E-04 17124   0.113E-01
  12 F= -.40086342E+02 E0= -.40086209E+02  d E =-.543605E-01
       N       E                     dE             d eps       ncg     rms          rms(c)
DAV:   1    -0.400969178834E+02   -0.10543E-01   -0.31734E+00 17800   0.137E+01    0.122E+00
DAV:   2    -0.401279919703E+02   -0.31074E-01   -0.50472E-01 18988   0.368E+00    0.121E+00
DAV:   3    -0.401169281873E+02    0.11064E-01   -0.12375E-01 22848   0.103E+00    0.469E-01
DAV:   4    -0.401145634845E+02    0.23647E-02   -0.96963E-03 27020   0.505E-01    0.218E-01
DAV:   5    -0.401143751988E+02    0.18829E-03   -0.15486E-03 25284   0.158E-01    0.202E-01
DAV:   6    -0.401143983376E+02   -0.23139E-04   -0.62313E-04 25816   0.111E-01
  13 F= -.40114398E+02 E0= -.40114237E+02  d E =-.280562E-01
       N       E                     dE             d eps       ncg     rms          rms(c)
DAV:   1    -0.401025219250E+02    0.11853E-01   -0.36573E+00 17864   0.148E+01    0.133E+00
DAV:   2    -0.401382819270E+02   -0.35760E-01   -0.58160E-01 19148   0.396E+00    0.130E+00
DAV:   3    -0.401257480533E+02    0.12534E-01   -0.14594E-01 23160   0.111E+00    0.524E-01
DAV:   4    -0.401229496523E+02    0.27984E-02   -0.11768E-02 26888   0.549E-01    0.237E-01
DAV:   5    -0.401227752082E+02    0.17444E-03   -0.17768E-03 25420   0.170E-01    0.222E-01
DAV:   6    -0.401228143128E+02   -0.39105E-04   -0.73510E-04 27484   0.120E-01
  14 F= -.40122814E+02 E0= -.40122629E+02  d E =-.364721E-01
       N       E                     dE             d eps       ncg     rms          rms(c)
DAV:   1    -0.401462201050E+02   -0.23445E-01   -0.26682E+00 16072   0.101E+01    0.112E+00
DAV:   2    -0.401562778333E+02   -0.10058E-01   -0.25867E-01 22272   0.286E+00    0.119E+00
DAV:   3    -0.401454616372E+02    0.10816E-01   -0.10894E-01 26160   0.925E-01    0.433E-01
DAV:   4    -0.401434344146E+02    0.20272E-02   -0.66339E-03 27368   0.446E-01    0.258E-01
DAV:   5    -0.401434342673E+02    0.14732E-06   -0.83764E-04 21356   0.111E-01
  15 F= -.40143434E+02 E0= -.40143227E+02  d E =-.206200E-01
       N       E                     dE             d eps       ncg     rms          rms(c)
DAV:   1    -0.401527925735E+02   -0.93582E-02   -0.37578E+00 16072   0.121E+01    0.137E+00
DAV:   2    -0.401669614006E+02   -0.14169E-01   -0.37068E-01 22176   0.341E+00    0.139E+00
DAV:   3    -0.401517086043E+02    0.15253E-01   -0.15973E-01 26096   0.112E+00    0.531E-01
DAV:   4    -0.401488258426E+02    0.28828E-02   -0.10273E-02 27452   0.546E-01    0.301E-01
DAV:   5    -0.401488514030E+02   -0.25560E-04   -0.12206E-03 23912   0.133E-01    0.285E-01
DAV:   6    -0.401488567145E+02   -0.53115E-05   -0.96510E-04 27504   0.132E-01
  16 F= -.40148857E+02 E0= -.40148623E+02  d E =-.260424E-01
       N       E                     dE             d eps       ncg     rms          rms(c)
DAV:   1    -0.401607164915E+02   -0.11865E-01   -0.21602E+00 16072   0.950E+00    0.635E-01
DAV:   2    -0.401673862180E+02   -0.66697E-02   -0.98614E-02 19592   0.217E+00    0.329E-01
DAV:   3    -0.401675301199E+02   -0.14390E-03   -0.77852E-03 27924   0.379E-01    0.277E-01
DAV:   4    -0.401673130455E+02    0.21707E-03   -0.41205E-03 22524   0.184E-01    0.165E-01
DAV:   5    -0.401671825645E+02    0.13048E-03   -0.70785E-04 17420   0.109E-01    0.408E-02
DAV:   6    -0.401671878611E+02   -0.52966E-05   -0.45894E-05 10868   0.532E-02
  17 F= -.40167188E+02 E0= -.40166970E+02  d E =-.183311E-01
       N       E                     dE             d eps       ncg     rms          rms(c)
DAV:   1    -0.401666653973E+02    0.51717E-03   -0.20657E+00 16072   0.929E+00    0.627E-01
DAV:   2    -0.401731191232E+02   -0.64537E-02   -0.94985E-02 19568   0.212E+00    0.318E-01
DAV:   3    -0.401733778264E+02   -0.25870E-03   -0.93817E-03 28080   0.393E-01    0.299E-01
DAV:   4    -0.401729775614E+02    0.40027E-03   -0.44151E-03 22840   0.186E-01    0.145E-01
DAV:   5    -0.401728954488E+02    0.82113E-04   -0.45334E-04 16352   0.991E-02
  18 F= -.40172895E+02 E0= -.40172707E+02  d E =-.240387E-01
       N       E                     dE             d eps       ncg     rms          rms(c)
DAV:   1    -0.401848031133E+02   -0.11826E-01   -0.15079E+00 16080   0.945E+00    0.106E+00
DAV:   2    -0.402050260711E+02   -0.20223E-01   -0.37172E-01 20320   0.290E+00    0.135E+00
DAV:   3    -0.401881316895E+02    0.16894E-01   -0.10388E-01 23424   0.990E-01    0.386E-01
DAV:   4    -0.401868373614E+02    0.12943E-02   -0.38502E-03 24064   0.368E-01    0.287E-01
DAV:   5    -0.401868656101E+02   -0.28249E-04   -0.79109E-04 23392   0.101E-01
  19 F= -.40186866E+02 E0= -.40186714E+02  d E =-.139702E-01
       N       E                     dE             d eps       ncg     rms          rms(c)
DAV:   1    -0.401814883085E+02    0.53491E-02   -0.71472E+00 16072   0.205E+01    0.219E+00
DAV:   2    -0.402633641584E+02   -0.81876E-01   -0.17115E+00 20524   0.624E+00    0.261E+00
DAV:   3    -0.401944712815E+02    0.68893E-01   -0.40491E-01 23364   0.201E+00    0.814E-01
DAV:   4    -0.401890501521E+02    0.54211E-02   -0.18499E-02 23760   0.723E-01    0.681E-01
DAV:   5    -0.401889775320E+02    0.72620E-04   -0.37219E-03 29740   0.238E-01    0.504E-01
DAV:   6    -0.401890305578E+02   -0.53026E-04   -0.23846E-03 28760   0.206E-01    0.107E-01
DAV:   7    -0.401890349933E+02   -0.44355E-05   -0.45065E-04 22112   0.108E-01
  20 F= -.40189035E+02 E0= -.40188958E+02  d E =-.161395E-01
       N       E                     dE             d eps       ncg     rms          rms(c)
DAV:   1    -0.401917102289E+02   -0.26797E-02   -0.10089E+00 16784   0.765E+00    0.890E-01
DAV:   2    -0.402049783123E+02   -0.13268E-01   -0.25727E-01 20208   0.231E+00    0.116E+00
DAV:   3    -0.401936232909E+02    0.11355E-01   -0.96088E-02 23784   0.829E-01    0.320E-01
DAV:   4    -0.401926121019E+02    0.10112E-02   -0.35129E-03 26268   0.344E-01    0.195E-01
DAV:   5    -0.401926417787E+02   -0.29677E-04   -0.55355E-04 19896   0.817E-02
  21 F= -.40192642E+02 E0= -.40192524E+02  d E =-.197463E-01
       N       E                     dE             d eps       ncg     rms          rms(c)
DAV:   1    -0.402142340305E+02   -0.21622E-01   -0.24438E+00 18128   0.126E+01    0.204E+00
DAV:   2    -0.402501009023E+02   -0.35867E-01   -0.94826E-01 20752   0.411E+00    0.224E+00
DAV:   3    -0.402075657179E+02    0.42535E-01   -0.43253E-01 23784   0.172E+00    0.756E-01
DAV:   4    -0.402015502017E+02    0.60155E-02   -0.28679E-02 26900   0.931E-01    0.408E-01
DAV:   5    -0.402019858871E+02   -0.43569E-03   -0.29277E-03 24624   0.187E-01    0.429E-01
DAV:   6    -0.402022754157E+02   -0.28953E-03   -0.18819E-03 30524   0.171E-01    0.849E-02
DAV:   7    -0.402022363378E+02    0.39078E-04   -0.41428E-04 12548   0.889E-02
  22 F= -.40202236E+02 E0= -.40202152E+02  d E =-.959456E-02
       N       E                     dE             d eps       ncg     rms          rms(c)
DAV:   1    -0.402034617080E+02   -0.11863E-02   -0.12339E-01 18360   0.282E+00    0.436E-01
DAV:   2    -0.402058452029E+02   -0.23835E-02   -0.50655E-02 21040   0.940E-01    0.580E-01
DAV:   3    -0.402030416049E+02    0.28036E-02   -0.19257E-02 23968   0.390E-01    0.150E-01
DAV:   4    -0.402027937581E+02    0.24785E-03   -0.95913E-04 24512   0.179E-01    0.115E-01
DAV:   5    -0.402028104804E+02   -0.16722E-04   -0.85092E-05 11636   0.381E-02
  23 F= -.40202810E+02 E0= -.40202722E+02  d E =-.101687E-01
       N       E                     dE             d eps       ncg     rms          rms(c)
DAV:   1    -0.402097024202E+02   -0.69087E-02   -0.43604E-01 16368   0.460E+00    0.478E-01
DAV:   2    -0.402127359437E+02   -0.30335E-02   -0.68750E-02 22688   0.131E+00    0.635E-01
DAV:   3    -0.402096036968E+02    0.31322E-02   -0.21023E-02 23648   0.437E-01    0.167E-01
DAV:   4    -0.402092583766E+02    0.34532E-03   -0.95623E-04 20808   0.176E-01    0.996E-02
DAV:   5    -0.402092236213E+02    0.34755E-04   -0.23349E-04 11952   0.713E-02
  24 F= -.40209224E+02 E0= -.40209154E+02  d E =-.641314E-02
       N       E                     dE             d eps       ncg     rms          rms(c)
DAV:   1    -0.402162887390E+02   -0.70304E-02   -0.22192E+00 16760   0.104E+01    0.105E+00
DAV:   2    -0.402299611678E+02   -0.13672E-01   -0.33471E-01 22744   0.292E+00    0.131E+00
DAV:   3    -0.402157775792E+02    0.14184E-01   -0.85806E-02 23588   0.935E-01    0.366E-01
DAV:   4    -0.402140815182E+02    0.16961E-02   -0.42671E-03 24128   0.379E-01    0.217E-01
DAV:   5    -0.402139665799E+02    0.11494E-03   -0.10969E-03 26268   0.138E-01    0.179E-01
DAV:   6    -0.402139611455E+02    0.54343E-05   -0.55926E-04 17704   0.925E-02
  25 F= -.40213961E+02 E0= -.40213924E+02  d E =-.111507E-01
       N       E                     dE             d eps       ncg     rms          rms(c)
DAV:   1    -0.402176119797E+02   -0.36454E-02   -0.13717E-01 16104   0.233E+00    0.243E-01
DAV:   2    -0.402180132860E+02   -0.40131E-03   -0.12117E-02 21272   0.609E-01    0.248E-01
DAV:   3    -0.402175647372E+02    0.44855E-03   -0.41429E-03 23052   0.194E-01    0.957E-02
DAV:   4    -0.402174671674E+02    0.97570E-04   -0.25427E-04 11516   0.958E-02
  26 F= -.40217467E+02 E0= -.40217447E+02  d E =-.350602E-02
       N       E                     dE             d eps       ncg     rms          rms(c)
DAV:   1    -0.402253798432E+02   -0.78151E-02   -0.12348E+00 16072   0.698E+00    0.732E-01
DAV:   2    -0.402286893988E+02   -0.33096E-02   -0.11062E-01 21416   0.183E+00    0.717E-01
DAV:   3    -0.402246061998E+02    0.40832E-02   -0.35669E-02 25256   0.588E-01    0.295E-01
DAV:   4    -0.402237270325E+02    0.87917E-03   -0.24811E-03 25224   0.273E-01    0.170E-01
DAV:   5    -0.402236827117E+02    0.44321E-04   -0.41483E-04 17244   0.903E-02
  27 F= -.40223683E+02 E0= -.40223710E+02  d E =-.972157E-02
       N       E                     dE             d eps       ncg     rms          rms(c)
DAV:   1    -0.402213648396E+02    0.23622E-02   -0.49386E+00 16072   0.139E+01    0.140E+00
DAV:   2    -0.402344626471E+02   -0.13098E-01   -0.43193E-01 21504   0.366E+00    0.140E+00
DAV:   3    -0.402192257500E+02    0.15237E-01   -0.12147E-01 25524   0.112E+00    0.526E-01
DAV:   4    -0.402161161430E+02    0.31096E-02   -0.81283E-03 25196   0.511E-01    0.308E-01
DAV:   5    -0.402159308042E+02    0.18534E-03   -0.16527E-03 27112   0.171E-01    0.261E-01
DAV:   6    -0.402158591336E+02    0.71671E-04   -0.10378E-03 24184   0.138E-01    0.335E-02
DAV:   7    -0.402158626039E+02   -0.34704E-05   -0.46557E-05 11272   0.421E-02
  28 F= -.40215863E+02 E0= -.40215905E+02  d E =-.190146E-02
       N       E                     dE             d eps       ncg     rms          rms(c)
DAV:   1    -0.402274309867E+02   -0.11572E-01   -0.26965E+00 16072   0.103E+01    0.106E+00
DAV:   2    -0.402342715984E+02   -0.68406E-02   -0.23263E-01 21400   0.267E+00    0.104E+00
DAV:   3    -0.402264666015E+02    0.78050E-02   -0.88322E-02 25536   0.849E-01    0.436E-01
DAV:   4    -0.402244219874E+02    0.20446E-02   -0.62225E-03 25960   0.407E-01    0.227E-01
DAV:   5    -0.402242976457E+02    0.12434E-03   -0.84675E-04 22684   0.133E-01    0.181E-01
DAV:   6    -0.402242953330E+02    0.23127E-05   -0.40702E-04 20760   0.926E-02
  29 F= -.40224295E+02 E0= -.40224323E+02  d E =-.103342E-01
       N       E                     dE             d eps       ncg     rms          rms(c)
DAV:   1    -0.402277259648E+02   -0.34283E-02   -0.22783E-01 16120   0.328E+00    0.229E-01
DAV:   2    -0.402286133669E+02   -0.88740E-03   -0.14724E-02 18124   0.773E-01    0.110E-01
DAV:   3    -0.402285351081E+02    0.78259E-04   -0.56334E-04 25036   0.126E-01
  30 F= -.40228535E+02 E0= -.40228591E+02  d E =-.423978E-02
       N       E                     dE             d eps       ncg     rms          rms(c)
DAV:   1    -0.402299895853E+02   -0.13762E-02   -0.20406E+00 16072   0.981E+00    0.678E-01
DAV:   2    -0.402377268661E+02   -0.77373E-02   -0.13128E-01 18248   0.231E+00    0.336E-01
DAV:   3    -0.402370301769E+02    0.69669E-03   -0.55775E-03 26872   0.388E-01    0.173E-01
DAV:   4    -0.402369588208E+02    0.71356E-04   -0.32574E-03 23448   0.200E-01    0.192E-01
DAV:   5    -0.402366886280E+02    0.27019E-03   -0.16578E-03 17660   0.132E-01    0.569E-02
DAV:   6    -0.402366856735E+02    0.29545E-05   -0.60814E-05 11184   0.645E-02
  31 F= -.40236686E+02 E0= -.40236809E+02  d E =-.123903E-01
       N       E                     dE             d eps       ncg     rms          rms(c)
DAV:   1    -0.402046430254E+02    0.32046E-01   -0.81913E+00 16072   0.197E+01    0.134E+00
DAV:   2    -0.402366689295E+02   -0.32026E-01   -0.52753E-01 18160   0.462E+00    0.660E-01
DAV:   3    -0.402340161075E+02    0.26528E-02   -0.20491E-02 26956   0.750E-01    0.329E-01
DAV:   4    -0.402328601136E+02    0.11560E-02   -0.32509E-03 23364   0.321E-01    0.161E-01
DAV:   5    -0.402328319247E+02    0.28189E-04   -0.20573E-03 22392   0.160E-01    0.102E-01
DAV:   6    -0.402327537792E+02    0.78146E-04   -0.64513E-04 13140   0.915E-02
  32 F= -.40232754E+02 E0= -.40232979E+02  d E =-.845845E-02
       N       E                     dE             d eps       ncg     rms          rms(c)
DAV:   1    -0.402274053003E+02    0.54266E-02   -0.32942E+00 16072   0.125E+01    0.882E-01
DAV:   2    -0.402400864347E+02   -0.12681E-01   -0.21314E-01 18052   0.293E+00    0.409E-01
DAV:   3    -0.402389196457E+02    0.11668E-02   -0.84162E-03 26608   0.491E-01    0.201E-01
DAV:   4    -0.402386185824E+02    0.30106E-03   -0.27485E-03 23380   0.222E-01    0.169E-01
DAV:   5    -0.402384331342E+02    0.18545E-03   -0.14013E-03 17576   0.126E-01    0.662E-02
DAV:   6    -0.402384273944E+02    0.57398E-05   -0.81094E-05 11152   0.665E-02
  33 F= -.40238427E+02 E0= -.40238593E+02  d E =-.141321E-01
       N       E                     dE             d eps       ncg     rms          rms(c)
DAV:   1    -0.402425943114E+02   -0.41612E-02   -0.69116E-01 16072   0.549E+00    0.425E-01
DAV:   2    -0.402457759639E+02   -0.31817E-02   -0.55937E-02 19312   0.139E+00    0.369E-01
DAV:   3    -0.402448344014E+02    0.94156E-03   -0.13352E-02 26244   0.363E-01    0.164E-01
DAV:   4    -0.402445966664E+02    0.23774E-03   -0.95382E-04 17624   0.144E-01    0.857E-02
DAV:   5    -0.402445686129E+02    0.28053E-04   -0.18850E-04 12864   0.730E-02
  34 F= -.40244569E+02 E0= -.40244754E+02  d E =-.614122E-02
       N       E                     dE             d eps       ncg     rms          rms(c)
DAV:   1    -0.402404542581E+02    0.41424E-02   -0.62056E+00 16072   0.165E+01    0.128E+00
DAV:   2    -0.402682920065E+02   -0.27838E-01   -0.49176E-01 19160   0.416E+00    0.109E+00
DAV:   3    -0.402609699009E+02    0.73221E-02   -0.12550E-01 26336   0.108E+00    0.535E-01
DAV:   4    -0.402585009054E+02    0.24690E-02   -0.10409E-02 27484   0.453E-01    0.263E-01
DAV:   5    -0.402582588251E+02    0.24208E-03   -0.12757E-03 25456   0.184E-01    0.182E-01
DAV:   6    -0.402583069576E+02   -0.48133E-04   -0.43924E-04 22512   0.977E-02
  35 F= -.40258307E+02 E0= -.40258538E+02  d E =-.198796E-01
       N       E                     dE             d eps       ncg     rms          rms(c)
DAV:   1    -0.401894342876E+02    0.68825E-01   -0.24882E+01 16072   0.330E+01    0.262E+00
DAV:   2    -0.402975848134E+02   -0.10815E+00   -0.18902E+00 18976   0.829E+00    0.204E+00
DAV:   3    -0.402756125529E+02    0.21972E-01   -0.47474E-01 26264   0.210E+00    0.114E+00
DAV:   4    -0.402640416653E+02    0.11571E-01   -0.50475E-02 26724   0.967E-01    0.533E-01
DAV:   5    -0.402630580419E+02    0.98362E-03   -0.51348E-03 25636   0.385E-01    0.332E-01
DAV:   6    -0.402633204429E+02   -0.26240E-03   -0.19149E-03 30240   0.187E-01    0.151E-01
DAV:   7    -0.402632578595E+02    0.62583E-04   -0.68562E-04 14224   0.893E-02
  36 F= -.40263258E+02 E0= -.40263497E+02  d E =-.248305E-01
       N       E                     dE             d eps       ncg     rms          rms(c)
DAV:   1    -0.402568495424E+02    0.64709E-02   -0.28026E+00 16072   0.111E+01    0.836E-01
DAV:   2    -0.402699833726E+02   -0.13134E-01   -0.22447E-01 19364   0.282E+00    0.744E-01
DAV:   3    -0.402660727935E+02    0.39106E-02   -0.45808E-02 26312   0.722E-01    0.314E-01
DAV:   4    -0.402651969790E+02    0.87581E-03   -0.36252E-03 24704   0.285E-01    0.158E-01
DAV:   5    -0.402650556992E+02    0.14128E-03   -0.89441E-04 22316   0.124E-01    0.136E-01
DAV:   6    -0.402650322524E+02    0.23447E-04   -0.39669E-04 16228   0.869E-02
  37 F= -.40265032E+02 E0= -.40265282E+02  d E =-.266049E-01
       N       E                     dE             d eps       ncg     rms          rms(c)
DAV:   1    -0.402679460286E+02   -0.28903E-02   -0.37598E+00 16072   0.119E+01    0.938E-01
DAV:   2    -0.402805511983E+02   -0.12605E-01   -0.23940E-01 20332   0.290E+00    0.736E-01
DAV:   3    -0.402768597682E+02    0.36914E-02   -0.55948E-02 27560   0.777E-01    0.394E-01
DAV:   4    -0.402755548450E+02    0.13049E-02   -0.60367E-03 24796   0.312E-01    0.152E-01
DAV:   5    -0.402753508517E+02    0.20399E-03   -0.11953E-03 23584   0.161E-01    0.109E-01
DAV:   6    -0.402753288935E+02    0.21958E-04   -0.30292E-04 12604   0.716E-02
  38 F= -.40275329E+02 E0= -.40275585E+02  d E =-.102966E-01
       N       E                     dE             d eps       ncg     rms          rms(c)
DAV:   1    -0.402698923574E+02    0.54585E-02   -0.46168E+00 16072   0.132E+01    0.104E+00
DAV:   2    -0.402860129694E+02   -0.16121E-01   -0.30171E-01 20444   0.322E+00    0.855E-01
DAV:   3    -0.402808739138E+02    0.51391E-02   -0.72532E-02 27580   0.879E-01    0.430E-01
DAV:   4    -0.402793148056E+02    0.15591E-02   -0.71057E-03 24692   0.342E-01    0.170E-01
DAV:   5    -0.402790624802E+02    0.25233E-03   -0.15309E-03 25084   0.181E-01    0.122E-01
DAV:   6    -0.402790347109E+02    0.27769E-04   -0.42263E-04 14328   0.807E-02
  39 F= -.40279035E+02 E0= -.40279288E+02  d E =-.140025E-01
       N       E                     dE             d eps       ncg     rms          rms(c)
DAV:   1    -0.402838794368E+02   -0.48170E-02   -0.12680E+00 16072   0.592E+00    0.504E-01
DAV:   2    -0.402868448238E+02   -0.29654E-02   -0.58929E-02 19712   0.137E+00    0.367E-01
DAV:   3    -0.402861025572E+02    0.74227E-03   -0.17423E-02 28260   0.409E-01    0.243E-01
DAV:   4    -0.402856564421E+02    0.44612E-03   -0.21642E-03 21076   0.159E-01    0.782E-02
DAV:   5    -0.402856067694E+02    0.49673E-04   -0.25494E-04 15932   0.881E-02
  40 F= -.40285607E+02 E0= -.40285847E+02  d E =-.657206E-02
       N       E                     dE             d eps       ncg     rms          rms(c)
DAV:   1    -0.402810792947E+02    0.45771E-02   -0.11419E+01 16072   0.177E+01    0.156E+00
DAV:   2    -0.403104058228E+02   -0.29327E-01   -0.56424E-01 19956   0.416E+00    0.120E+00
DAV:   3    -0.403009660172E+02    0.94398E-02   -0.16552E-01 27888   0.127E+00    0.695E-01
DAV:   4    -0.402974118108E+02    0.35542E-02   -0.18981E-02 23636   0.468E-01    0.238E-01
DAV:   5    -0.402969451200E+02    0.46669E-03   -0.30938E-03 20404   0.273E-01    0.118E-01
DAV:   6    -0.402969071871E+02    0.37933E-04   -0.78603E-04 17880   0.112E-01
  41 F= -.40296907E+02 E0= -.40297117E+02  d E =-.178725E-01
       N       E                     dE             d eps       ncg     rms          rms(c)
DAV:   1    -0.403004578112E+02   -0.35127E-02   -0.16474E+00 16072   0.826E+00    0.567E-01
DAV:   2    -0.403078051021E+02   -0.73473E-02   -0.10193E-01 18160   0.200E+00    0.228E-01
DAV:   3    -0.403077216724E+02    0.83430E-04   -0.41982E-03 27372   0.314E-01    0.141E-01
DAV:   4    -0.403077822686E+02   -0.60596E-04   -0.22170E-03 21368   0.142E-01    0.173E-01
DAV:   5    -0.403075878108E+02    0.19446E-03   -0.10078E-03 16468   0.109E-01    0.609E-02
DAV:   6    -0.403075903135E+02   -0.25027E-05   -0.64560E-05 10932   0.572E-02
  42 F= -.40307590E+02 E0= -.40307778E+02  d E =-.106831E-01
       N       E                     dE             d eps       ncg     rms          rms(c)
DAV:   1    -0.402649497986E+02    0.42638E-01   -0.14868E+01 16072   0.248E+01    0.176E+00
DAV:   2    -0.403319423419E+02   -0.66993E-01   -0.93124E-01 18084   0.604E+00    0.695E-01
DAV:   3    -0.403319231588E+02    0.19183E-04   -0.48918E-02 27272   0.103E+00    0.553E-01
DAV:   4    -0.403309499093E+02    0.97325E-03   -0.22465E-02 23836   0.419E-01    0.438E-01
DAV:   5    -0.403298533298E+02    0.10966E-02   -0.44120E-03 22644   0.328E-01    0.169E-01
DAV:   6    -0.403298977454E+02   -0.44416E-04   -0.55056E-04 20552   0.125E-01
  43 F= -.40329898E+02 E0= -.40330044E+02  d E =-.329906E-01
       N       E                     dE             d eps       ncg     rms          rms(c)
DAV:   1    -0.400664532074E+02    0.26340E+00   -0.60131E+01 16072   0.496E+01    0.366E+00
DAV:   2    -0.403482096593E+02   -0.28176E+00   -0.38900E+00 18208   0.122E+01    0.152E+00
DAV:   3    -0.403541873113E+02   -0.59777E-02   -0.33518E-01 27268   0.241E+00    0.149E+00
DAV:   4    -0.403396699316E+02    0.14517E-01   -0.12054E-01 24068   0.989E-01    0.744E-01
DAV:   5    -0.403371081397E+02    0.25618E-02   -0.11333E-02 22460   0.662E-01    0.338E-01
DAV:   6    -0.403373961225E+02   -0.28798E-03   -0.21041E-03 26376   0.236E-01    0.181E-01
DAV:   7    -0.403373501639E+02    0.45959E-04   -0.81056E-04 17584   0.120E-01
  44 F= -.40337350E+02 E0= -.40337355E+02  d E =-.404430E-01
       N       E                     dE             d eps       ncg     rms          rms(c)
DAV:   1    -0.401897086635E+02    0.14769E+00   -0.16635E+01 18216   0.319E+01    0.215E+00
DAV:   2    -0.404279426666E+02   -0.23823E+00   -0.29797E+00 16972   0.778E+00    0.223E+00
DAV:   3    -0.403965248285E+02    0.31418E-01   -0.36536E-01 24312   0.190E+00    0.907E-01
DAV:   4    -0.403911109567E+02    0.54139E-02   -0.33079E-02 25436   0.764E-01    0.693E-01
DAV:   5    -0.403885377999E+02    0.25732E-02   -0.13773E-02 24788   0.518E-01    0.280E-01
DAV:   6    -0.403885782297E+02   -0.40430E-04   -0.19978E-03 22524   0.229E-01    0.112E-01
DAV:   7    -0.403885982280E+02   -0.19998E-04   -0.10788E-04 12000   0.626E-02
  45 F= -.40388598E+02 E0= -.40388817E+02  d E =-.512481E-01
       N       E                     dE             d eps       ncg     rms          rms(c)
DAV:   1    -0.403833625221E+02    0.52157E-02   -0.72548E-01 18312   0.670E+00    0.433E-01
DAV:   2    -0.403936037694E+02   -0.10241E-01   -0.12671E-01 16816   0.165E+00    0.409E-01
DAV:   3    -0.403927779644E+02    0.82581E-03   -0.13828E-02 24280   0.380E-01    0.203E-01
DAV:   4    -0.403924501451E+02    0.32782E-03   -0.19531E-03 22356   0.164E-01    0.115E-01
DAV:   5    -0.403923520858E+02    0.98059E-04   -0.47517E-04 16380   0.115E-01
  46 F= -.40392352E+02 E0= -.40392533E+02  d E =-.550019E-01
       N       E                     dE             d eps       ncg     rms          rms(c)
DAV:   1    -0.404227907318E+02   -0.30341E-01   -0.24075E+00 18368   0.106E+01    0.115E+00
DAV:   2    -0.404255827149E+02   -0.27920E-02   -0.20074E-01 20440   0.267E+00    0.734E-01
DAV:   3    -0.404222707917E+02    0.33119E-02   -0.65643E-02 26160   0.765E-01    0.615E-01
DAV:   4    -0.404184936912E+02    0.37771E-02   -0.17315E-02 25708   0.539E-01    0.217E-01
DAV:   5    -0.404184180162E+02    0.75675E-04   -0.15755E-03 23968   0.166E-01    0.202E-01
DAV:   6    -0.404183604336E+02    0.57583E-04   -0.70654E-04 21676   0.110E-01
  47 F= -.40418360E+02 E0= -.40418535E+02  d E =-.260083E-01
       N       E                     dE             d eps       ncg     rms          rms(c)
DAV:   1    -0.404268774672E+02   -0.84595E-02   -0.12711E+00 18360   0.773E+00    0.838E-01
DAV:   2    -0.404282242438E+02   -0.13468E-02   -0.10650E-01 20496   0.196E+00    0.531E-01
DAV:   3    -0.404263932282E+02    0.18310E-02   -0.34371E-02 26040   0.563E-01    0.439E-01
DAV:   4    -0.404244736828E+02    0.19195E-02   -0.85309E-03 26432   0.393E-01    0.165E-01
DAV:   5    -0.404244555036E+02    0.18179E-04   -0.67956E-04 18524   0.115E-01
  48 F= -.40424456E+02 E0= -.40424632E+02  d E =-.321034E-01
       N       E                     dE             d eps       ncg     rms          rms(c)
DAV:   1    -0.404473782931E+02   -0.22905E-01   -0.10788E+00 16080   0.696E+00    0.879E-01
DAV:   2    -0.404483800408E+02   -0.10017E-02   -0.11612E-01 21888   0.203E+00    0.681E-01
DAV:   3    -0.404447129758E+02    0.36671E-02   -0.44010E-02 24152   0.649E-01    0.360E-01
DAV:   4    -0.404430734956E+02    0.16395E-02   -0.63124E-03 27388   0.398E-01    0.181E-01
DAV:   5    -0.404430641712E+02    0.93244E-05   -0.57849E-04 17148   0.101E-01
  49 F= -.40443064E+02 E0= -.40443226E+02  d E =-.186087E-01
       N       E                     dE             d eps       ncg     rms          rms(c)
DAV:   1    -0.405213755367E+02   -0.78302E-01   -0.98182E+00 16072   0.210E+01    0.276E+00
DAV:   2    -0.405270051352E+02   -0.56296E-02   -0.10086E+00 21824   0.613E+00    0.190E+00
DAV:   3    -0.404975092127E+02    0.29496E-01   -0.38321E-01 24040   0.200E+00    0.111E+00
DAV:   4    -0.404824095769E+02    0.15100E-01   -0.60234E-02 27712   0.122E+00    0.533E-01
DAV:   5    -0.404822135574E+02    0.19602E-03   -0.54964E-03 27224   0.311E-01    0.488E-01
DAV:   6    -0.404821079127E+02    0.10564E-03   -0.36445E-03 31064   0.263E-01    0.567E-02
DAV:   7    -0.404821065564E+02    0.13563E-05   -0.22444E-04 13140   0.836E-02
  50 F= -.40482107E+02 E0= -.40482224E+02  d E =-.576511E-01
       N       E                     dE             d eps       ncg     rms          rms(c)
DAV:   1    -0.406295720265E+02   -0.14746E+00   -0.40069E+01 16072   0.426E+01    0.609E+00
DAV:   2    -0.406397805754E+02   -0.10209E-01   -0.40067E+00 22216   0.125E+01    0.359E+00
DAV:   3    -0.405218053102E+02    0.11798E+00   -0.13810E+00 24080   0.425E+00    0.216E+00
DAV:   4    -0.404665183125E+02    0.55287E-01   -0.22932E-01 27932   0.252E+00    0.104E+00
DAV:   5    -0.404655975107E+02    0.92080E-03   -0.20869E-02 27288   0.634E-01    0.908E-01
DAV:   6    -0.404658719757E+02   -0.27447E-03   -0.11547E-02 30824   0.488E-01    0.127E-01
DAV:   7    -0.404658608867E+02    0.11089E-04   -0.10392E-03 21844   0.166E-01    0.689E-02
DAV:   8    -0.404658755961E+02   -0.14709E-04   -0.96992E-05 11384   0.559E-02
  51 F= -.40465876E+02 E0= -.40466086E+02  d E =-.414201E-01
       N       E                     dE             d eps       ncg     rms          rms(c)
DAV:   1    -0.405647230171E+02   -0.98862E-01   -0.14894E+01 16072   0.261E+01    0.344E+00
DAV:   2    -0.405997338164E+02   -0.35011E-01   -0.20594E+00 22712   0.825E+00    0.351E+00
DAV:   3    -0.405146176243E+02    0.85116E-01   -0.71684E-01 24728   0.277E+00    0.131E+00
DAV:   4    -0.404920091072E+02    0.22609E-01   -0.61635E-02 26016   0.143E+00    0.888E-01
DAV:   5    -0.404923739749E+02   -0.36487E-03   -0.69876E-03 26656   0.366E-01    0.792E-01
DAV:   6    -0.404916097389E+02    0.76424E-03   -0.64342E-03 30960   0.367E-01    0.120E-01
DAV:   7    -0.404915811980E+02    0.28541E-04   -0.53926E-04 17396   0.101E-01
  52 F= -.40491581E+02 E0= -.40491722E+02  d E =-.671257E-01
       N       E                     dE             d eps       ncg     rms          rms(c)
DAV:   1    -0.405032941482E+02   -0.11684E-01   -0.16362E+00 16072   0.959E+00    0.578E-01
DAV:   2    -0.405135193028E+02   -0.10225E-01   -0.15066E-01 17756   0.231E+00    0.315E-01
DAV:   3    -0.405131183054E+02    0.40100E-03   -0.81449E-03 26720   0.438E-01    0.230E-01
DAV:   4    -0.405127698677E+02    0.34844E-03   -0.29819E-03 23024   0.211E-01    0.135E-01
DAV:   5    -0.405126089601E+02    0.16091E-03   -0.75369E-04 20652   0.152E-01    0.367E-02
DAV:   6    -0.405126105085E+02   -0.15483E-05   -0.49683E-05 10804   0.486E-02
  53 F= -.40512611E+02 E0= -.40512775E+02  d E =-.210293E-01
       N       E                     dE             d eps       ncg     rms          rms(c)
DAV:   1    -0.404709559722E+02    0.41653E-01   -0.14748E+01 16360   0.287E+01    0.175E+00
DAV:   2    -0.405601031377E+02   -0.89147E-01   -0.13172E+00 17908   0.687E+00    0.904E-01
DAV:   3    -0.405556515663E+02    0.44516E-02   -0.49907E-02 27660   0.121E+00    0.568E-01
DAV:   4    -0.405542626414E+02    0.13889E-02   -0.20887E-02 26560   0.610E-01    0.415E-01
DAV:   5    -0.405527305640E+02    0.15321E-02   -0.86852E-03 24212   0.414E-01    0.119E-01
DAV:   6    -0.405527403777E+02   -0.98137E-05   -0.44642E-04 18120   0.130E-01
  54 F= -.40552740E+02 E0= -.40552906E+02  d E =-.611592E-01
       N       E                     dE             d eps       ncg     rms          rms(c)
DAV:   1    -0.401884028307E+02    0.36433E+00   -0.59511E+01 17144   0.574E+01    0.382E+00
DAV:   2    -0.405273520849E+02   -0.33895E+00   -0.50514E+00 18004   0.136E+01    0.184E+00
DAV:   3    -0.405071911321E+02    0.20161E-01   -0.17045E-01 27460   0.235E+00    0.101E+00
DAV:   4    -0.404991277962E+02    0.80633E-02   -0.24264E-02 22856   0.999E-01    0.345E-01
DAV:   5    -0.404990475209E+02    0.80275E-04   -0.29216E-03 21200   0.337E-01    0.138E-01
DAV:   6    -0.404990868198E+02   -0.39299E-04   -0.80048E-04 19076   0.135E-01
  55 F= -.40499087E+02 E0= -.40499145E+02  d E =-.750562E-02
       N       E                     dE             d eps       ncg     rms          rms(c)
DAV:   1    -0.403682750848E+02    0.13077E+00   -0.37884E+01 18360   0.458E+01    0.305E+00
DAV:   2    -0.405756074352E+02   -0.20733E+00   -0.32002E+00 17880   0.106E+01    0.149E+00
DAV:   3    -0.405630101481E+02    0.12597E-01   -0.10271E-01 26928   0.177E+00    0.841E-01
DAV:   4    -0.405579279547E+02    0.50822E-02   -0.15583E-02 22188   0.754E-01    0.265E-01
DAV:   5    -0.405580402028E+02   -0.11225E-03   -0.57417E-03 24976   0.373E-01    0.211E-01
DAV:   6    -0.405577983652E+02    0.24184E-03   -0.16462E-03 20436   0.157E-01    0.731E-02
DAV:   7    -0.405578094625E+02   -0.11097E-04   -0.84203E-05 11352   0.696E-02
  56 F= -.40557809E+02 E0= -.40557924E+02  d E =-.662283E-01
       N       E                     dE             d eps       ncg     rms          rms(c)
DAV:   1    -0.405886223326E+02   -0.30824E-01   -0.94853E-01 16072   0.671E+00    0.103E+00
DAV:   2    -0.405925417327E+02   -0.39194E-02   -0.21620E-01 23232   0.244E+00    0.968E-01
DAV:   3    -0.405829037640E+02    0.96380E-02   -0.64395E-02 24120   0.922E-01    0.287E-01
DAV:   4    -0.405816817305E+02    0.12220E-02   -0.38426E-03 24984   0.363E-01    0.232E-01
DAV:   5    -0.405817162906E+02   -0.34560E-04   -0.42672E-04 20700   0.834E-02
  57 F= -.40581716E+02 E0= -.40581763E+02  d E =-.239068E-01
       N       E                     dE             d eps       ncg     rms          rms(c)
DAV:   1    -0.406756068147E+02   -0.93925E-01   -0.85096E+00 16072   0.200E+01    0.295E+00
DAV:   2    -0.407197584969E+02   -0.44152E-01   -0.21604E+00 23624   0.734E+00    0.335E+00
DAV:   3    -0.406207141673E+02    0.99044E-01   -0.57735E-01 23952   0.275E+00    0.884E-01
DAV:   4    -0.406094933181E+02    0.11221E-01   -0.31407E-02 22620   0.102E+00    0.732E-01
DAV:   5    -0.406095891596E+02   -0.95841E-04   -0.55069E-03 30216   0.287E-01    0.629E-01
DAV:   6    -0.406095603774E+02    0.28782E-04   -0.22988E-03 29824   0.217E-01    0.127E-01
DAV:   7    -0.406094125300E+02    0.14785E-03   -0.98500E-04 26200   0.170E-01    0.600E-02
DAV:   8    -0.406094166187E+02   -0.40887E-05   -0.93545E-05 11552   0.465E-02
  58 F= -.40609417E+02 E0= -.40609323E+02  d E =-.516072E-01
       N       E                     dE             d eps       ncg     rms          rms(c)
DAV:   1    -0.406265372405E+02   -0.17125E-01   -0.13290E+00 16072   0.710E+00    0.611E-01
DAV:   2    -0.406275683258E+02   -0.10311E-02   -0.73911E-02 20784   0.177E+00    0.381E-01
DAV:   3    -0.406266938821E+02    0.87444E-03   -0.13093E-02 28684   0.486E-01    0.281E-01
DAV:   4    -0.406258138595E+02    0.88002E-03   -0.38216E-03 23364   0.244E-01    0.867E-02
DAV:   5    -0.406257645702E+02    0.49289E-04   -0.32168E-04 16508   0.103E-01
  59 F= -.40625765E+02 E0= -.40625648E+02  d E =-.163480E-01
       N       E                     dE             d eps       ncg     rms          rms(c)
DAV:   1    -0.406440360405E+02   -0.18222E-01   -0.66527E+00 16072   0.159E+01    0.138E+00
DAV:   2    -0.406488101583E+02   -0.47741E-02   -0.36438E-01 20704   0.394E+00    0.826E-01
DAV:   3    -0.406446679339E+02    0.41422E-02   -0.58987E-02 28548   0.106E+00    0.606E-01
DAV:   4    -0.406406405530E+02    0.40274E-02   -0.19773E-02 23740   0.542E-01    0.208E-01
DAV:   5    -0.406403915672E+02    0.24899E-03   -0.16836E-03 20040   0.232E-01    0.124E-01
DAV:   6    -0.406404107801E+02   -0.19213E-04   -0.10263E-04 11676   0.737E-02
  60 F= -.40640411E+02 E0= -.40640235E+02  d E =-.309942E-01
