       N       E                     dE             d eps       ncg     rms          rms(c)
DAV:   1     0.169608850990E+03    0.16961E+03   -0.12834E+04 17808   0.744E+02
DAV:   2    -0.321744095755E+02   -0.20178E+03   -0.19738E+03 22288   0.292E+02
DAV:   3    -0.457958825482E+02   -0.13621E+02   -0.13544E+02 29352   0.578E+01
DAV:   4    -0.465241447760E+02   -0.72826E+00   -0.72618E+00 27724   0.110E+01
DAV:   5    -0.465391480617E+02   -0.15003E-01   -0.14999E-01 28744   0.163E+00    0.389E+01
DAV:   6    -0.433842242181E+02    0.31549E+01   -0.19007E+01 27616   0.201E+01    0.162E+01
DAV:   7    -0.426830649354E+02    0.70116E+00   -0.41836E+00 27636   0.104E+01    0.118E+01
DAV:   8    -0.425743829537E+02    0.10868E+00   -0.95927E-01 23800   0.500E+00    0.211E+00
DAV:   9    -0.425605582545E+02    0.13825E-01   -0.13977E-01 31912   0.177E+00    0.151E+00
DAV:  10    -0.425545794382E+02    0.59788E-02   -0.64955E-02 24824   0.143E+00    0.664E-01
DAV:  11    -0.425512564359E+02    0.33230E-02   -0.21948E-02 25128   0.758E-01    0.162E-01
DAV:  12    -0.425513096576E+02   -0.53222E-04   -0.11668E-03 20424   0.194E-01    0.140E-01
DAV:  13    -0.425514300762E+02   -0.12042E-03   -0.67923E-04 21040   0.145E-01    0.753E-02
DAV:  14    -0.425514274270E+02    0.26492E-05   -0.14028E-04 14776   0.816E-02
   1 F= -.42551427E+02 E0= -.42551508E+02  d E =-.425514E+02
       N       E                     dE             d eps       ncg     rms          rms(c)
DAV:   1    -0.425574995474E+02   -0.60695E-02   -0.22504E+00 20096   0.121E+01    0.152E+00
DAV:   2    -0.425683416091E+02   -0.10842E-01   -0.33307E-01 20780   0.345E+00    0.534E-01
DAV:   3    -0.425644307420E+02    0.39109E-02   -0.23383E-02 29328   0.848E-01    0.376E-01
DAV:   4    -0.425635320826E+02    0.89866E-03   -0.42125E-03 30928   0.410E-01    0.320E-01
DAV:   5    -0.425636402435E+02   -0.10816E-03   -0.25844E-04 18232   0.872E-02    0.229E-01
DAV:   6    -0.425637478823E+02   -0.10764E-03   -0.93610E-04 30868   0.145E-01    0.535E-02
DAV:   7    -0.425637441052E+02    0.37770E-05   -0.33372E-05 12196   0.343E-02
   2 F= -.42563744E+02 E0= -.42563790E+02  d E =-.123167E-01
       N       E                     dE             d eps       ncg     rms          rms(c)
DAV:   1    -0.425637630983E+02   -0.15216E-04   -0.37412E-03 20944   0.492E-01    0.587E-02
DAV:   2    -0.425637850419E+02   -0.21944E-04   -0.55827E-04 18892   0.139E-01
   3 F= -.42563785E+02 E0= -.42563840E+02  d E =-.123576E-01
       N       E                     dE             d eps       ncg     rms          rms(c)
DAV:   1    -0.425765562040E+02   -0.12793E-01   -0.10277E+00 17584   0.699E+00    0.942E-01
DAV:   2    -0.425757888512E+02    0.76735E-03   -0.10144E-01 24048   0.218E+00    0.412E-01
DAV:   3    -0.425737459914E+02    0.20429E-02   -0.95896E-03 25836   0.564E-01    0.251E-01
DAV:   4    -0.425731511481E+02    0.59484E-03   -0.22497E-03 31320   0.293E-01    0.220E-01
DAV:   5    -0.425731872981E+02   -0.36150E-04   -0.92447E-05 13272   0.543E-02
   4 F= -.42573187E+02 E0= -.42573208E+02  d E =-.940226E-02
       N       E                     dE             d eps       ncg     rms          rms(c)
DAV:   1    -0.425802573939E+02   -0.71062E-02   -0.14408E+00 17584   0.830E+00    0.115E+00
DAV:   2    -0.425786171091E+02    0.16403E-02   -0.14484E-01 24112   0.261E+00    0.502E-01
DAV:   3    -0.425755474767E+02    0.30696E-02   -0.14377E-02 25772   0.687E-01    0.309E-01
DAV:   4    -0.425747439246E+02    0.80355E-03   -0.34841E-03 31496   0.361E-01    0.275E-01
DAV:   5    -0.425748081047E+02   -0.64180E-04   -0.15122E-04 16316   0.655E-02
   5 F= -.42574808E+02 E0= -.42574792E+02  d E =-.110231E-01
       N       E                     dE             d eps       ncg     rms          rms(c)
DAV:   1    -0.425748683191E+02   -0.12439E-03   -0.68314E-01 19456   0.619E+00    0.423E-01
DAV:   2    -0.425788256681E+02   -0.39573E-02   -0.61501E-02 19892   0.145E+00    0.248E-01
DAV:   3    -0.425784840301E+02    0.34164E-03   -0.15884E-03 28132   0.232E-01    0.143E-01
DAV:   4    -0.425782994581E+02    0.18457E-03   -0.46497E-04 22600   0.149E-01    0.390E-02
DAV:   5    -0.425782996752E+02   -0.21709E-06   -0.77329E-05 12492   0.585E-02
   6 F= -.42578300E+02 E0= -.42578318E+02  d E =-.349157E-02
       N       E                     dE             d eps       ncg     rms          rms(c)
DAV:   1    -0.425782430961E+02    0.56362E-04   -0.36133E-02 19280   0.142E+00    0.965E-02
DAV:   2    -0.425784577794E+02   -0.21468E-03   -0.33229E-03 20052   0.337E-01    0.592E-02
DAV:   3    -0.425784391228E+02    0.18657E-04   -0.70153E-05 16052   0.543E-02
   7 F= -.42578439E+02 E0= -.42578462E+02  d E =-.363102E-02
       N       E                     dE             d eps       ncg     rms          rms(c)
DAV:   1    -0.425946279169E+02   -0.16170E-01   -0.65776E-01 17596   0.517E+00    0.105E+00
DAV:   2    -0.425882918905E+02    0.63360E-02   -0.83955E-02 25612   0.205E+00    0.440E-01
DAV:   3    -0.425850400918E+02    0.32518E-02   -0.13121E-02 25964   0.636E-01    0.262E-01
DAV:   4    -0.425842756655E+02    0.76443E-03   -0.25118E-03 30740   0.295E-01    0.295E-01
DAV:   5    -0.425843342354E+02   -0.58570E-04   -0.11389E-04 15360   0.508E-02
   8 F= -.42584334E+02 E0= -.42584361E+02  d E =-.589511E-02
       N       E                     dE             d eps       ncg     rms          rms(c)
DAV:   1    -0.426725455539E+02   -0.88270E-01   -0.58438E+00 17584   0.154E+01    0.306E+00
DAV:   2    -0.426238342811E+02    0.48711E-01   -0.82876E-01 26128   0.622E+00    0.156E+00
DAV:   3    -0.425861956773E+02    0.37639E-01   -0.15196E-01 26056   0.209E+00    0.847E-01
DAV:   4    -0.425780145400E+02    0.81811E-02   -0.24651E-02 30624   0.940E-01    0.900E-01
DAV:   5    -0.425785358989E+02   -0.52136E-03   -0.13899E-03 25296   0.157E-01    0.666E-01
DAV:   6    -0.425782732778E+02    0.26262E-03   -0.84843E-03 31748   0.421E-01    0.242E-01
DAV:   7    -0.425782543195E+02    0.18958E-04   -0.46023E-04 21712   0.116E-01
   9 F= -.42578254E+02 E0= -.42578275E+02  d E =0.184803E-03
       N       E                     dE             d eps       ncg     rms          rms(c)
DAV:   1    -0.426141644812E+02   -0.35891E-01   -0.18199E+00 17584   0.855E+00    0.176E+00
DAV:   2    -0.425976672649E+02    0.16497E-01   -0.22687E-01 25436   0.338E+00    0.765E-01
DAV:   3    -0.425877633086E+02    0.99040E-02   -0.39251E-02 26032   0.108E+00    0.390E-01
DAV:   4    -0.425856134212E+02    0.21499E-02   -0.79923E-03 30336   0.524E-01    0.456E-01
DAV:   5    -0.425857789430E+02   -0.16552E-03   -0.43530E-04 21068   0.891E-02    0.358E-01
DAV:   6    -0.425859300052E+02   -0.15106E-03   -0.12947E-03 31476   0.163E-01    0.663E-02
DAV:   7    -0.425859321624E+02   -0.21573E-05   -0.73710E-05 12560   0.523E-02
  10 F= -.42585932E+02 E0= -.42585966E+02  d E =-.749304E-02
       N       E                     dE             d eps       ncg     rms          rms(c)
DAV:   1    -0.426033126430E+02   -0.17383E-01   -0.11013E+00 17584   0.785E+00    0.152E+00
DAV:   2    -0.425958382255E+02    0.74744E-02   -0.16451E-01 23892   0.271E+00    0.559E-01
DAV:   3    -0.425902754429E+02    0.55628E-02   -0.23760E-02 25580   0.890E-01    0.435E-01
DAV:   4    -0.425884561809E+02    0.18193E-02   -0.69645E-03 30900   0.504E-01    0.417E-01
DAV:   5    -0.425885942364E+02   -0.13806E-03   -0.36977E-04 19832   0.997E-02    0.323E-01
DAV:   6    -0.425887018692E+02   -0.10763E-03   -0.66528E-04 29580   0.122E-01    0.647E-02
DAV:   7    -0.425886947002E+02    0.71690E-05   -0.56346E-05 12040   0.497E-02
  11 F= -.42588695E+02 E0= -.42588698E+02  d E =-.276254E-02
       N       E                     dE             d eps       ncg     rms          rms(c)
DAV:   1    -0.425911169662E+02   -0.24151E-02   -0.11427E-01 17592   0.253E+00    0.475E-01
DAV:   2    -0.425904147823E+02    0.70218E-03   -0.17575E-02 24352   0.879E-01    0.173E-01
DAV:   3    -0.425898495524E+02    0.56523E-03   -0.24421E-03 25860   0.286E-01    0.144E-01
DAV:   4    -0.425896531025E+02    0.19645E-03   -0.57856E-04 24472   0.149E-01    0.137E-01
DAV:   5    -0.425896646805E+02   -0.11578E-04   -0.40869E-05  9776   0.360E-02
  12 F= -.42589665E+02 E0= -.42589677E+02  d E =-.373252E-02
       N       E                     dE             d eps       ncg     rms          rms(c)
DAV:   1    -0.425888311816E+02    0.82192E-03   -0.43880E-01 20096   0.491E+00    0.352E-01
DAV:   2    -0.425914400655E+02   -0.26089E-02   -0.39138E-02 20068   0.119E+00    0.182E-01
DAV:   3    -0.425912055573E+02    0.23451E-03   -0.10385E-03 28496   0.188E-01    0.105E-01
DAV:   4    -0.425911126739E+02    0.92883E-04   -0.28156E-04 17512   0.116E-01
  13 F= -.42591113E+02 E0= -.42591077E+02  d E =-.144799E-02
       N       E                     dE             d eps       ncg     rms          rms(c)
DAV:   1    -0.425911148573E+02    0.90700E-04   -0.10467E-03 22004   0.225E-01    0.260E-02
DAV:   2    -0.425911218369E+02   -0.69796E-05   -0.79099E-05 10668   0.570E-02
  14 F= -.42591122E+02 E0= -.42591098E+02  d E =-.145716E-02
       N       E                     dE             d eps       ncg     rms          rms(c)
DAV:   1    -0.425916527414E+02   -0.53788E-03   -0.28819E-01 18224   0.406E+00    0.345E-01
DAV:   2    -0.425931802229E+02   -0.15275E-02   -0.28750E-02 19824   0.105E+00    0.144E-01
DAV:   3    -0.425930061696E+02    0.17405E-03   -0.14046E-03 26996   0.211E-01    0.953E-02
DAV:   4    -0.425929382983E+02    0.67871E-04   -0.17796E-04 13924   0.101E-01
  15 F= -.42592938E+02 E0= -.42592888E+02  d E =-.181646E-02
       N       E                     dE             d eps       ncg     rms          rms(c)
DAV:   1    -0.425917876910E+02    0.12185E-02   -0.35633E-01 18208   0.453E+00    0.380E-01
DAV:   2    -0.425935776905E+02   -0.17900E-02   -0.35351E-02 19896   0.116E+00    0.165E-01
DAV:   3    -0.425933507735E+02    0.22692E-03   -0.18183E-03 27860   0.236E-01    0.123E-01
DAV:   4    -0.425932719082E+02    0.78865E-04   -0.24372E-04 15800   0.114E-01
  16 F= -.42593272E+02 E0= -.42593182E+02  d E =-.215007E-02
       N       E                     dE             d eps       ncg     rms          rms(c)
DAV:   1    -0.425941865095E+02   -0.83574E-03   -0.76812E-02 17592   0.175E+00    0.184E-01
DAV:   2    -0.425941878065E+02   -0.12969E-05   -0.40760E-03 23632   0.449E-01    0.856E-02
DAV:   3    -0.425941096639E+02    0.78143E-04   -0.40010E-04 21532   0.114E-01
  17 F= -.42594110E+02 E0= -.42593992E+02  d E =-.837756E-03
       N       E                     dE             d eps       ncg     rms          rms(c)
DAV:   1    -0.425949168523E+02   -0.72905E-03   -0.69189E-01 17584   0.524E+00    0.503E-01
DAV:   2    -0.425953623759E+02   -0.44552E-03   -0.36942E-02 23728   0.137E+00    0.245E-01
DAV:   3    -0.425947154977E+02    0.64688E-03   -0.35386E-03 29988   0.333E-01    0.154E-01
DAV:   4    -0.425944967669E+02    0.21873E-03   -0.65282E-04 22896   0.163E-01    0.117E-01
DAV:   5    -0.425944913498E+02    0.54171E-05   -0.80533E-05 12480   0.552E-02
  18 F= -.42594491E+02 E0= -.42594333E+02  d E =-.121944E-02
       N       E                     dE             d eps       ncg     rms          rms(c)
DAV:   1    -0.425963584453E+02   -0.18617E-02   -0.15841E-01 19992   0.312E+00    0.381E-01
DAV:   2    -0.425969639800E+02   -0.60553E-03   -0.21679E-02 20832   0.879E-01    0.168E-01
DAV:   3    -0.425966465202E+02    0.31746E-03   -0.16574E-03 28732   0.226E-01    0.104E-01
DAV:   4    -0.425965315217E+02    0.11500E-03   -0.30910E-04 16280   0.126E-01    0.779E-02
DAV:   5    -0.425965395286E+02   -0.80070E-05   -0.62974E-05 11140   0.666E-02
  19 F= -.42596540E+02 E0= -.42596398E+02  d E =-.204818E-02
       N       E                     dE             d eps       ncg     rms          rms(c)
DAV:   1    -0.425966083408E+02   -0.76819E-04   -0.68486E-02 20000   0.207E+00    0.254E-01
DAV:   2    -0.425968449866E+02   -0.23665E-03   -0.96327E-03 21452   0.588E-01    0.106E-01
DAV:   3    -0.425967021245E+02    0.14286E-03   -0.76441E-04 26968   0.155E-01    0.746E-02
DAV:   4    -0.425966618717E+02    0.40253E-04   -0.12119E-04 12152   0.823E-02
  20 F= -.42596662E+02 E0= -.42596532E+02  d E =-.217052E-02
       N       E                     dE             d eps       ncg     rms          rms(c)
DAV:   1    -0.425985187026E+02   -0.18166E-02   -0.86739E-02 17584   0.207E+00    0.332E-01
DAV:   2    -0.425980853264E+02    0.43338E-03   -0.10077E-02 23968   0.676E-01    0.133E-01
DAV:   3    -0.425977683189E+02    0.31701E-03   -0.13871E-03 25092   0.211E-01    0.939E-02
DAV:   4    -0.425976833939E+02    0.84925E-04   -0.33909E-04 20408   0.114E-01
  21 F= -.42597683E+02 E0= -.42597564E+02  d E =-.102152E-02
       N       E                     dE             d eps       ncg     rms          rms(c)
DAV:   1    -0.425990943698E+02   -0.13261E-02   -0.11868E-01 17584   0.243E+00    0.390E-01
DAV:   2    -0.425984543103E+02    0.64006E-03   -0.14093E-02 24024   0.804E-01    0.159E-01
DAV:   3    -0.425979968112E+02    0.45750E-03   -0.19448E-03 25216   0.250E-01    0.116E-01
DAV:   4    -0.425978826139E+02    0.11420E-03   -0.53603E-04 23964   0.135E-01    0.121E-01
DAV:   5    -0.425978950064E+02   -0.12392E-04   -0.34142E-05 11132   0.337E-02
  22 F= -.42597895E+02 E0= -.42597784E+02  d E =-.123313E-02
       N       E                     dE             d eps       ncg     rms          rms(c)
DAV:   1    -0.425986707865E+02   -0.78817E-03   -0.55639E-02 20096   0.182E+00    0.133E-01
DAV:   2    -0.425991150617E+02   -0.44428E-03   -0.64701E-03 19128   0.430E-01    0.830E-02
DAV:   3    -0.425990807580E+02    0.34304E-04   -0.13202E-04 19780   0.702E-02
  23 F= -.42599081E+02 E0= -.42598951E+02  d E =-.118575E-02
       N       E                     dE             d eps       ncg     rms          rms(c)
DAV:   1    -0.425979773157E+02    0.11377E-02   -0.22273E-01 20096   0.364E+00    0.271E-01
DAV:   2    -0.425996922760E+02   -0.17150E-02   -0.25659E-02 19076   0.851E-01    0.165E-01
DAV:   3    -0.425995461747E+02    0.14610E-03   -0.60672E-04 26836   0.138E-01    0.876E-02
DAV:   4    -0.425994798965E+02    0.66278E-04   -0.18687E-04 14780   0.939E-02
  24 F= -.42599480E+02 E0= -.42599311E+02  d E =-.158489E-02
       N       E                     dE             d eps       ncg     rms          rms(c)
DAV:   1    -0.425990860952E+02    0.46008E-03   -0.15544E-01 20096   0.312E+00    0.211E-01
DAV:   2    -0.426009117939E+02   -0.18257E-02   -0.23466E-02 18232   0.787E-01    0.935E-02
DAV:   3    -0.426008543437E+02    0.57450E-04   -0.64484E-04 25256   0.140E-01
  25 F= -.42600854E+02 E0= -.42600693E+02  d E =-.137445E-02
       N       E                     dE             d eps       ncg     rms          rms(c)
DAV:   1    -0.426007713938E+02    0.14040E-03   -0.68867E-03 20324   0.649E-01    0.581E-02
DAV:   2    -0.426008329312E+02   -0.61537E-04   -0.96550E-04 19952   0.163E-01
  26 F= -.42600833E+02 E0= -.42600676E+02  d E =-.135303E-02
