       N       E                     dE             d eps       ncg     rms          rms(c)
DAV:   1     0.106366085336E+03    0.10637E+03   -0.12857E+04 17104   0.601E+02
DAV:   2    -0.764755015667E+02   -0.18284E+03   -0.17642E+03 20888   0.222E+02
DAV:   3    -0.874532912939E+02   -0.10978E+02   -0.10891E+02 24984   0.456E+01
DAV:   4    -0.878806399336E+02   -0.42735E+00   -0.42595E+00 26584   0.804E+00
DAV:   5    -0.878856386626E+02   -0.49987E-02   -0.49979E-02 22896   0.747E-01    0.344E+01
DAV:   6    -0.847120757269E+02    0.31736E+01   -0.42424E+00 24744   0.122E+01    0.151E+01
DAV:   7    -0.836869705225E+02    0.10251E+01   -0.17553E+00 25232   0.568E+00    0.750E+00
DAV:   8    -0.836182651386E+02    0.68705E-01   -0.42270E-01 23884   0.331E+00    0.208E+00
DAV:   9    -0.836215749808E+02   -0.33098E-02   -0.30598E-02 20184   0.872E-01    0.717E-01
DAV:  10    -0.836234965220E+02   -0.19215E-02   -0.55429E-03 23136   0.331E-01    0.129E-01
DAV:  11    -0.836237858717E+02   -0.28935E-03   -0.36121E-04 19224   0.105E-01    0.630E-02
DAV:  12    -0.836239115838E+02   -0.12571E-03   -0.14816E-04 18056   0.590E-02    0.331E-02
DAV:  13    -0.836239131359E+02   -0.15521E-05   -0.85944E-06 10772   0.198E-02
   1 F= -.83623913E+02 E0= -.83624194E+02  d E =-.836239E+02
       N       E                     dE             d eps       ncg     rms          rms(c)
DAV:   1    -0.836267835643E+02   -0.28720E-02   -0.70968E-02 17124   0.154E+00    0.242E-01
DAV:   2    -0.836265729346E+02    0.21063E-03   -0.51381E-03 23040   0.405E-01    0.103E-01
DAV:   3    -0.836264249075E+02    0.14803E-03   -0.31454E-04 19932   0.957E-02    0.553E-02
DAV:   4    -0.836263767799E+02    0.48128E-04   -0.14100E-04 14688   0.700E-02
   2 F= -.83626377E+02 E0= -.83626653E+02  d E =-.246364E-02
       N       E                     dE             d eps       ncg     rms          rms(c)
DAV:   1    -0.836266368640E+02   -0.21196E-03   -0.11133E-02 17032   0.618E-01    0.973E-02
DAV:   2    -0.836266038412E+02    0.33023E-04   -0.80094E-04 23160   0.160E-01
   3 F= -.83626604E+02 E0= -.83626880E+02  d E =-.269071E-02
       N       E                     dE             d eps       ncg     rms          rms(c)
DAV:   1    -0.836279403883E+02   -0.13035E-02   -0.11076E-02 16660   0.540E-01    0.968E-02
DAV:   2    -0.836278405370E+02    0.99851E-04   -0.44627E-04 23144   0.132E-01
   4 F= -.83627841E+02 E0= -.83628114E+02  d E =-.123670E-02
       N       E                     dE             d eps       ncg     rms          rms(c)
DAV:   1    -0.836313225939E+02   -0.33822E-02   -0.99936E-02 16304   0.162E+00    0.256E-01
DAV:   2    -0.836306826305E+02    0.63996E-03   -0.37816E-03 23424   0.380E-01    0.129E-01
DAV:   3    -0.836304265669E+02    0.25606E-03   -0.41124E-04 21096   0.109E-01    0.656E-02
DAV:   4    -0.836303768704E+02    0.49697E-04   -0.18719E-04 13784   0.792E-02
   5 F= -.83630377E+02 E0= -.83630639E+02  d E =-.377303E-02
       N       E                     dE             d eps       ncg     rms          rms(c)
DAV:   1    -0.836311288885E+02   -0.70232E-03   -0.56303E-03 17044   0.441E-01    0.558E-02
DAV:   2    -0.836311616936E+02   -0.32805E-04   -0.49204E-04 19800   0.111E-01
   6 F= -.83631162E+02 E0= -.83631422E+02  d E =-.784823E-03
       N       E                     dE             d eps       ncg     rms          rms(c)
DAV:   1    -0.836316566504E+02   -0.52776E-03   -0.21440E-02 16676   0.859E-01    0.972E-02
DAV:   2    -0.836317586788E+02   -0.10203E-03   -0.17527E-03 21200   0.205E-01    0.567E-02
DAV:   3    -0.836317366984E+02    0.21980E-04   -0.43590E-05 11032   0.389E-02
   7 F= -.83631737E+02 E0= -.83631995E+02  d E =-.135983E-02
       N       E                     dE             d eps       ncg     rms          rms(c)
DAV:   1    -0.836323821646E+02   -0.62349E-03   -0.77812E-03 18244   0.533E-01    0.392E-02
DAV:   2    -0.836324212372E+02   -0.39073E-04   -0.56027E-04 20104   0.112E-01
   8 F= -.83632421E+02 E0= -.83632681E+02  d E =-.684539E-03
       N       E                     dE             d eps       ncg     rms          rms(c)
DAV:   1    -0.836330875797E+02   -0.70542E-03   -0.70202E-02 18104   0.160E+00    0.124E-01
DAV:   2    -0.836334141915E+02   -0.32661E-03   -0.50091E-03 20456   0.335E-01    0.846E-02
DAV:   3    -0.836333642672E+02    0.49924E-04   -0.10841E-04 15728   0.601E-02
   9 F= -.83633364E+02 E0= -.83633626E+02  d E =-.162757E-02
       N       E                     dE             d eps       ncg     rms          rms(c)
DAV:   1    -0.836338516661E+02   -0.43747E-03   -0.31390E-03 17584   0.300E-01    0.260E-02
DAV:   2    -0.836338559597E+02   -0.42937E-05   -0.12811E-04 12556   0.608E-02
  10 F= -.83633856E+02 E0= -.83634117E+02  d E =-.491693E-03
       N       E                     dE             d eps       ncg     rms          rms(c)
DAV:   1    -0.836352000000E+02   -0.13483E-02   -0.28898E-02 18100   0.916E-01    0.811E-02
DAV:   2    -0.836352063203E+02   -0.63203E-05   -0.10342E-03 21992   0.171E-01    0.541E-02
DAV:   3    -0.836351778703E+02    0.28450E-04   -0.45991E-05 10652   0.397E-02
  11 F= -.83635178E+02 E0= -.83635437E+02  d E =-.181360E-02
       N       E                     dE             d eps       ncg     rms          rms(c)
DAV:   1    -0.836355100902E+02   -0.30377E-03   -0.22680E-03 19116   0.303E-01    0.249E-02
DAV:   2    -0.836355274651E+02   -0.17375E-04   -0.22398E-04 15380   0.704E-02
  12 F= -.83635527E+02 E0= -.83635784E+02  d E =-.349595E-03
       N       E                     dE             d eps       ncg     rms          rms(c)
DAV:   1    -0.836357939763E+02   -0.28389E-03   -0.12265E-02 18284   0.702E-01    0.615E-02
DAV:   2    -0.836358772181E+02   -0.83242E-04   -0.12174E-03 21152   0.162E-01    0.372E-02
DAV:   3    -0.836358639982E+02    0.13220E-04   -0.22476E-05 10428   0.298E-02
  13 F= -.83635864E+02 E0= -.83636117E+02  d E =-.686128E-03
