   23   23   99    2
  0.7455799E+01  0.3354529E-09  0.6328364E-09  0.8327781E-09  0.5000000E-15
  1.000000000000000E-004
  CAR 
 unknown system                          
     82     43     64
 
  0.3742002E-15  0.3742002E-15  0.3742002E-15  0.1190476E-01
    1      -31.337238    -31.337270   1.000000   1.000000
    2      -27.763191    -27.763204   1.000000   1.000000
    3      -27.687245    -27.687252   1.000000   1.000000
    4      -27.653418    -27.653425   1.000000   1.000000
    5      -27.600285    -27.600288   1.000000   1.000000
    6      -27.495093    -27.495111   1.000000   1.000000
    7      -27.426615    -27.426639   1.000000   1.000000
    8      -27.386549    -27.386563   1.000000   1.000000
    9      -27.349247    -27.349268   1.000000   1.000000
   10      -27.328785    -27.328785   1.000000   1.000000
   11      -27.272285    -27.272304   1.000000   1.000000
   12      -27.216528    -27.216545   1.000000   1.000000
   13      -27.157738    -27.157753   1.000000   1.000000
   14      -27.067248    -27.067317   1.000000   1.000000
   15      -27.063912    -27.063943   1.000000   1.000000
   16      -27.036068    -27.036118   1.000000   1.000000
   17      -13.502084    -13.502106   1.000000   1.000000
   18      -13.471061    -13.471082   1.000000   1.000000
   19      -13.140254    -13.140269   1.000000   1.000000
   20       -6.317277     -6.317290   1.000000   1.000000
   21       -4.275774     -4.275775   1.000000   1.000000
   22       -4.046016     -4.046031   1.000000   1.000000
   23       -3.462031     -3.462035   1.000000   1.000000
   24       -3.334317     -3.334327   1.000000   1.000000
   25       -2.167144     -2.167154   1.000000   1.000000
   26       -1.913562     -1.913567   1.000000   1.000000
   27       -1.597106     -1.597105   1.000000   1.000000
   28       -1.278522     -1.278521   1.000000   1.000000
   29       -0.950109     -0.950111   1.000000   1.000000
   30       -0.761993     -0.761999   1.000000   1.000000
   31       -0.579462     -0.579473   1.000000   1.000000
   32        0.299134      0.299126   1.000000   1.000000
   33        0.499650      0.499633   1.000000   1.000000
   34        0.907088      0.907083   1.000000   1.000000
   35        1.293824      1.293817   1.000000   1.000000
   36        2.514622      2.514607   1.000000   1.000000
   37        3.372436      3.372388   1.000000   1.000000
   38        3.469002      3.468971   1.000000   1.000000
   39        3.659511      3.659474   1.000000   1.000000
   40        3.825082      3.825057   1.000000   1.000000
   41        4.022403      4.022385   1.000000   1.000000
   42        4.124211      4.124188   0.213949   0.214226
   43        4.618298      4.618273   0.000000   0.000000
   44        5.015566      5.015555   0.000000   0.000000
   45        5.214778      5.214748   0.000000   0.000000
   46        5.264811      5.264775   0.000000   0.000000
   47        5.337071      5.337044   0.000000   0.000000
   48        5.463010      5.462986   0.000000   0.000000
   49        5.793141      5.793102   0.000000   0.000000
   50        5.844918      5.844896   0.000000   0.000000
   51        6.013055      6.013035   0.000000   0.000000
   52        6.101810      6.101778   0.000000   0.000000
   53        6.442047      6.442015   0.000000   0.000000
   54        6.807164      6.807158   0.000000   0.000000
   55        6.969909      6.969896   0.000000   0.000000
   56        7.805404      7.805377   0.000000   0.000000
   57        8.252553      8.252531   0.000000   0.000000
   58        8.736092      8.736074   0.000000   0.000000
   59        9.207452      9.207433   0.000000   0.000000
   60        9.361784      9.361747   0.000000   0.000000
   61        9.670565      9.670547   0.000000   0.000000
   62       10.129680     10.129657   0.000000   0.000000
   63       10.343767     10.343733   0.000000   0.000000
   64       10.491614     10.491676   0.000000   0.000000
 
  0.1428571E+00  0.3732366E-15  0.3747003E-15  0.2380952E-01
    1      -31.320854    -31.320885   1.000000   1.000000
    2      -27.745569    -27.745581   1.000000   1.000000
    3      -27.696318    -27.696323   1.000000   1.000000
    4      -27.650680    -27.650689   1.000000   1.000000
    5      -27.629998    -27.630003   1.000000   1.000000
    6      -27.498595    -27.498611   1.000000   1.000000
    7      -27.449762    -27.449781   1.000000   1.000000
    8      -27.408049    -27.408064   1.000000   1.000000
    9      -27.378185    -27.378196   1.000000   1.000000
   10      -27.347301    -27.347316   1.000000   1.000000
   11      -27.295140    -27.295160   1.000000   1.000000
   12      -27.218875    -27.218890   1.000000   1.000000
   13      -27.159580    -27.159598   1.000000   1.000000
   14      -27.093224    -27.093268   1.000000   1.000000
   15      -27.062290    -27.062346   1.000000   1.000000
   16      -27.053518    -27.053567   1.000000   1.000000
   17      -13.474582    -13.474605   1.000000   1.000000
   18      -13.443890    -13.443911   1.000000   1.000000
   19      -13.329946    -13.329961   1.000000   1.000000
   20       -5.972762     -5.972775   1.000000   1.000000
   21       -4.072721     -4.072724   1.000000   1.000000
   22       -3.724980     -3.724991   1.000000   1.000000
   23       -3.195254     -3.195259   1.000000   1.000000
   24       -3.027863     -3.027872   1.000000   1.000000
   25       -2.193347     -2.193357   1.000000   1.000000
   26       -1.822914     -1.822917   1.000000   1.000000
   27       -1.587693     -1.587695   1.000000   1.000000
   28       -1.313302     -1.313301   1.000000   1.000000
   29       -1.061444     -1.061446   1.000000   1.000000
   30       -0.909069     -0.909072   1.000000   1.000000
   31       -0.483077     -0.483086   1.000000   1.000000
   32        0.154232      0.154229   1.000000   1.000000
   33        0.367287      0.367272   1.000000   1.000000
   34        0.702877      0.702872   1.000000   1.000000
   35        0.925550      0.925543   1.000000   1.000000
   36        1.756615      1.756603   1.000000   1.000000
   37        2.874303      2.874274   1.000000   1.000000
   38        3.216174      3.216131   1.000000   1.000000
   39        3.345493      3.345461   1.000000   1.000000
   40        3.801312      3.801286   1.000000   1.000000
   41        3.992046      3.992004   1.000911   1.000906
   42        4.199247      4.199215  -0.038600  -0.038549
   43        4.604439      4.604395   0.000000   0.000000
   44        4.834166      4.834150   0.000000   0.000000
   45        5.281469      5.281452   0.000000   0.000000
   46        5.427540      5.427508   0.000000   0.000000
   47        5.559578      5.559557   0.000000   0.000000
   48        5.776117      5.776084   0.000000   0.000000
   49        5.969515      5.969492   0.000000   0.000000
   50        6.093469      6.093436   0.000000   0.000000
   51        6.544916      6.544890   0.000000   0.000000
   52        6.612370      6.612345   0.000000   0.000000
   53        6.854323      6.854304   0.000000   0.000000
   54        7.259081      7.259070   0.000000   0.000000
   55        7.553391      7.553369   0.000000   0.000000
   56        7.833683      7.833665   0.000000   0.000000
   57        8.206730      8.206701   0.000000   0.000000
   58        8.593479      8.593447   0.000000   0.000000
   59        9.051325      9.051302   0.000000   0.000000
   60        9.381446      9.381430   0.000000   0.000000
   61        9.811624      9.811603   0.000000   0.000000
   62       10.075913     10.075892   0.000000   0.000000
   63       10.442278     10.442110   0.000000   0.000000
   64       10.664504     10.661598   0.000000   0.000000
 
  0.2857143E+00  0.3900959E-15  0.3677614E-15  0.2380952E-01
    1      -31.283706    -31.283737   1.000000   1.000000
    2      -27.787105    -27.787108   1.000000   1.000000
    3      -27.703096    -27.703107   1.000000   1.000000
    4      -27.665935    -27.665944   1.000000   1.000000
    5      -27.615557    -27.615563   1.000000   1.000000
    6      -27.548423    -27.548432   1.000000   1.000000
    7      -27.487544    -27.487561   1.000000   1.000000
    8      -27.473847    -27.473855   1.000000   1.000000
    9      -27.443553    -27.443567   1.000000   1.000000
   10      -27.369365    -27.369390   1.000000   1.000000
   11      -27.308994    -27.309016   1.000000   1.000000
   12      -27.232872    -27.232882   1.000000   1.000000
   13      -27.181957    -27.182000   1.000000   1.000000
   14      -27.151988    -27.152015   1.000000   1.000000
   15      -27.070969    -27.071000   1.000000   1.000000
   16      -27.048756    -27.048828   1.000000   1.000000
   17      -13.732275    -13.732291   1.000000   1.000000
   18      -13.409145    -13.409168   1.000000   1.000000
   19      -13.380222    -13.380241   1.000000   1.000000
   20       -5.064913     -5.064924   1.000000   1.000000
   21       -3.586873     -3.586877   1.000000   1.000000
   22       -3.069615     -3.069621   1.000000   1.000000
   23       -2.690319     -2.690326   1.000000   1.000000
   24       -2.356866     -2.356874   1.000000   1.000000
   25       -2.222579     -2.222586   1.000000   1.000000
   26       -1.781840     -1.781844   1.000000   1.000000
   27       -1.617032     -1.617039   1.000000   1.000000
   28       -1.417679     -1.417679   1.000000   1.000000
   29       -1.261958     -1.261957   1.000000   1.000000
   30       -0.945443     -0.945441   1.000000   1.000000
   31       -0.578918     -0.578923   1.000000   1.000000
   32       -0.207808     -0.207808   1.000000   1.000000
   33        0.031551      0.031541   1.000000   1.000000
   34        0.266971      0.266966   1.000000   1.000000
   35        0.748683      0.748679   1.000000   1.000000
   36        0.821048      0.821034   1.000000   1.000000
   37        2.199240      2.199201   1.000000   1.000000
   38        2.647804      2.647781   1.000000   1.000000
   39        3.162634      3.162599   1.000000   1.000000
   40        3.714645      3.714587   1.000000   1.000000
   41        3.909476      3.909413   1.014573   1.014532
   42        4.433251      4.433224  -0.004310  -0.004316
   43        4.502739      4.502716   0.000000   0.000000
   44        5.027662      5.027642   0.000000   0.000000
   45        5.372573      5.372548   0.000000   0.000000
   46        5.491292      5.491269   0.000000   0.000000
   47        5.828432      5.828406   0.000000   0.000000
   48        5.990273      5.990241   0.000000   0.000000
   49        6.177963      6.177936   0.000000   0.000000
   50        6.642471      6.642437   0.000000   0.000000
   51        6.933533      6.933510   0.000000   0.000000
   52        7.223122      7.223100   0.000000   0.000000
   53        7.496022      7.495988   0.000000   0.000000
   54        7.705911      7.705893   0.000000   0.000000
   55        8.225217      8.225183   0.000000   0.000000
   56        8.302110      8.302084   0.000000   0.000000
   57        8.540260      8.540240   0.000000   0.000000
   58        8.719265      8.719239   0.000000   0.000000
   59        9.017649      9.017617   0.000000   0.000000
   60        9.645914      9.645887   0.000000   0.000000
   61        9.786144      9.786133   0.000000   0.000000
   62        9.877574      9.877558   0.000000   0.000000
   63       10.276941     10.277805   0.000000   0.000000
   64       10.453167     10.458192   0.000000   0.000000
 
  0.4285714E+00  0.4119968E-15  0.3747003E-15  0.2380952E-01
    1      -31.253577    -31.253608   1.000000   1.000000
    2      -27.868886    -27.868888   1.000000   1.000000
    3      -27.701652    -27.701662   1.000000   1.000000
    4      -27.682042    -27.682050   1.000000   1.000000
    5      -27.598852    -27.598860   1.000000   1.000000
    6      -27.582414    -27.582423   1.000000   1.000000
    7      -27.551759    -27.551763   1.000000   1.000000
    8      -27.514450    -27.514465   1.000000   1.000000
    9      -27.456311    -27.456327   1.000000   1.000000
   10      -27.384277    -27.384305   1.000000   1.000000
   11      -27.302693    -27.302728   1.000000   1.000000
   12      -27.256807    -27.256811   1.000000   1.000000
   13      -27.238148    -27.238184   1.000000   1.000000
   14      -27.138852    -27.138885   1.000000   1.000000
   15      -27.088123    -27.088149   1.000000   1.000000
   16      -27.040043    -27.040116   1.000000   1.000000
   17      -14.030054    -14.030071   1.000000   1.000000
   18      -13.358536    -13.358560   1.000000   1.000000
   19      -13.326722    -13.326741   1.000000   1.000000
   20       -3.983177     -3.983189   1.000000   1.000000
   21       -3.259647     -3.259650   1.000000   1.000000
   22       -2.858736     -2.858743   1.000000   1.000000
   23       -2.508518     -2.508523   1.000000   1.000000
   24       -2.141544     -2.141551   1.000000   1.000000
   25       -1.964091     -1.964094   1.000000   1.000000
   26       -1.906969     -1.906978   1.000000   1.000000
   27       -1.589657     -1.589658   1.000000   1.000000
   28       -1.478740     -1.478740   1.000000   1.000000
   29       -1.278498     -1.278501   1.000000   1.000000
   30       -0.994633     -0.994636   1.000000   1.000000
   31       -0.672886     -0.672892   1.000000   1.000000
   32       -0.457797     -0.457791   1.000000   1.000000
   33       -0.278939     -0.278944   1.000000   1.000000
   34        0.119686      0.119683   1.000000   1.000000
   35        0.586622      0.586606   1.000000   1.000000
   36        0.807016      0.807016   1.000000   1.000000
   37        1.844896      1.844852   1.000000   1.000000
   38        2.287531      2.287511   1.000000   1.000000
   39        3.063795      3.063753   1.000000   1.000000
   40        3.464503      3.464447   1.000000   1.000000
   41        3.825419      3.825357   1.000426   1.000424
   42        4.793954      4.793925   0.000000   0.000000
   43        4.973983      4.973958   0.000000   0.000000
   44        5.328308      5.328284   0.000000   0.000000
   45        5.629799      5.629779   0.000000   0.000000
   46        5.680275      5.680248   0.000000   0.000000
   47        5.970129      5.970109   0.000000   0.000000
   48        6.161251      6.161222   0.000000   0.000000
   49        6.290556      6.290531   0.000000   0.000000
   50        6.747545      6.747518   0.000000   0.000000
   51        6.962072      6.962047   0.000000   0.000000
   52        7.179165      7.179144   0.000000   0.000000
   53        7.462960      7.462914   0.000000   0.000000
   54        7.637900      7.637876   0.000000   0.000000
   55        8.174554      8.174528   0.000000   0.000000
   56        8.309729      8.309698   0.000000   0.000000
   57        8.695539      8.695510   0.000000   0.000000
   58        8.815260      8.815237   0.000000   0.000000
   59        9.093192      9.093171   0.000000   0.000000
   60        9.366408      9.366386   0.000000   0.000000
   61        9.640147      9.640126   0.000000   0.000000
   62        9.926269      9.926268   0.000000   0.000000
   63       10.127280     10.127223   0.000000   0.000000
   64       10.615777     10.611303   0.000000   0.000000
 
  0.3593046E-15  0.2500000E+00  0.3747003E-15  0.2380952E-01
    1      -31.337847    -31.337879   1.000000   1.000000
    2      -27.740809    -27.740821   1.000000   1.000000
    3      -27.676322    -27.676329   1.000000   1.000000
    4      -27.637477    -27.637486   1.000000   1.000000
    5      -27.591425    -27.591428   1.000000   1.000000
    6      -27.501974    -27.501992   1.000000   1.000000
    7      -27.439068    -27.439088   1.000000   1.000000
    8      -27.401953    -27.401974   1.000000   1.000000
    9      -27.362422    -27.362433   1.000000   1.000000
   10      -27.322397    -27.322403   1.000000   1.000000
   11      -27.279307    -27.279324   1.000000   1.000000
   12      -27.218764    -27.218781   1.000000   1.000000
   13      -27.168022    -27.168039   1.000000   1.000000
   14      -27.066434    -27.066505   1.000000   1.000000
   15      -27.063840    -27.063870   1.000000   1.000000
   16      -27.035816    -27.035866   1.000000   1.000000
   17      -13.509478    -13.509502   1.000000   1.000000
   18      -13.481325    -13.481345   1.000000   1.000000
   19      -13.140917    -13.140932   1.000000   1.000000
   20       -6.038088     -6.038100   1.000000   1.000000
   21       -4.413124     -4.413128   1.000000   1.000000
   22       -3.977399     -3.977407   1.000000   1.000000
   23       -3.650332     -3.650343   1.000000   1.000000
   24       -3.274464     -3.274469   1.000000   1.000000
   25       -2.380682     -2.380689   1.000000   1.000000
   26       -2.207417     -2.207420   1.000000   1.000000
   27       -1.397556     -1.397562   1.000000   1.000000
   28       -1.142174     -1.142172   1.000000   1.000000
   29       -0.888857     -0.888864   1.000000   1.000000
   30       -0.734040     -0.734045   1.000000   1.000000
   31       -0.458217     -0.458227   1.000000   1.000000
   32        0.140527      0.140513   1.000000   1.000000
   33        0.503150      0.503138   1.000000   1.000000
   34        0.922825      0.922824   1.000000   1.000000
   35        1.438824      1.438820   1.000000   1.000000
   36        2.444482      2.444472   1.000000   1.000000
   37        3.115439      3.115409   1.000000   1.000000
   38        3.341724      3.341696   1.000000   1.000000
   39        3.470832      3.470807   1.000000   1.000000
   40        3.726541      3.726525   1.000000   1.000000
   41        4.024229      4.024169   1.045891   1.045867
   42        4.313337      4.313303  -0.038835  -0.038836
   43        4.747055      4.747032   0.000000   0.000000
   44        5.028577      5.028549   0.000000   0.000000
   45        5.090845      5.090829   0.000000   0.000000
   46        5.220489      5.220442   0.000000   0.000000
   47        5.564170      5.564149   0.000000   0.000000
   48        5.610240      5.610216   0.000000   0.000000
   49        5.700611      5.700583   0.000000   0.000000
   50        5.907262      5.907228   0.000000   0.000000
   51        6.028008      6.027988   0.000000   0.000000
   52        6.297100      6.297072   0.000000   0.000000
   53        6.414765      6.414737   0.000000   0.000000
   54        6.944833      6.944820   0.000000   0.000000
   55        7.210707      7.210700   0.000000   0.000000
   56        7.688737      7.688715   0.000000   0.000000
   57        8.231278      8.231260   0.000000   0.000000
   58        8.826265      8.826245   0.000000   0.000000
   59        9.085214      9.085186   0.000000   0.000000
   60        9.423581      9.423554   0.000000   0.000000
   61        9.679133      9.679102   0.000000   0.000000
   62       10.130153     10.130131   0.000000   0.000000
   63       10.414594     10.414588   0.000000   0.000000
   64       10.608539     10.608570   0.000000   0.000000
 
  0.1428571E+00  0.2500000E+00  0.3677614E-15  0.2380952E-01
    1      -31.321633    -31.321664   1.000000   1.000000
    2      -27.726262    -27.726272   1.000000   1.000000
    3      -27.683508    -27.683514   1.000000   1.000000
    4      -27.640411    -27.640421   1.000000   1.000000
    5      -27.602237    -27.602243   1.000000   1.000000
    6      -27.497560    -27.497574   1.000000   1.000000
    7      -27.471331    -27.471348   1.000000   1.000000
    8      -27.417504    -27.417522   1.000000   1.000000
    9      -27.389212    -27.389230   1.000000   1.000000
   10      -27.362538    -27.362542   1.000000   1.000000
   11      -27.299285    -27.299305   1.000000   1.000000
   12      -27.224200    -27.224213   1.000000   1.000000
   13      -27.166997    -27.167018   1.000000   1.000000
   14      -27.093351    -27.093396   1.000000   1.000000
   15      -27.061789    -27.061845   1.000000   1.000000
   16      -27.052582    -27.052633   1.000000   1.000000
   17      -13.485094    -13.485118   1.000000   1.000000
   18      -13.454200    -13.454219   1.000000   1.000000
   19      -13.330439    -13.330454   1.000000   1.000000
   20       -5.591917     -5.591929   1.000000   1.000000
   21       -4.274871     -4.274877   1.000000   1.000000
   22       -3.780882     -3.780889   1.000000   1.000000
   23       -3.275740     -3.275749   1.000000   1.000000
   24       -2.999134     -2.999139   1.000000   1.000000
   25       -2.420585     -2.420591   1.000000   1.000000
   26       -2.240148     -2.240153   1.000000   1.000000
   27       -1.400463     -1.400469   1.000000   1.000000
   28       -1.147923     -1.147921   1.000000   1.000000
   29       -0.958677     -0.958682   1.000000   1.000000
   30       -0.728921     -0.728927   1.000000   1.000000
   31       -0.330745     -0.330752   1.000000   1.000000
   32        0.084226      0.084212   1.000000   1.000000
   33        0.372929      0.372921   1.000000   1.000000
   34        0.720299      0.720299   1.000000   1.000000
   35        0.990423      0.990421   1.000000   1.000000
   36        1.661190      1.661182   1.000000   1.000000
   37        2.637817      2.637790   1.000000   1.000000
   38        2.917856      2.917825   1.000000   1.000000
   39        3.040980      3.040955   1.000000   1.000000
   40        3.718471      3.718446   1.000000   1.000000
   41        4.145342      4.145274   0.702867   0.703837
   42        4.539183      4.539142   0.000000   0.000000
   43        4.901865      4.901843   0.000000   0.000000
   44        4.993934      4.993903   0.000000   0.000000
   45        5.239917      5.239886   0.000000   0.000000
   46        5.498501      5.498471   0.000000   0.000000
   47        5.612390      5.612353   0.000000   0.000000
   48        5.739494      5.739474   0.000000   0.000000
   49        5.878731      5.878708   0.000000   0.000000
   50        5.979090      5.979054   0.000000   0.000000
   51        6.431500      6.431477   0.000000   0.000000
   52        6.796996      6.796974   0.000000   0.000000
   53        7.112028      7.112008   0.000000   0.000000
   54        7.299991      7.299972   0.000000   0.000000
   55        7.538462      7.538448   0.000000   0.000000
   56        7.987866      7.987846   0.000000   0.000000
   57        8.203110      8.203091   0.000000   0.000000
   58        8.763361      8.763329   0.000000   0.000000
   59        8.897341      8.897315   0.000000   0.000000
   60        9.376906      9.376887   0.000000   0.000000
   61        9.697341      9.697321   0.000000   0.000000
   62       10.026441     10.026426   0.000000   0.000000
   63       10.187614     10.187573   0.000000   0.000000
   64       10.526539     10.526832   0.000000   0.000000
 
  0.2857143E+00  0.2500000E+00  0.3747003E-15  0.2380952E-01
    1      -31.284171    -31.284203   1.000000   1.000000
    2      -27.792557    -27.792560   1.000000   1.000000
    3      -27.683105    -27.683114   1.000000   1.000000
    4      -27.645055    -27.645064   1.000000   1.000000
    5      -27.588106    -27.588114   1.000000   1.000000
    6      -27.555148    -27.555157   1.000000   1.000000
    7      -27.497667    -27.497681   1.000000   1.000000
    8      -27.479178    -27.479189   1.000000   1.000000
    9      -27.433463    -27.433480   1.000000   1.000000
   10      -27.399500    -27.399519   1.000000   1.000000
   11      -27.315911    -27.315934   1.000000   1.000000
   12      -27.243084    -27.243096   1.000000   1.000000
   13      -27.182606    -27.182648   1.000000   1.000000
   14      -27.156430    -27.156459   1.000000   1.000000
   15      -27.071773    -27.071805   1.000000   1.000000
   16      -27.048106    -27.048178   1.000000   1.000000
   17      -13.731385    -13.731401   1.000000   1.000000
   18      -13.415841    -13.415866   1.000000   1.000000
   19      -13.385087    -13.385106   1.000000   1.000000
   20       -4.638624     -4.638635   1.000000   1.000000
   21       -3.797791     -3.797799   1.000000   1.000000
   22       -3.253589     -3.253593   1.000000   1.000000
   23       -2.877787     -2.877790   1.000000   1.000000
   24       -2.424578     -2.424584   1.000000   1.000000
   25       -2.252072     -2.252078   1.000000   1.000000
   26       -2.083633     -2.083638   1.000000   1.000000
   27       -1.455361     -1.455370   1.000000   1.000000
   28       -1.341358     -1.341363   1.000000   1.000000
   29       -1.079969     -1.079967   1.000000   1.000000
   30       -0.789693     -0.789694   1.000000   1.000000
   31       -0.487120     -0.487124   1.000000   1.000000
   32       -0.015106     -0.015114   1.000000   1.000000
   33        0.042342      0.042339   1.000000   1.000000
   34        0.272643      0.272640   1.000000   1.000000
   35        0.487077      0.487068   1.000000   1.000000
   36        0.917929      0.917928   1.000000   1.000000
   37        2.111352      2.111316   1.000000   1.000000
   38        2.531637      2.531614   1.000000   1.000000
   39        2.882003      2.881976   1.000000   1.000000
   40        3.450461      3.450407   1.000000   1.000000
   41        4.145988      4.145919   0.892994   0.893433
   42        4.528297      4.528264   0.000000   0.000000
   43        4.946046      4.946022   0.000000   0.000000
   44        5.129916      5.129887   0.000000   0.000000
   45        5.378494      5.378472   0.000000   0.000000
   46        5.612587      5.612562   0.000000   0.000000
   47        5.668100      5.668080   0.000000   0.000000
   48        5.887089      5.887053   0.000000   0.000000
   49        6.248414      6.248384   0.000000   0.000000
   50        6.464738      6.464706   0.000000   0.000000
   51        6.867956      6.867928   0.000000   0.000000
   52        7.388169      7.388142   0.000000   0.000000
   53        7.565786      7.565757   0.000000   0.000000
   54        7.863778      7.863749   0.000000   0.000000
   55        8.049439      8.049409   0.000000   0.000000
   56        8.219559      8.219526   0.000000   0.000000
   57        8.420471      8.420436   0.000000   0.000000
   58        8.688870      8.688858   0.000000   0.000000
   59        9.162318      9.162297   0.000000   0.000000
   60        9.416650      9.416627   0.000000   0.000000
   61        9.629538      9.629508   0.000000   0.000000
   62        9.964715      9.964730   0.000000   0.000000
   63       10.205858     10.206808   0.000000   0.000000
   64       10.314080     10.315068   0.000000   0.000000
 
  0.4285714E+00  0.2500000E+00  0.3677614E-15  0.2380952E-01
    1      -31.253465    -31.253496   1.000000   1.000000
    2      -27.872594    -27.872597   1.000000   1.000000
    3      -27.704667    -27.704678   1.000000   1.000000
    4      -27.664018    -27.664025   1.000000   1.000000
    5      -27.594810    -27.594817   1.000000   1.000000
    6      -27.574702    -27.574710   1.000000   1.000000
    7      -27.548757    -27.548765   1.000000   1.000000
    8      -27.512919    -27.512934   1.000000   1.000000
    9      -27.448926    -27.448944   1.000000   1.000000
   10      -27.398271    -27.398294   1.000000   1.000000
   11      -27.305483    -27.305514   1.000000   1.000000
   12      -27.267442    -27.267448   1.000000   1.000000
   13      -27.241673    -27.241711   1.000000   1.000000
   14      -27.141786    -27.141817   1.000000   1.000000
   15      -27.090736    -27.090766   1.000000   1.000000
   16      -27.040525    -27.040599   1.000000   1.000000
   17      -14.027432    -14.027448   1.000000   1.000000
   18      -13.357160    -13.357184   1.000000   1.000000
   19      -13.325920    -13.325939   1.000000   1.000000
   20       -3.691778     -3.691791   1.000000   1.000000
   21       -3.357255     -3.357259   1.000000   1.000000
   22       -3.089286     -3.089292   1.000000   1.000000
   23       -2.576699     -2.576703   1.000000   1.000000
   24       -2.170897     -2.170900   1.000000   1.000000
   25       -2.031254     -2.031259   1.000000   1.000000
   26       -1.850030     -1.850038   1.000000   1.000000
   27       -1.755918     -1.755924   1.000000   1.000000
   28       -1.515443     -1.515447   1.000000   1.000000
   29       -1.240576     -1.240579   1.000000   1.000000
   30       -0.836240     -0.836240   1.000000   1.000000
   31       -0.634019     -0.634025   1.000000   1.000000
   32       -0.324542     -0.324537   1.000000   1.000000
   33       -0.137887     -0.137895   1.000000   1.000000
   34        0.166457      0.166455   1.000000   1.000000
   35        0.487782      0.487769   1.000000   1.000000
   36        0.723803      0.723805   1.000000   1.000000
   37        1.941661      1.941621   1.000000   1.000000
   38        2.268028      2.268007   1.000000   1.000000
   39        3.002502      3.002471   1.000000   1.000000
   40        3.195349      3.195291   1.000000   1.000000
   41        3.921228      3.921155   1.000169   1.000168
   42        4.650878      4.650855   0.000000   0.000000
   43        5.168710      5.168680   0.000000   0.000000
   44        5.483116      5.483089   0.000000   0.000000
   45        5.719735      5.719715   0.000000   0.000000
   46        5.775214      5.775193   0.000000   0.000000
   47        5.957644      5.957628   0.000000   0.000000
   48        6.118288      6.118261   0.000000   0.000000
   49        6.347484      6.347456   0.000000   0.000000
   50        6.653748      6.653721   0.000000   0.000000
   51        6.839093      6.839072   0.000000   0.000000
   52        7.086503      7.086467   0.000000   0.000000
   53        7.544218      7.544185   0.000000   0.000000
   54        7.678409      7.678379   0.000000   0.000000
   55        7.931644      7.931612   0.000000   0.000000
   56        8.298568      8.298534   0.000000   0.000000
   57        8.449621      8.449586   0.000000   0.000000