Automatically generated mesh
      99
Reciprocal lattice
    0.00000000000000    0.00000000000000    0.00000000000000             1
    0.14285714285714    0.00000000000000    0.00000000000000             2
    0.28571428571429    0.00000000000000    0.00000000000000             2
    0.42857142857143    0.00000000000000    0.00000000000000             2
    0.00000000000000    0.25000000000000    0.00000000000000             2
    0.14285714285714    0.25000000000000    0.00000000000000             2
    0.28571428571429    0.25000000000000    0.00000000000000             2
    0.42857142857143    0.25000000000000    0.00000000000000             2
   -0.42857142857143    0.25000000000000    0.00000000000000             2
   -0.28571428571429    0.25000000000000    0.00000000000000             2
   -0.14285714285714    0.25000000000000    0.00000000000000             2
    0.00000000000000    0.50000000000000    0.00000000000000             1
    0.14285714285714    0.50000000000000    0.00000000000000             2
    0.28571428571429    0.50000000000000    0.00000000000000             2
    0.42857142857143    0.50000000000000    0.00000000000000             2
    0.00000000000000    0.00000000000000    0.14285714285714             2
    0.14285714285714    0.00000000000000    0.14285714285714             2
    0.28571428571429    0.00000000000000    0.14285714285714             2
    0.42857142857143    0.00000000000000    0.14285714285714             2
   -0.42857142857143    0.00000000000000    0.14285714285714             2
   -0.28571428571429    0.00000000000000    0.14285714285714             2
   -0.14285714285714    0.00000000000000    0.14285714285714             2
    0.00000000000000    0.25000000000000    0.14285714285714             2
    0.14285714285714    0.25000000000000    0.14285714285714             2
    0.28571428571429    0.25000000000000    0.14285714285714             2
    0.42857142857143    0.25000000000000    0.14285714285714             2
   -0.42857142857143    0.25000000000000    0.14285714285714             2
   -0.28571428571429    0.25000000000000    0.14285714285714             2
   -0.14285714285714    0.25000000000000    0.14285714285714             2
    0.00000000000000    0.50000000000000    0.14285714285714             2
    0.14285714285714    0.50000000000000    0.14285714285714             2
    0.28571428571429    0.50000000000000    0.14285714285714             2
    0.42857142857143    0.50000000000000    0.14285714285714             2
   -0.42857142857143    0.50000000000000    0.14285714285714             2
   -0.28571428571429    0.50000000000000    0.14285714285714             2
   -0.14285714285714    0.50000000000000    0.14285714285714             2
    0.00000000000000   -0.25000000000000    0.14285714285714             2
    0.14285714285714   -0.25000000000000    0.14285714285714             2
    0.28571428571429   -0.25000000000000    0.14285714285714             2
    0.42857142857143   -0.25000000000000    0.14285714285714             2
   -0.42857142857143   -0.25000000000000    0.14285714285714             2
   -0.28571428571429   -0.25000000000000    0.14285714285714             2
   -0.14285714285714   -0.25000000000000    0.14285714285714             2
    0.00000000000000    0.00000000000000    0.28571428571429             2
    0.14285714285714    0.00000000000000    0.28571428571429             2
    0.28571428571429    0.00000000000000    0.28571428571429             2
    0.42857142857143    0.00000000000000    0.28571428571429             2
   -0.42857142857143    0.00000000000000    0.28571428571429             2
   -0.28571428571429    0.00000000000000    0.28571428571429             2
   -0.14285714285714    0.00000000000000    0.28571428571429             2
    0.00000000000000    0.25000000000000    0.28571428571429             2
    0.14285714285714    0.25000000000000    0.28571428571429             2
    0.28571428571429    0.25000000000000    0.28571428571429             2
    0.42857142857143    0.25000000000000    0.28571428571429             2
   -0.42857142857143    0.25000000000000    0.28571428571429             2
   -0.28571428571429    0.25000000000000    0.28571428571429             2
   -0.14285714285714    0.25000000000000    0.28571428571429             2
    0.00000000000000    0.50000000000000    0.28571428571429             2
    0.14285714285714    0.50000000000000    0.28571428571429             2
    0.28571428571429    0.50000000000000    0.28571428571429             2
    0.42857142857143    0.50000000000000    0.28571428571429             2
   -0.42857142857143    0.50000000000000    0.28571428571429             2
   -0.28571428571429    0.50000000000000    0.28571428571429             2
   -0.14285714285714    0.50000000000000    0.28571428571429             2
    0.00000000000000   -0.25000000000000    0.28571428571429             2
    0.14285714285714   -0.25000000000000    0.28571428571429             2
    0.28571428571429   -0.25000000000000    0.28571428571429             2
    0.42857142857143   -0.25000000000000    0.28571428571429             2
   -0.42857142857143   -0.25000000000000    0.28571428571429             2
   -0.28571428571429   -0.25000000000000    0.28571428571429             2
   -0.14285714285714   -0.25000000000000    0.28571428571429             2
    0.00000000000000    0.00000000000000    0.42857142857143             2
    0.14285714285714    0.00000000000000    0.42857142857143             2
    0.28571428571429    0.00000000000000    0.42857142857143             2
    0.42857142857143    0.00000000000000    0.42857142857143             2
   -0.42857142857143    0.00000000000000    0.42857142857143             2
   -0.28571428571429    0.00000000000000    0.42857142857143             2
   -0.14285714285714    0.00000000000000    0.42857142857143             2
    0.00000000000000    0.25000000000000    0.42857142857143             2
    0.14285714285714    0.25000000000000    0.42857142857143             2
    0.28571428571429    0.25000000000000    0.42857142857143             2
    0.42857142857143    0.25000000000000    0.42857142857143             2
   -0.42857142857143    0.25000000000000    0.42857142857143             2
   -0.28571428571429    0.25000000000000    0.42857142857143             2
   -0.14285714285714    0.25000000000000    0.42857142857143             2
    0.00000000000000    0.50000000000000    0.42857142857143             2
    0.14285714285714    0.50000000000000    0.42857142857143             2
    0.28571428571429    0.50000000000000    0.42857142857143             2
    0.42857142857143    0.50000000000000    0.42857142857143             2
   -0.42857142857143    0.50000000000000    0.42857142857143             2
   -0.28571428571429    0.50000000000000    0.42857142857143             2
   -0.14285714285714    0.50000000000000    0.42857142857143             2
    0.00000000000000   -0.25000000000000    0.42857142857143             2
    0.14285714285714   -0.25000000000000    0.42857142857143             2
    0.28571428571429   -0.25000000000000    0.42857142857143             2
    0.42857142857143   -0.25000000000000    0.42857142857143             2
   -0.42857142857143   -0.25000000000000    0.42857142857143             2
   -0.28571428571429   -0.25000000000000    0.42857142857143             2
   -0.14285714285714   -0.25000000000000    0.42857142857143             2
Tetrahedra
       586    0.00085034013605
         2         1         2         5        17
         2         2         5         6        17
         2         5         6        17        24
         2         1         5        16        17
         2         5        16        17        23
         2         5        17        23        24
         2         2         3         6        18
         2         3         6         7        18
         2         6         7        18        25
         2         2         6        17        18
         2         6        17        18        24
         2         6        18        24        25
         2         3         4         7        19
         2         4         7         8        19
         2         7         8        19        26
         2         3         7        18        19
         2         7        18        19        25
         2         7        19        25        26
         2         4         4         8        20
         2         4         8         9        20
         2         8         9        20        27
         2         4         8        19        20
         2         8        19        20        26
         2         8        20        26        27
         2         3         4         9        21
         2         3         9        10        21
         2         9        10        21        28
         2         4         9        20        21
         2         9        20        21        27
         2         9        21        27        28
         2         2         3        10        22
         2         2        10        11        22
         2        10        11        22        29
         2         3        10        21        22
         2        10        21        22        28
         2        10        22        28        29
         2         1         2        11        16
         2         1         5        11        16
         2         5        11        16        23
         2         2        11        16        22
         2        11        16        22        29
         2        11        16        23        29
         2         5         6        12        24
         2         6        12        13        24
         2        12        13        24        31
         2         5        12        23        24
         2        12        23        24        30
         2        12        24        30        31
         2         6         7        13        25
         2         7        13        14        25
         2        13        14        25        32
         2         6        13        24        25
         2        13        24        25        31
         2        13        25        31        32
         2         7         8        14        26
         2         8        14        15        26
         2        14        15        26        33
         2         7        14        25        26
         2        14        25        26        32
         2        14        26        32        33
         2         8         9        15        27
         2         9        15        15        27
         2        15        15        27        34
         2         8        15        26        27
         2        15        26        27        33
         2        15        27        33        34
         2         9        10        15        28
         2        10        14        15        28
         2        14        15        28        35
         2         9        15        27        28
         2        15        27        28        34
         2        15        28        34        35
         2        10        11        14        29
         2        11        13        14        29
         2        13        14        29        36
         2        10        14        28        29
         2        14        28        29        35
         2        14        29        35        36
         2         5        11        13        23
         2         5        12        13        23
         2        12        13        23        30
         2        11        13        23        29
         2        13        23        29        36
         2        13        23        30        36
         2         5        12        13        31
         2         5        11        13        31
         2         5        11        31        38
         2         5        12        30        31
         2         5        30        31        37
         2         5        31        37        38
         2        11        13        14        32
         2        10        11        14        32
         2        10        11        32        39
         2        11        13        31        32
         2        11        31        32        38
         2        11        32        38        39
         2        10        14        15        33
         2         9        10        15        33
         2         9        10        33        40
         2        10        14        32        33
         2        10        32        33        39
         2        10        33        39        40
         2         9        15        15        34
         2         8         9        15        34
         2         8         9        34        41
         2         9        15        33        34
         2         9        33        34        40
         2         9        34        40        41
         2         8        14        15        35
         2         7         8        14        35
         2         7         8        35        42
         2         8        15        34        35
         2         8        34        35        41
         2         8        35        41        42
         2         7        13        14        36
         2         6         7        13        36
         2         6         7        36        43
         2         7        14        35        36
         2         7        35        36        42
         2         7        36        42        43
         2         6        12        13        30
         2         5         6        12        30
         2         5         6        30        37
         2         6        13        30        36
         2         6        30        36        43
         2         6        30        37        43
         2         1         5        11        38
         2         1         2        11        38
         2         1         2        17        38
         2         1         5        37        38
         2         1        16        37        38
         2         1        16        17        38
         2         2        10        11        39
         2         2         3        10        39
         2         2         3        18        39
         2         2        11        38        39
         2         2        17        38        39
         2         2        17        18        39
         2         3         9        10        40
         2         3         4         9        40
         2         3         4        19        40
         2         3        10        39        40
         2         3        18        39        40
         2         3        18        19        40
         2         4         8         9        41
         2         4         4         8        41
         2         4         4        20        41
         2         4         9        40        41
         2         4        19        40        41
         2         4        19        20        41
         2         4         7         8        42
         2         3         4         7        42
         2         3         4        21        42
         2         4         8        41        42
         2         4        20        41        42
         2         4        20        21        42
         2         3         6         7        43
         2         2         3         6        43
         2         2         3        22        43
         2         3         7        42        43
         2         3        21        42        43
         2         3        21        22        43
         2         2         5         6        37
         2         1         2         5        37
         2         1         2        16        37
         2         2         6        37        43
         2         2        22        37        43
         2         2        16        22        37
         2        16        17        23        45
         2        17        23        24        45
         2        23        24        45        52
         2        16        23        44        45
         2        23        44        45        51
         2        23        45        51        52
         2        17        18        24        46
         2        18        24        25        46
         2        24        25        46        53
         2        17        24        45        46
         2        24        45        46        52
         2        24        46        52        53
         2        18        19        25        47
         2        19        25        26        47
         2        25        26        47        54
         2        18        25        46        47
         2        25        46        47        53
         2        25        47        53        54
         2        19        20        26        48
         2        20        26        27        48
         2        26        27        48        55
         2        19        26        47        48
         2        26        47        48        54
         2        26        48        54        55
         2        20        21        27        49
         2        21        27        28        49
         2        27        28        49        56
         2        20        27        48        49
         2        27        48        49        55
         2        27        49        55        56
         2        21        22        28        50
         2        22        28        29        50
         2        28        29        50        57
         2        21        28        49        50
         2        28        49        50        56
         2        28        50        56        57
         2        16        22        29        44
         2        16        23        29        44
         2        23        29        44        51
         2        22        29        44        50
         2        29        44        50        57
         2        29        44        51        57
         2        23        24        30        52
         2        24        30        31        52
         2        30        31        52        59
         2        23        30        51        52
         2        30        51        52        58
         2        30        52        58        59
         2        24        25        31        53
         2        25        31        32        53
         2        31        32        53        60
         2        24        31        52        53
         2        31        52        53        59
         2        31        53        59        60
         2        25        26        32        54
         2        26        32        33        54
         2        32        33        54        61
         2        25        32        53        54
         2        32        53        54        60
         2        32        54        60        61
         2        26        27        33        55
         2        27        33        34        55
         2        33        34        55        62
         2        26        33        54        55
         2        33        54        55        61
         2        33        55        61        62
         2        27        28        34        56
         2        28        34        35        56
         2        34        35        56        63
         2        27        34        55        56
         2        34        55        56        62
         2        34        56        62        63
         2        28        29        35        57
         2        29        35        36        57
         2        35        36        57        64
         2        28        35        56        57
         2        35        56        57        63
         2        35        57        63        64
         2        23        29        36        51
         2        23        30        36        51
         2        30        36        51        58
         2        29        36        51        57
         2        36        51        57        64
         2        36        51        58        64
         2        30        31        37        59
         2        31        37        38        59
         2        37        38        59        66
         2        30        37        58        59
         2        37        58        59        65
         2        37        59        65        66
         2        31        32        38        60
         2        32        38        39        60
         2        38        39        60        67
         2        31        38        59        60
         2        38        59        60        66
         2        38        60        66        67
         2        32        33        39        61
         2        33        39        40        61
         2        39        40        61        68
         2        32        39        60        61
         2        39        60        61        67
         2        39        61        67        68
         2        33        34        40        62
         2        34        40        41        62
         2        40        41        62        69
         2        33        40        61        62
         2        40        61        62        68
         2        40        62        68        69
         2        34        35        41        63
         2        35        41        42        63
         2        41        42        63        70
         2        34        41        62        63
         2        41        62        63        69
         2        41        63        69        70
         2        35        36        42        64
         2        36        42        43        64
         2        42        43        64        71
         2        35        42        63        64
         2        42        63        64        70
         2        42        64        70        71
         2        30        36        43        58
         2        30        37        43        58
         2        37        43        58        65
         2        36        43        58        64
         2        43        58        64        71
         2        43        58        65        71
         2        16        37        38        66
         2        16        17        38        66
         2        16        17        45        66
         2        16        37        65        66
         2        16        44        65        66
         2        16        44        45        66
         2        17        38        39        67
         2        17        18        39        67
         2        17        18        46        67
         2        17        38        66        67
         2        17        45        66        67
         2        17        45        46        67
         2        18        39        40        68
         2        18        19        40        68
         2        18        19        47        68
         2        18        39        67        68
         2        18        46        67        68
         2        18        46        47        68
         2        19        40        41        69
         2        19        20        41        69
         2        19        20        48        69
         2        19        40        68        69
         2        19        47        68        69
         2        19        47        48        69
         2        20        41        42        70
         2        20        21        42        70
         2        20        21        49        70
         2        20        41        69        70
         2        20        48        69        70
         2        20        48        49        70
         2        21        42        43        71
         2        21        22        43        71
         2        21        22        50        71
         2        21        42        70        71
         2        21        49        70        71
         2        21        49        50        71
         2        22        37        43        65
         2        16        22        37        65
         2        16        22        44        65
         2        22        43        65        71
         2        22        50        65        71
         2        22        44        50        65
         2        44        45        51        73
         2        45        51        52        73
         2        51        52        73        80
         2        44        51        72        73
         2        51        72        73        79
         2        51        73        79        80
         2        45        46        52        74
         2        46        52        53        74
         2        52        53        74        81
         2        45        52        73        74
         2        52        73        74        80
         2        52        74        80        81
         2        46        47        53        75
         2        47        53        54        75
         2        53        54        75        82
         2        46        53        74        75
         2        53        74        75        81
         2        53        75        81        82
         2        47        48        54        76
         2        48        54        55        76
         2        54        55        76        83
         2        47        54        75        76
         2        54        75        76        82
         2        54        76        82        83
         2        48        49        55        77
         2        49        55        56        77
         2        55        56        77        84
         2        48        55        76        77
         2        55        76        77        83
         2        55        77        83        84
         2        49        50        56        78
         2        50        56        57        78
         2        56        57        78        85
         2        49        56        77        78
         2        56        77        78        84
         2        56        78        84        85
         2        44        50        57        72
         2        44        51        57        72
         2        51        57        72        79
         2        50        57        72        78
         2        57        72        78        85
         2        57        72        79        85
         2        51        52        58        80
         2        52        58        59        80
         2        58        59        80        87
         2        51        58        79        80
         2        58        79        80        86
         2        58        80        86        87
         2        52        53        59        81
         2        53        59        60        81
         2        59        60        81        88
         2        52        59        80        81
         2        59        80        81        87
         2        59        81        87        88
         2        53        54        60        82
         2        54        60        61        82
         2        60        61        82        89
         2        53        60        81        82
         2        60        81        82        88
         2        60        82        88        89
         2        54        55        61        83
         2        55        61        62        83
         2        61        62        83        90
         2        54        61        82        83
         2        61        82        83        89
         2        61        83        89        90
         2        55        56        62        84
         2        56        62        63        84
         2        62        63        84        91
         2        55        62        83        84
         2        62        83        84        90
         2        62        84        90        91
         2        56        57        63        85
         2        57        63        64        85
         2        63        64        85        92
         2        56        63        84        85
         2        63        84        85        91
         2        63        85        91        92
         2        51        57        64        79
         2        51        58        64        79
         2        58        64        79        86
         2        57        64        79        85
         2        64        79        85        92
         2        64        79        86        92
         2        58        59        65        87
         2        59        65        66        87
         2        65        66        87        94
         2        58        65        86        87
         2        65        86        87        93
         2        65        87        93        94
         2        59        60        66        88
         2        60        66        67        88
         2        66        67        88        95
         2        59        66        87        88
         2        66        87        88        94
         2        66        88        94        95
         2        60        61        67        89
         2        61        67        68        89
         2        67        68        89        96
         2        60        67        88        89
         2        67        88        89        95
         2        67        89        95        96
         2        61        62        68        90
         2        62        68        69        90