       N       E                     dE             d eps       ncg     rms          rms(c)
DAV:   1     0.129959377956E+02    0.12996E+02   -0.41638E+03 14248   0.371E+02
DAV:   2    -0.272023788639E+02   -0.40198E+02   -0.37502E+02 18260   0.103E+02
DAV:   3    -0.291062871799E+02   -0.19039E+01   -0.18802E+01 17364   0.213E+01
DAV:   4    -0.291170159963E+02   -0.10729E-01   -0.10727E-01 16748   0.180E+00
DAV:   5    -0.291170933486E+02   -0.77352E-04   -0.77351E-04 17628   0.144E-01    0.107E+01
DAV:   6    -0.267964409244E+02    0.23207E+01   -0.12615E+00 15844   0.791E+00    0.581E+00
DAV:   7    -0.262924518352E+02    0.50399E+00   -0.11269E+00 16100   0.576E+00    0.220E+00
DAV:   8    -0.262309032310E+02    0.61549E-01   -0.13639E-01 16876   0.210E+00    0.698E-01
DAV:   9    -0.262297212781E+02    0.11820E-02   -0.18211E-02 16172   0.784E-01    0.226E-01
DAV:  10    -0.262312277051E+02   -0.15064E-02   -0.32115E-03 15804   0.298E-01    0.689E-02
DAV:  11    -0.262315823276E+02   -0.35462E-03   -0.26118E-04 16260   0.832E-02    0.240E-02
DAV:  12    -0.262316737426E+02   -0.91415E-04   -0.57625E-05 13492   0.358E-02
   1 F= -.26231674E+02 E0= -.26231619E+02  d E =-.262317E+02
       N       E                     dE             d eps       ncg     rms          rms(c)
DAV:   1    -0.332478820528E+02   -0.70163E+01   -0.63979E+02 14288   0.117E+02    0.872E+00
DAV:   2    -0.357189238511E+02   -0.24710E+01   -0.38014E+01 16664   0.292E+01    0.563E+00
DAV:   3    -0.355861148307E+02    0.13281E+00   -0.94572E-01 16420   0.522E+00    0.251E+00
DAV:   4    -0.357181919304E+02   -0.13208E+00   -0.30655E-01 16248   0.291E+00    0.687E-01
DAV:   5    -0.357572668368E+02   -0.39075E-01   -0.26251E-02 15872   0.965E-01    0.279E-01
DAV:   6    -0.357646649705E+02   -0.73981E-02   -0.72599E-03 16020   0.465E-01    0.778E-02
DAV:   7    -0.357651907570E+02   -0.52579E-03   -0.73995E-04 16348   0.151E-01    0.280E-02
DAV:   8    -0.357652612571E+02   -0.70500E-04   -0.73318E-05 13304   0.438E-02
   2 F= -.35765261E+02 E0= -.35765327E+02  d E =-.953359E+01
       N       E                     dE             d eps       ncg     rms          rms(c)
DAV:   1    -0.359197320515E+02   -0.15454E+00   -0.26760E+00 14296   0.807E+00    0.587E-01
DAV:   2    -0.359210829819E+02   -0.13509E-02   -0.60052E-02 16488   0.120E+00    0.348E-01
DAV:   3    -0.359203939840E+02    0.68900E-03   -0.35390E-03 16984   0.322E-01    0.964E-02
DAV:   4    -0.359205296662E+02   -0.13568E-03   -0.79758E-04 16528   0.140E-01    0.336E-02
DAV:   5    -0.359205355087E+02   -0.58425E-05   -0.26801E-05  8496   0.372E-02
   3 F= -.35920536E+02 E0= -.35920622E+02  d E =-.968886E+01
       N       E                     dE             d eps       ncg     rms          rms(c)
DAV:   1    -0.361095278325E+02   -0.18900E+00   -0.10199E+01 14252   0.158E+01    0.117E+00
DAV:   2    -0.361137676558E+02   -0.42398E-02   -0.24778E-01 16604   0.245E+00    0.669E-01
DAV:   3    -0.361109956469E+02    0.27720E-02   -0.14920E-02 16984   0.628E-01    0.205E-01
DAV:   4    -0.361115128180E+02   -0.51717E-03   -0.27644E-03 16684   0.260E-01    0.719E-02
DAV:   5    -0.361115612490E+02   -0.48431E-04   -0.10687E-04 12900   0.677E-02
   4 F= -.36111561E+02 E0= -.36111588E+02  d E =-.987989E+01
       N       E                     dE             d eps       ncg     rms          rms(c)
DAV:   1    -0.362070060916E+02   -0.95493E-01   -0.36223E+01 14204   0.297E+01    0.235E+00
DAV:   2    -0.362158932098E+02   -0.88871E-02   -0.10572E+00 16752   0.506E+00    0.124E+00
DAV:   3    -0.362054467216E+02    0.10446E-01   -0.60693E-02 16908   0.118E+00    0.443E-01
DAV:   4    -0.362069436319E+02   -0.14969E-02   -0.81804E-03 16708   0.457E-01    0.171E-01
DAV:   5    -0.362073550205E+02   -0.41139E-03   -0.60220E-04 16532   0.140E-01    0.612E-02
DAV:   6    -0.362074589259E+02   -0.10391E-03   -0.14777E-04 15368   0.650E-02    0.163E-02
DAV:   7    -0.362074672044E+02   -0.82785E-05   -0.17847E-05  7992   0.231E-02
   5 F= -.36207467E+02 E0= -.36207368E+02  d E =-.997579E+01
       N       E                     dE             d eps       ncg     rms          rms(c)
DAV:   1    -0.395052406557E+02   -0.32978E+01   -0.50752E+01 14472   0.377E+01    0.309E+00
DAV:   2    -0.395710502879E+02   -0.65810E-01   -0.24360E+00 16920   0.820E+00    0.179E+00
DAV:   3    -0.395421727401E+02    0.28878E-01   -0.11577E-01 17220   0.182E+00    0.501E-01
DAV:   4    -0.395433829190E+02   -0.12102E-02   -0.22691E-02 16364   0.779E-01    0.232E-01
DAV:   5    -0.395438339247E+02   -0.45101E-03   -0.17195E-03 16560   0.207E-01    0.436E-02
DAV:   6    -0.395438552591E+02   -0.21334E-04   -0.10931E-04 12996   0.558E-02
   6 F= -.39543855E+02 E0= -.39543967E+02  d E =-.333639E+01
       N       E                     dE             d eps       ncg     rms          rms(c)
DAV:   1    -0.406154216461E+02   -0.10716E+01   -0.83826E+01 14728   0.503E+01    0.330E+00
DAV:   2    -0.409209323711E+02   -0.30551E+00   -0.46383E+00 16896   0.112E+01    0.249E+00
DAV:   3    -0.408507811163E+02    0.70151E-01   -0.15374E-01 16832   0.295E+00    0.398E-01
DAV:   4    -0.408588773502E+02   -0.80962E-02   -0.90928E-02 16428   0.146E+00    0.220E-01
DAV:   5    -0.408591942922E+02   -0.31694E-03   -0.13018E-03 17296   0.240E-01    0.107E-01
DAV:   6    -0.408595121020E+02   -0.31781E-03   -0.80666E-04 16168   0.151E-01    0.230E-02
DAV:   7    -0.408595377845E+02   -0.25682E-04   -0.47870E-05  9100   0.379E-02
   7 F= -.40859538E+02 E0= -.40859545E+02  d E =-.465207E+01
       N       E                     dE             d eps       ncg     rms          rms(c)
DAV:   1    -0.410376406588E+02   -0.17813E+00   -0.15724E+01 15232   0.221E+01    0.158E+00
DAV:   2    -0.410696774004E+02   -0.32037E-01   -0.72045E-01 16660   0.448E+00    0.106E+00
DAV:   3    -0.410594722325E+02    0.10205E-01   -0.26885E-02 16976   0.115E+00    0.224E-01
DAV:   4    -0.410608354770E+02   -0.13632E-02   -0.13419E-02 16380   0.540E-01    0.878E-02
DAV:   5    -0.410608641001E+02   -0.28623E-04   -0.28443E-04 17528   0.125E-01
   8 F= -.41060864E+02 E0= -.41060865E+02  d E =-.485340E+01
       N       E                     dE             d eps       ncg     rms          rms(c)
DAV:   1    -0.411726123729E+02   -0.11178E+00   -0.16764E+00 15080   0.720E+00    0.487E-01
DAV:   2    -0.411772025831E+02   -0.45902E-02   -0.83224E-02 16672   0.153E+00    0.345E-01
DAV:   3    -0.411759606492E+02    0.12419E-02   -0.30300E-03 17188   0.406E-01    0.556E-02
DAV:   4    -0.411760823769E+02   -0.12173E-03   -0.15649E-03 16288   0.188E-01    0.287E-02
DAV:   5    -0.411760864414E+02   -0.40645E-05   -0.34775E-05  8628   0.419E-02
   9 F= -.41176086E+02 E0= -.41176037E+02  d E =-.496862E+01
       N       E                     dE             d eps       ncg     rms          rms(c)
DAV:   1    -0.425909250943E+02   -0.14148E+01   -0.50213E+01 14832   0.385E+01    0.261E+00
DAV:   2    -0.426970461679E+02   -0.10612E+00   -0.21925E+00 16776   0.762E+00    0.182E+00
DAV:   3    -0.426577845766E+02    0.39262E-01   -0.81886E-02 17796   0.195E+00    0.474E-01
DAV:   4    -0.426620879856E+02   -0.43034E-02   -0.41732E-02 16716   0.100E+00    0.148E-01
DAV:   5    -0.426617469746E+02    0.34101E-03   -0.94865E-04 16060   0.244E-01    0.710E-02
DAV:   6    -0.426618842081E+02   -0.13723E-03   -0.50499E-04 16256   0.113E-01    0.144E-02
DAV:   7    -0.426618905568E+02   -0.63487E-05   -0.99739E-06  8264   0.225E-02
  10 F= -.42661891E+02 E0= -.42661940E+02  d E =-.148580E+01
       N       E                     dE             d eps       ncg     rms          rms(c)
DAV:   1    -0.426954288701E+02   -0.33545E-01   -0.16899E+00 14948   0.708E+00    0.465E-01
DAV:   2    -0.426987162928E+02   -0.32874E-02   -0.65399E-02 16596   0.134E+00    0.320E-01
DAV:   3    -0.426976469252E+02    0.10694E-02   -0.22234E-03 17912   0.321E-01    0.808E-02
DAV:   4    -0.426977770092E+02   -0.13008E-03   -0.11424E-03 16500   0.162E-01    0.250E-02
DAV:   5    -0.426977643824E+02    0.12627E-04   -0.27398E-05  8528   0.423E-02
  11 F= -.42697764E+02 E0= -.42697875E+02  d E =-.152168E+01
       N       E                     dE             d eps       ncg     rms          rms(c)
DAV:   1    -0.437106158995E+02   -0.10128E+01   -0.16747E+01 14280   0.218E+01    0.147E+00
DAV:   2    -0.437335615343E+02   -0.22946E-01   -0.56104E-01 16684   0.386E+00    0.921E-01
DAV:   3    -0.437265791513E+02    0.69824E-02   -0.21467E-02 17308   0.900E-01    0.244E-01
DAV:   4    -0.437273779899E+02   -0.79884E-03   -0.66702E-03 16680   0.397E-01    0.897E-02
DAV:   5    -0.437273755615E+02    0.24284E-05   -0.24939E-04 16808   0.115E-01
  12 F= -.43727376E+02 E0= -.43727229E+02  d E =-.102961E+01
       N       E                     dE             d eps       ncg     rms          rms(c)
DAV:   1    -0.442245489042E+02   -0.49717E+00   -0.11556E+02 14348   0.576E+01    0.395E+00
DAV:   2    -0.444796348443E+02   -0.25509E+00   -0.50796E+00 16924   0.112E+01    0.280E+00
DAV:   3    -0.443865787554E+02    0.93056E-01   -0.20874E-01 17728   0.340E+00    0.572E-01
DAV:   4    -0.443974578191E+02   -0.10879E-01   -0.11367E-01 16468   0.166E+00    0.242E-01
DAV:   5    -0.443975992132E+02   -0.14139E-03   -0.15065E-03 16676   0.303E-01    0.100E-01
DAV:   6    -0.443979133250E+02   -0.31411E-03   -0.10204E-03 16680   0.170E-01    0.292E-02
DAV:   7    -0.443979344860E+02   -0.21161E-04   -0.37733E-05  9008   0.422E-02
  13 F= -.44397934E+02 E0= -.44397846E+02  d E =-.170017E+01
       N       E                     dE             d eps       ncg     rms          rms(c)
DAV:   1    -0.445621160813E+02   -0.16420E+00   -0.27734E+01 14368   0.290E+01    0.200E+00
DAV:   2    -0.446139687123E+02   -0.51853E-01   -0.12328E+00 16832   0.579E+00    0.136E+00
DAV:   3    -0.445948931447E+02    0.19076E-01   -0.47030E-02 17228   0.156E+00    0.304E-01
DAV:   4    -0.445972826850E+02   -0.23895E-02   -0.22809E-02 16420   0.729E-01    0.124E-01
DAV:   5    -0.445973095998E+02   -0.26915E-04   -0.63221E-04 16552   0.201E-01
  14 F= -.44597310E+02 E0= -.44597321E+02  d E =-.189955E+01
       N       E                     dE             d eps       ncg     rms          rms(c)
DAV:   1    -0.446702715926E+02   -0.72989E-01   -0.22720E+00 14416   0.822E+00    0.553E-01
DAV:   2    -0.446743914186E+02   -0.41198E-02   -0.95124E-02 16780   0.160E+00    0.384E-01
DAV:   3    -0.446726790714E+02    0.17123E-02   -0.36050E-03 17356   0.444E-01    0.839E-02
DAV:   4    -0.446728691007E+02   -0.19003E-03   -0.19340E-03 16380   0.208E-01    0.327E-02
DAV:   5    -0.446728616059E+02    0.74948E-05   -0.47846E-05 11784   0.592E-02
  15 F= -.44672862E+02 E0= -.44672753E+02  d E =-.197510E+01
       N       E                     dE             d eps       ncg     rms          rms(c)
DAV:   1    -0.455434434156E+02   -0.87057E+00   -0.15156E+01 14876   0.213E+01    0.170E+00
DAV:   2    -0.455532645816E+02   -0.98212E-02   -0.69959E-01 16748   0.456E+00    0.113E+00
DAV:   3    -0.455342534301E+02    0.19011E-01   -0.52685E-02 17432   0.162E+00    0.184E-01
DAV:   4    -0.455362581760E+02   -0.20047E-02   -0.21891E-02 16116   0.723E-01    0.922E-02
DAV:   5    -0.455362644307E+02   -0.62547E-05   -0.49448E-04 16928   0.155E-01
  16 F= -.45536264E+02 E0= -.45536231E+02  d E =-.863403E+00
       N       E                     dE             d eps       ncg     rms          rms(c)
DAV:   1    -0.456196459999E+02   -0.83388E-01   -0.31354E+00 14960   0.980E+00    0.769E-01
DAV:   2    -0.456231352939E+02   -0.34893E-02   -0.15455E-01 16624   0.214E+00    0.537E-01
DAV:   3    -0.456189000379E+02    0.42353E-02   -0.10809E-02 17236   0.760E-01    0.857E-02
DAV:   4    -0.456193429185E+02   -0.44288E-03   -0.48555E-03 16096   0.337E-01    0.394E-02
DAV:   5    -0.456193507797E+02   -0.78612E-05   -0.84313E-05 10908   0.649E-02
  17 F= -.45619351E+02 E0= -.45619330E+02  d E =-.946489E+00
       N       E                     dE             d eps       ncg     rms          rms(c)
DAV:   1    -0.460160888476E+02   -0.39675E+00   -0.59067E+00 15236   0.137E+01    0.102E+00
DAV:   2    -0.460306851870E+02   -0.14596E-01   -0.30133E-01 16600   0.302E+00    0.747E-01
DAV:   3    -0.460238691935E+02    0.68160E-02   -0.14597E-02 17452   0.983E-01    0.925E-02
DAV:   4    -0.460244513290E+02   -0.58214E-03   -0.72148E-03 16068   0.414E-01    0.468E-02
DAV:   5    -0.460244396156E+02    0.11713E-04   -0.17493E-04 15392   0.106E-01
  18 F= -.46024440E+02 E0= -.46024416E+02  d E =-.405089E+00
       N       E                     dE             d eps       ncg     rms          rms(c)
DAV:   1    -0.460414123668E+02   -0.16961E-01   -0.39494E-01 15324   0.355E+00    0.266E-01
DAV:   2    -0.460422451028E+02   -0.83274E-03   -0.18704E-02 16612   0.755E-01    0.194E-01
DAV:   3    -0.460418047258E+02    0.44038E-03   -0.10220E-03 17284   0.261E-01    0.203E-02
DAV:   4    -0.460418425314E+02   -0.37806E-04   -0.49378E-04 14884   0.110E-01
  19 F= -.46041843E+02 E0= -.46041810E+02  d E =-.422492E+00
       N       E                     dE             d eps       ncg     rms          rms(c)
DAV:   1    -0.462583038391E+02   -0.21650E+00   -0.19704E+00 14980   0.783E+00    0.488E-01
DAV:   2    -0.462639864653E+02   -0.56826E-02   -0.88358E-02 16644   0.160E+00    0.371E-01
DAV:   3    -0.462626655456E+02    0.13209E-02   -0.46955E-03 16924   0.482E-01    0.472E-02
DAV:   4    -0.462627737642E+02   -0.10822E-03   -0.14596E-03 16204   0.190E-01    0.287E-02
DAV:   5    -0.462627791836E+02   -0.54194E-05   -0.53525E-05  8888   0.521E-02
  20 F= -.46262779E+02 E0= -.46262767E+02  d E =-.220937E+00
       N       E                     dE             d eps       ncg     rms          rms(c)
DAV:   1    -0.463796049596E+02   -0.11683E+00   -0.29552E+00 14996   0.947E+00    0.568E-01
DAV:   2    -0.463880721835E+02   -0.84672E-02   -0.12475E-01 16624   0.189E+00    0.417E-01
DAV:   3    -0.463865666647E+02    0.15055E-02   -0.56198E-03 17312   0.503E-01    0.667E-02
DAV:   4    -0.463867322658E+02   -0.16560E-03   -0.17401E-03 16328   0.206E-01    0.353E-02
DAV:   5    -0.463867439344E+02   -0.11669E-04   -0.56168E-05  9328   0.509E-02
  21 F= -.46386744E+02 E0= -.46386764E+02  d E =-.344901E+00
       N       E                     dE             d eps       ncg     rms          rms(c)
DAV:   1    -0.465908084741E+02   -0.20408E+00   -0.11427E+00 14660   0.571E+00    0.328E-01
DAV:   2    -0.465933044849E+02   -0.24960E-02   -0.35410E-02 16848   0.997E-01    0.224E-01
DAV:   3    -0.465930873083E+02    0.21718E-03   -0.10915E-03 17724   0.244E-01    0.534E-02
DAV:   4    -0.465931611639E+02   -0.73856E-04   -0.60060E-04 15476   0.120E-01
  22 F= -.46593161E+02 E0= -.46593151E+02  d E =-.206417E+00
       N       E                     dE             d eps       ncg     rms          rms(c)
DAV:   1    -0.470377563119E+02   -0.44467E+00   -0.10225E+01 14692   0.170E+01    0.940E-01
DAV:   2    -0.470635638055E+02   -0.25807E-01   -0.32771E-01 16888   0.301E+00    0.668E-01
DAV:   3    -0.470614974966E+02    0.20663E-02   -0.95369E-03 17736   0.768E-01    0.133E-01
DAV:   4    -0.470622105091E+02   -0.71301E-03   -0.59743E-03 16592   0.378E-01    0.649E-02
DAV:   5    -0.470622170133E+02   -0.65043E-05   -0.92475E-05 13296   0.778E-02
  23 F= -.47062217E+02 E0= -.47062197E+02  d E =-.675473E+00
       N       E                     dE             d eps       ncg     rms          rms(c)
DAV:   1    -0.469358530351E+02    0.12636E+00   -0.39532E+01 14892   0.335E+01    0.181E+00
DAV:   2    -0.470577438646E+02   -0.12189E+00   -0.14407E+00 17040   0.612E+00    0.137E+00
DAV:   3    -0.470453097356E+02    0.12434E-01   -0.33175E-02 17532   0.146E+00    0.325E-01
DAV:   4    -0.470491443755E+02   -0.38346E-02   -0.27069E-02 16892   0.824E-01    0.126E-01
DAV:   5    -0.470489513744E+02    0.19300E-03   -0.51628E-04 16120   0.182E-01    0.518E-02
DAV:   6    -0.470490659529E+02   -0.11458E-03   -0.35992E-04 16648   0.994E-02    0.911E-03
DAV:   7    -0.470490718406E+02   -0.58877E-05   -0.30732E-05  8060   0.298E-02
  24 F= -.47049072E+02 E0= -.47049031E+02  d E =-.662328E+00
       N       E                     dE             d eps       ncg     rms          rms(c)
DAV:   1    -0.472087177773E+02   -0.15965E+00   -0.11676E+01 15236   0.186E+01    0.104E+00
DAV:   2    -0.472399238535E+02   -0.31206E-01   -0.39860E-01 16748   0.332E+00    0.742E-01
DAV:   3    -0.472372411990E+02    0.26827E-02   -0.13119E-02 17768   0.865E-01    0.120E-01
DAV:   4    -0.472381445687E+02   -0.90337E-03   -0.74241E-03 16432   0.432E-01    0.711E-02
DAV:   5    -0.472380907632E+02    0.53806E-04   -0.12106E-04 14760   0.961E-02
  25 F= -.47238091E+02 E0= -.47238082E+02  d E =-.851347E+00
       N       E                     dE             d eps       ncg     rms          rms(c)
DAV:   1    -0.473801591315E+02   -0.14201E+00   -0.75132E-01 15272   0.461E+00    0.258E-01
DAV:   2    -0.473819539748E+02   -0.17948E-02   -0.23019E-02 16600   0.792E-01    0.180E-01
DAV:   3    -0.473818342104E+02    0.11976E-03   -0.94686E-04 16980   0.205E-01    0.272E-02
DAV:   4    -0.473818741788E+02   -0.39968E-04   -0.35792E-04 13116   0.933E-02
  26 F= -.47381874E+02 E0= -.47381851E+02  d E =-.143783E+00
       N       E                     dE             d eps       ncg     rms          rms(c)
DAV:   1    -0.476842463006E+02   -0.30241E+00   -0.66574E+00 15304   0.137E+01    0.779E-01
DAV:   2    -0.477013534319E+02   -0.17107E-01   -0.21487E-01 16796   0.239E+00    0.552E-01
DAV:   3    -0.477001489880E+02    0.12044E-02   -0.82108E-03 16820   0.625E-01    0.875E-02
DAV:   4    -0.477006128984E+02   -0.46391E-03   -0.35687E-03 16676   0.292E-01    0.565E-02
DAV:   5    -0.477005821442E+02    0.30754E-04   -0.86041E-05 11924   0.680E-02
  27 F= -.47700582E+02 E0= -.47700556E+02  d E =-.462491E+00
       N       E                     dE             d eps       ncg     rms          rms(c)
DAV:   1    -0.476689738552E+02    0.31639E-01   -0.25193E+01 15208   0.270E+01    0.157E+00
DAV:   2    -0.477355044199E+02   -0.66531E-01   -0.88155E-01 16852   0.478E+00    0.114E+00
DAV:   3    -0.477268424728E+02    0.86619E-02   -0.31705E-02 16968   0.127E+00    0.213E-01
DAV:   4    -0.477291898277E+02   -0.23474E-02   -0.16367E-02 16888   0.629E-01    0.110E-01
DAV:   5    -0.477291916058E+02   -0.17782E-05   -0.40296E-04 16352   0.151E-01
  28 F= -.47729192E+02 E0= -.47729211E+02  d E =-.491101E+00
       N       E                     dE             d eps       ncg     rms          rms(c)
DAV:   1    -0.478144023088E+02   -0.85212E-01   -0.61147E+00 15236   0.135E+01    0.798E-01
DAV:   2    -0.478279895938E+02   -0.13587E-01   -0.20267E-01 16800   0.233E+00    0.561E-01
DAV:   3    -0.478260964720E+02    0.18931E-02   -0.78243E-03 17072   0.626E-01    0.113E-01
DAV:   4    -0.478267210971E+02   -0.62463E-03   -0.40263E-03 16884   0.312E-01    0.562E-02
DAV:   5    -0.478266904886E+02    0.30608E-04   -0.10465E-04 13196   0.782E-02
  29 F= -.47826690E+02 E0= -.47826690E+02  d E =-.588600E+00
       N       E                     dE             d eps       ncg     rms          rms(c)
DAV:   1    -0.480580467013E+02   -0.23133E+00   -0.16861E+00 15412   0.722E+00    0.490E-01
DAV:   2    -0.480619709446E+02   -0.39242E-02   -0.69615E-02 16640   0.144E+00    0.371E-01
DAV:   3    -0.480603073536E+02    0.16636E-02   -0.39098E-03 17288   0.514E-01    0.434E-02
DAV:   4    -0.480605191366E+02   -0.21178E-03   -0.22852E-03 16248   0.229E-01    0.295E-02
DAV:   5    -0.480605005297E+02    0.18607E-04   -0.38808E-05  9136   0.535E-02
  30 F= -.48060501E+02 E0= -.48060493E+02  d E =-.233810E+00
       N       E                     dE             d eps       ncg     rms          rms(c)
DAV:   1    -0.481794610432E+02   -0.11894E+00   -0.35690E+00 15532   0.105E+01    0.702E-01
DAV:   2    -0.481877374904E+02   -0.82764E-02   -0.14422E-01 16720   0.208E+00    0.531E-01
DAV:   3    -0.481843369465E+02    0.34005E-02   -0.74639E-03 17288   0.719E-01    0.669E-02
DAV:   4    -0.481848021949E+02   -0.46525E-03   -0.46882E-03 16292   0.327E-01    0.425E-02
DAV:   5    -0.481847635325E+02    0.38662E-04   -0.68013E-05 12776   0.733E-02
  31 F= -.48184764E+02 E0= -.48184734E+02  d E =-.358073E+00
       N       E                     dE             d eps       ncg     rms          rms(c)
DAV:   1    -0.482474321052E+02   -0.62630E-01   -0.27104E-01 15104   0.272E+00    0.190E-01
DAV:   2    -0.482480319921E+02   -0.59989E-03   -0.97075E-03 16716   0.518E-01    0.128E-01
DAV:   3    -0.482479466887E+02    0.85303E-04   -0.60026E-04 17320   0.133E-01
  32 F= -.48247947E+02 E0= -.48247889E+02  d E =-.631832E-01
       N       E                     dE             d eps       ncg     rms          rms(c)
DAV:   1    -0.483763354128E+02   -0.12830E+00   -0.23831E+00 15132   0.814E+00    0.555E-01
DAV:   2    -0.483824723263E+02   -0.61369E-02   -0.88415E-02 16728   0.157E+00    0.383E-01
DAV:   3    -0.483818259563E+02    0.64637E-03   -0.45993E-03 17388   0.394E-01    0.657E-02
DAV:   4    -0.483819548208E+02   -0.12886E-03   -0.13152E-03 16624   0.187E-01    0.434E-02
DAV:   5    -0.483819108397E+02    0.43981E-04   -0.54169E-05  9156   0.458E-02
  33 F= -.48381911E+02 E0= -.48381717E+02  d E =-.197147E+00
       N       E                     dE             d eps       ncg     rms          rms(c)
DAV:   1    -0.483244891627E+02    0.57466E-01   -0.92272E+00 15228   0.163E+01    0.108E+00
DAV:   2    -0.483511040527E+02   -0.26615E-01   -0.36760E-01 16756   0.322E+00    0.776E-01
DAV:   3    -0.483480409737E+02    0.30631E-02   -0.92020E-03 17584   0.688E-01    0.335E-01
DAV:   4    -0.483481867733E+02   -0.14580E-03   -0.79410E-03 16352   0.548E-01    0.122E-01
DAV:   5    -0.483477719828E+02    0.41479E-03   -0.15509E-03 15928   0.218E-01    0.593E-02
DAV:   6    -0.483477752518E+02   -0.32690E-05   -0.26996E-04 16332   0.983E-02
  34 F= -.48347775E+02 E0= -.48347287E+02  d E =-.163012E+00
       N       E                     dE             d eps       ncg     rms          rms(c)
DAV:   1    -0.484128873030E+02   -0.65115E-01   -0.33665E+00 15424   0.991E+00    0.669E-01
DAV:   2    -0.484224292178E+02   -0.95419E-02   -0.13700E-01 16616   0.196E+00    0.465E-01
DAV:   3    -0.484212870248E+02    0.11422E-02   -0.51892E-03 17648   0.460E-01    0.110E-01
DAV:   4    -0.484215576677E+02   -0.27064E-03   -0.22089E-03 16596   0.259E-01    0.551E-02
DAV:   5    -0.484214741012E+02    0.83566E-04   -0.19641E-04 14412   0.811E-02
  35 F= -.48421474E+02 E0= -.48421111E+02  d E =-.236711E+00
       N       E                     dE             d eps       ncg     rms          rms(c)
DAV:   1    -0.484778638551E+02   -0.56306E-01   -0.21943E-01 15636   0.255E+00    0.171E-01
DAV:   2    -0.484785043751E+02   -0.64052E-03   -0.95835E-03 16628   0.520E-01    0.124E-01
DAV:   3    -0.484783635562E+02    0.14082E-03   -0.31751E-04 17608   0.123E-01    0.439E-02
DAV:   4    -0.484783786054E+02   -0.15049E-04   -0.21105E-04 15816   0.874E-02
  36 F= -.48478379E+02 E0= -.48477977E+02  d E =-.569045E-01
       N       E                     dE             d eps       ncg     rms          rms(c)
DAV:   1    -0.485823412172E+02   -0.10398E+00   -0.19669E+00 15764   0.764E+00    0.520E-01
DAV:   2    -0.485886740853E+02   -0.63329E-02   -0.89242E-02 16692   0.158E+00    0.377E-01
DAV:   3    -0.485876200229E+02    0.10541E-02   -0.22074E-03 17656   0.331E-01    0.179E-01
DAV:   4    -0.485876987391E+02   -0.78716E-04   -0.21936E-03 16340   0.302E-01    0.590E-02
DAV:   5    -0.485876094886E+02    0.89251E-04   -0.50553E-04 15844   0.126E-01
  37 F= -.48587609E+02 E0= -.48587152E+02  d E =-.166135E+00
       N       E                     dE             d eps       ncg     rms          rms(c)
DAV:   1    -0.485046643067E+02    0.83034E-01   -0.76650E+00 15796   0.152E+01    0.104E+00
DAV:   2    -0.485312282278E+02   -0.26564E-01   -0.37688E-01 16924   0.320E+00    0.758E-01
DAV:   3    -0.485263091325E+02    0.49191E-02   -0.76969E-03 17488   0.624E-01    0.400E-01
DAV:   4    -0.485264091335E+02   -0.10000E-03   -0.96873E-03 16356   0.655E-01    0.112E-01
DAV:   5    -0.485261479033E+02    0.26123E-03   -0.26188E-03 15836   0.283E-01    0.532E-02
DAV:   6    -0.485261665057E+02   -0.18602E-04   -0.28588E-04 16072   0.939E-02
  38 F= -.48526167E+02 E0= -.48525773E+02  d E =-.104692E+00
       N       E                     dE             d eps       ncg     rms          rms(c)
DAV:   1    -0.485995558510E+02   -0.73408E-01   -0.34592E+00 15736   0.103E+01    0.684E-01
DAV:   2    -0.486124209750E+02   -0.12865E-01   -0.17788E-01 16780   0.223E+00    0.512E-01
DAV:   3    -0.486102265468E+02    0.21944E-02   -0.35237E-03 17604   0.425E-01    0.276E-01
DAV:   4    -0.486102557622E+02   -0.29215E-04   -0.48740E-03 16352   0.472E-01    0.842E-02
DAV:   5    -0.486101040610E+02    0.15170E-03   -0.13461E-03 15852   0.206E-01    0.380E-02
DAV:   6    -0.486101067059E+02   -0.26449E-05   -0.13753E-04 11268   0.657E-02
  39 F= -.48610107E+02 E0= -.48609662E+02  d E =-.188633E+00
       N       E                     dE             d eps       ncg     rms          rms(c)
DAV:   1    -0.486428027698E+02   -0.32699E-01   -0.13711E-01 15512   0.204E+00    0.127E-01
DAV:   2    -0.486432223672E+02   -0.41960E-03   -0.53537E-03 16756   0.387E-01    0.968E-02
DAV:   3    -0.486431613696E+02    0.60998E-04   -0.60069E-05 13988   0.708E-02
  40 F= -.48643161E+02 E0= -.48642742E+02  d E =-.330547E-01
       N       E                     dE             d eps       ncg     rms          rms(c)
DAV:   1    -0.487108979918E+02   -0.67676E-01   -0.12273E+00 15568   0.609E+00    0.377E-01
DAV:   2    -0.487145597412E+02   -0.36617E-02   -0.44797E-02 16736   0.112E+00    0.284E-01
DAV:   3    -0.487141222331E+02    0.43751E-03   -0.56114E-04 17336   0.209E-01    0.164E-01
DAV:   4    -0.487142232879E+02   -0.10105E-03   -0.11049E-03 16192   0.253E-01    0.412E-02
DAV:   5    -0.487141890272E+02    0.34261E-04   -0.42525E-04 15592   0.114E-01
  41 F= -.48714189E+02 E0= -.48713826E+02  d E =-.104082E+00
       N       E                     dE             d eps       ncg     rms          rms(c)
DAV:   1    -0.487149208797E+02   -0.69759E-03   -0.49352E+00 15428   0.122E+01    0.778E-01
DAV:   2    -0.487306185774E+02   -0.15698E-01   -0.19803E-01 16764   0.235E+00    0.588E-01
DAV:   3    -0.487283956989E+02    0.22229E-02   -0.23776E-03 17232   0.427E-01    0.340E-01
DAV:   4    -0.487287604888E+02   -0.36479E-03   -0.47549E-03 16052   0.521E-01    0.820E-02
DAV:   5    -0.487286288931E+02    0.13160E-03   -0.17756E-03 15836   0.233E-01    0.389E-02
DAV:   6    -0.487286280196E+02    0.87353E-06   -0.12233E-04 13468   0.707E-02
  42 F= -.48728628E+02 E0= -.48728360E+02  d E =-.118521E+00
       N       E                     dE             d eps       ncg     rms          rms(c)
DAV:   1    -0.487413772642E+02   -0.12748E-01   -0.86567E-01 15212   0.512E+00    0.326E-01
DAV:   2    -0.487439474036E+02   -0.25701E-02   -0.33657E-02 16780   0.970E-01    0.245E-01
DAV:   3    -0.487435692214E+02    0.37818E-03   -0.44065E-04 17284   0.184E-01    0.139E-01
DAV:   4    -0.487436171150E+02   -0.47894E-04   -0.82914E-04 16160   0.217E-01
  43 F= -.48743617E+02 E0= -.48743321E+02  d E =-.133510E+00
       N       E                     dE             d eps       ncg     rms          rms(c)
DAV:   1    -0.487766009873E+02   -0.33032E-01   -0.15706E-01 15144   0.215E+00    0.137E-01
DAV:   2    -0.487768977949E+02   -0.29681E-03   -0.50817E-03 16820   0.382E-01    0.984E-02
DAV:   3    -0.487768148427E+02    0.82952E-04   -0.10493E-04 14228   0.760E-02
  44 F= -.48776815E+02 E0= -.48776531E+02  d E =-.331977E-01
       N       E                     dE             d eps       ncg     rms          rms(c)
DAV:   1    -0.488463051689E+02   -0.69407E-01   -0.14068E+00 15216   0.645E+00    0.416E-01
DAV:   2    -0.488496827368E+02   -0.33776E-02   -0.46629E-02 16860   0.115E+00    0.297E-01
DAV:   3    -0.488492164836E+02    0.46625E-03   -0.96340E-04 17364   0.222E-01    0.158E-01
DAV:   4    -0.488493293262E+02   -0.11284E-03   -0.11711E-03 16076   0.224E-01    0.425E-02
DAV:   5    -0.488492851522E+02    0.44174E-04   -0.27015E-04 15304   0.921E-02
  45 F= -.48849285E+02 E0= -.48849020E+02  d E =-.105668E+00
       N       E                     dE             d eps       ncg     rms          rms(c)
DAV:   1    -0.488521441274E+02   -0.28148E-02   -0.56404E+00 14904   0.130E+01    0.859E-01
DAV:   2    -0.488658534453E+02   -0.13709E-01   -0.20165E-01 16904   0.239E+00    0.613E-01
DAV:   3    -0.488634526719E+02    0.24008E-02   -0.42404E-03 17236   0.465E-01    0.322E-01
DAV:   4    -0.488639297334E+02   -0.47706E-03   -0.49785E-03 16016   0.456E-01    0.837E-02
DAV:   5    -0.488637517779E+02    0.17796E-03   -0.11352E-03 15724   0.189E-01    0.412E-02
DAV:   6    -0.488637640757E+02   -0.12298E-04   -0.12643E-04 11952   0.633E-02
  46 F= -.48863764E+02 E0= -.48863529E+02  d E =-.120147E+00
       N       E                     dE             d eps       ncg     rms          rms(c)
DAV:   1    -0.488776746492E+02   -0.13923E-01   -0.10571E+00 14696   0.563E+00    0.364E-01
DAV:   2    -0.488803175124E+02   -0.26429E-02   -0.38150E-02 16864   0.104E+00    0.265E-01
DAV:   3    -0.488798417324E+02    0.47578E-03   -0.74208E-04 17272   0.200E-01    0.139E-01
DAV:   4    -0.488799214715E+02   -0.79739E-04   -0.10655E-03 16048   0.210E-01    0.403E-02
DAV:   5    -0.488798821611E+02    0.39310E-04   -0.24150E-04 14864   0.876E-02
  47 F= -.48879882E+02 E0= -.48879638E+02  d E =-.136265E+00
       N       E                     dE             d eps       ncg     rms          rms(c)
DAV:   1    -0.489091399274E+02   -0.29218E-01   -0.19380E-01 14508   0.244E+00    0.153E-01
DAV:   2    -0.489097029205E+02   -0.56299E-03   -0.85321E-03 16784   0.479E-01    0.115E-01
DAV:   3    -0.489095775778E+02    0.12534E-03   -0.21119E-04 16752   0.998E-02    0.409E-02
DAV:   4    -0.489095915334E+02   -0.13956E-04   -0.16135E-04 14048   0.772E-02
  48 F= -.48909592E+02 E0= -.48909337E+02  d E =-.297094E-01
       N       E                     dE             d eps       ncg     rms          rms(c)
DAV:   1    -0.489435795730E+02   -0.34002E-01   -0.17572E+00 14568   0.733E+00    0.467E-01
DAV:   2    -0.489489934621E+02   -0.54139E-02   -0.78949E-02 16768   0.145E+00    0.349E-01
DAV:   3    -0.489479485134E+02    0.10449E-02   -0.21716E-03 16660   0.316E-01    0.105E-01
DAV:   4    -0.489481285512E+02   -0.18004E-03   -0.13792E-03 16528   0.217E-01    0.473E-02
DAV:   5    -0.489480552421E+02    0.73309E-04   -0.18744E-04 14504   0.795E-02
  49 F= -.48948055E+02 E0= -.48947780E+02  d E =-.681731E-01
       N       E                     dE             d eps       ncg     rms          rms(c)
DAV:   1    -0.489786852429E+02   -0.30557E-01   -0.32473E-01 14428   0.313E+00    0.197E-01
DAV:   2    -0.489795463042E+02   -0.86106E-03   -0.12584E-02 16644   0.588E-01    0.145E-01
DAV:   3    -0.489794041035E+02    0.14220E-03   -0.29046E-04 16568   0.122E-01    0.471E-02
DAV:   4    -0.489794333799E+02   -0.29276E-04   -0.19186E-04 15280   0.823E-02
  50 F= -.48979433E+02 E0= -.48979157E+02  d E =-.313781E-01
       N       E                     dE             d eps       ncg     rms          rms(c)
DAV:   1    -0.490085621362E+02   -0.29158E-01   -0.19882E+00 14432   0.773E+00    0.483E-01
DAV:   2    -0.490140356331E+02   -0.54735E-02   -0.77976E-02 16640   0.146E+00    0.355E-01
DAV:   3    -0.490131998118E+02    0.83582E-03   -0.20316E-03 16496   0.310E-01    0.919E-02
DAV:   4    -0.490133747844E+02   -0.17497E-03   -0.97925E-04 16544   0.176E-01    0.366E-02
DAV:   5    -0.490133226004E+02    0.52184E-04   -0.10141E-04 10396   0.622E-02
  51 F= -.49013323E+02 E0= -.49013040E+02  d E =-.652674E-01
       N       E                     dE             d eps       ncg     rms          rms(c)
DAV:   1    -0.490456269384E+02   -0.32252E-01   -0.34101E-01 14744   0.319E+00    0.215E-01
DAV:   2    -0.490462305214E+02   -0.60358E-03   -0.10998E-02 16792   0.559E-01    0.154E-01
DAV:   3    -0.490460636446E+02    0.16688E-03   -0.39267E-04 16772   0.142E-01    0.451E-02
DAV:   4    -0.490460970385E+02   -0.33394E-04   -0.25982E-04 15712   0.930E-02
  52 F= -.49046097E+02 E0= -.49045819E+02  d E =-.327744E-01
       N       E                     dE             d eps       ncg     rms          rms(c)
DAV:   1    -0.490859245484E+02   -0.39861E-01   -0.30481E+00 14820   0.953E+00    0.633E-01
DAV:   2    -0.490918309327E+02   -0.59064E-02   -0.10081E-01 16732   0.168E+00    0.453E-01
DAV:   3    -0.490904759596E+02    0.13550E-02   -0.39339E-03 16884   0.445E-01    0.962E-02
DAV:   4    -0.490907942782E+02   -0.31832E-03   -0.21313E-03 16656   0.246E-01    0.491E-02
DAV:   5    -0.490907282971E+02    0.65981E-04   -0.13073E-04 12276   0.695E-02
  53 F= -.49090728E+02 E0= -.49090477E+02  d E =-.774057E-01
       N       E                     dE             d eps       ncg     rms          rms(c)
DAV:   1    -0.491157187247E+02   -0.24924E-01   -0.23537E-01 14868   0.264E+00    0.172E-01
DAV:   2    -0.491161845199E+02   -0.46580E-03   -0.73910E-03 16664   0.452E-01    0.123E-01
DAV:   3    -0.491161016800E+02    0.82840E-04   -0.32319E-04 16292   0.120E-01
  54 F= -.49116102E+02 E0= -.49115861E+02  d E =-.253734E-01
       N       E                     dE             d eps       ncg     rms          rms(c)
DAV:   1    -0.491550185304E+02   -0.38834E-01   -0.21042E+00 14904   0.791E+00    0.503E-01
DAV:   2    -0.491594710106E+02   -0.44525E-02   -0.67625E-02 16668   0.136E+00    0.363E-01
DAV:   3    -0.491587246670E+02    0.74634E-03   -0.29210E-03 16364   0.362E-01    0.450E-02
DAV:   4    -0.491588553346E+02   -0.13067E-03   -0.10880E-03 16752   0.166E-01    0.318E-02
DAV:   5    -0.491588347422E+02    0.20592E-04   -0.25937E-05  8456   0.343E-02
  55 F= -.49158835E+02 E0= -.49158627E+02  d E =-.681064E-01
       N       E                     dE             d eps       ncg     rms          rms(c)
DAV:   1    -0.491617336338E+02   -0.28783E-02   -0.25452E-01 14940   0.275E+00    0.177E-01
DAV:   2    -0.491622542530E+02   -0.52062E-03   -0.81785E-03 16560   0.474E-01    0.128E-01
DAV:   3    -0.491621604988E+02    0.93754E-04   -0.39872E-04 16308   0.132E-01
  56 F= -.49162160E+02 E0= -.49161964E+02  d E =-.714322E-01
       N       E                     dE             d eps       ncg     rms          rms(c)
DAV:   1    -0.491774180560E+02   -0.15164E-01   -0.22072E-01 14972   0.256E+00    0.161E-01
DAV:   2    -0.491778947238E+02   -0.47667E-03   -0.68902E-03 16644   0.430E-01    0.116E-01
DAV:   3    -0.491778312820E+02    0.63442E-04   -0.25509E-04 16912   0.121E-01
  57 F= -.49177831E+02 E0= -.49177654E+02  d E =-.156708E-01
       N       E                     dE             d eps       ncg     rms          rms(c)
DAV:   1    -0.491954305764E+02   -0.17536E-01   -0.19839E+00 14960   0.767E+00    0.477E-01
DAV:   2    -0.491995411748E+02   -0.41106E-02   -0.61607E-02 16600   0.129E+00    0.342E-01
DAV:   3    -0.491988872848E+02    0.65389E-03   -0.22642E-03 16884   0.355E-01    0.429E-02
DAV:   4    -0.491989928204E+02   -0.10554E-03   -0.10114E-03 16236   0.161E-01    0.281E-02
DAV:   5    -0.491989795757E+02    0.13245E-04   -0.23036E-05  8628   0.383E-02
  58 F= -.49198980E+02 E0= -.49198858E+02  d E =-.368191E-01
       N       E                     dE             d eps       ncg     rms          rms(c)
DAV:   1    -0.492173701144E+02   -0.18377E-01   -0.42518E-01 14916   0.354E+00    0.228E-01
DAV:   2    -0.492180342221E+02   -0.66411E-03   -0.12138E-02 16512   0.573E-01    0.158E-01
DAV:   3    -0.492178708055E+02    0.16342E-03   -0.76013E-04 16392   0.171E-01    0.188E-02
DAV:   4    -0.492178800928E+02   -0.92873E-05   -0.20111E-04 12428   0.739E-02
  59 F= -.49217880E+02 E0= -.49217763E+02  d E =-.189005E-01
       N       E                     dE             d eps       ncg     rms          rms(c)
DAV:   1    -0.492274262723E+02   -0.95555E-02   -0.93655E-01 14880   0.526E+00    0.339E-01
DAV:   2    -0.492289585345E+02   -0.15323E-02   -0.27097E-02 16464   0.856E-01    0.234E-01
DAV:   3    -0.492286171429E+02    0.34139E-03   -0.16113E-03 16396   0.249E-01    0.267E-02
DAV:   4    -0.492286418155E+02   -0.24673E-04   -0.42947E-04 15884   0.107E-01
  60 F= -.49228642E+02 E0= -.49228530E+02  d E =-.296622E-01
