   19   19   99    2
  0.8264859E+01  0.4585518E-09  0.5277874E-09  0.6660467E-09  0.5000000E-15
  1.000000000000000E-004
  CAR 
 unknown system                          
     47     31     48
 
  0.3742002E-15  0.3742002E-15  0.3742002E-15  0.1666667E-01
    1      -34.795446    -34.792716   1.000000   1.000000
    2      -34.545085    -34.535823   1.000000   1.000000
    3      -29.890714    -29.515938   1.000000   1.000000
    4      -29.713247    -29.319735   1.000000   1.000000
    5      -29.669056    -29.063858   1.000000   1.000000
    6      -16.891266    -16.889775   1.000000   1.000000
    7      -16.762687    -16.760090   1.000000   1.000000
    8      -16.717127    -16.710147   1.000000   1.000000
    9      -16.587004    -16.579242   1.000000   1.000000
   10      -16.519173    -16.513418   1.000000   1.000000
   11      -16.507122    -16.485315   1.000000   1.000000
   12       -8.524546     -8.450315   1.000000   1.000000
   13       -7.288584     -7.246567   1.000000   1.000000
   14       -6.478401     -6.419294   1.000000   1.000000
   15       -6.271883     -6.259726   1.000000   1.000000
   16       -4.229706     -4.153802   1.000000   1.000000
   17       -2.606581     -2.518322   1.000000   1.000000
   18       -2.367166     -2.296176   1.000000   1.000000
   19       -2.246006     -2.146078   1.000000   1.000000
   20       -1.950888     -1.847609   1.000000   1.000000
   21       -1.713000     -1.649014   1.000000   1.000000
   22       -1.188881     -1.128595   1.000000   1.000000
   23       -0.626341     -0.556503   1.000000   1.000000
   24        0.371900      1.378690   1.000000   0.000000
   25        2.856757      3.026702   0.000000   0.000000
   26        3.569048      3.642980   0.000000   0.000000
   27        3.985584      4.055519   0.000000   0.000000
   28        4.095947      4.193633   0.000000   0.000000
   29        4.368636      4.514755   0.000000   0.000000
   30        4.695358      4.768118   0.000000   0.000000
   31        4.775588      4.849395   0.000000   0.000000
   32        4.967263      5.030676   0.000000   0.000000
   33        5.561611      5.683619   0.000000   0.000000
   34        5.803803      5.876396   0.000000   0.000000
   35        6.112122      6.202978   0.000000   0.000000
   36        6.419189      6.559536   0.000000   0.000000
   37        6.645332      6.711888   0.000000   0.000000
   38        6.748099      6.884722   0.000000   0.000000
   39        6.876467      6.977699   0.000000   0.000000
   40        7.726218      7.808415   0.000000   0.000000
   41        7.995913      8.195362   0.000000   0.000000
   42        8.150230      8.254941   0.000000   0.000000
   43        8.442354      8.547633   0.000000   0.000000
   44        8.467482      8.620104   0.000000   0.000000
   45        8.920345      9.088038   0.000000   0.000000
   46        9.138933      9.208265   0.000000   0.000000
   47        9.489659      9.560433   0.000000   0.000000
   48        9.875266      9.997192   0.000000   0.000000
 
  0.2000000E+00  0.3733992E-15  0.3747003E-15  0.3333333E-01
    1      -34.795161    -34.792431   1.000000   1.000000
    2      -34.544866    -34.535599   1.000000   1.000000
    3      -29.891828    -29.516445   1.000000   1.000000
    4      -29.713213    -29.319637   1.000000   1.000000
    5      -29.668960    -29.064428   1.000000   1.000000
    6      -16.889663    -16.888180   1.000000   1.000000
    7      -16.773701    -16.771002   1.000000   1.000000
    8      -16.713156    -16.706309   1.000000   1.000000
    9      -16.590751    -16.583102   1.000000   1.000000
   10      -16.529357    -16.522909   1.000000   1.000000
   11      -16.510158    -16.488864   1.000000   1.000000
   12       -8.361144     -8.288030   1.000000   1.000000
   13       -7.265565     -7.228613   1.000000   1.000000
   14       -6.530456     -6.485789   1.000000   1.000000
   15       -6.335609     -6.308343   1.000000   1.000000
   16       -4.190121     -4.106745   1.000000   1.000000
   17       -2.640624     -2.561566   1.000000   1.000000
   18       -2.490452     -2.397436   1.000000   1.000000
   19       -2.222489     -2.127022   1.000000   1.000000
   20       -1.927672     -1.836360   1.000000   1.000000
   21       -1.686305     -1.616428   1.000000   1.000000
   22       -1.282280     -1.189680   1.000000   1.000000
   23       -0.866461     -0.795844   1.000000   1.000000
   24        0.705713      1.759195   1.000000   0.000000
   25        2.863851      3.017575   0.000000   0.000000
   26        3.554110      3.611018   0.000000   0.000000
   27        3.899645      3.984729   0.000000   0.000000
   28        4.026665      4.152490   0.000000   0.000000
   29        4.280015      4.448421   0.000000   0.000000
   30        4.862596      4.923971   0.000000   0.000000
   31        4.991921      5.068514   0.000000   0.000000
   32        5.175944      5.251953   0.000000   0.000000
   33        5.548332      5.605920   0.000000   0.000000
   34        5.860354      5.979000   0.000000   0.000000
   35        6.074910      6.184062   0.000000   0.000000
   36        6.273698      6.344065   0.000000   0.000000
   37        6.502707      6.680328   0.000000   0.000000
   38        6.823616      6.874162   0.000000   0.000000
   39        7.254965      7.336675   0.000000   0.000000
   40        7.376786      7.494934   0.000000   0.000000
   41        7.661755      7.754126   0.000000   0.000000
   42        8.035425      8.126700   0.000000   0.000000
   43        8.182660      8.281098   0.000000   0.000000
   44        8.666665      8.729662   0.000000   0.000000
   45        8.837320      8.936067   0.000000   0.000000
   46        9.231560      9.338572   0.000000   0.000000
   47        9.662689      9.740718   0.000000   0.000000
   48        9.850123      9.997849   0.000000   0.000000
 
  0.4000000E+00  0.3675445E-15  0.3642919E-15  0.3333333E-01
    1      -34.794701    -34.791973   1.000000   1.000000
    2      -34.544515    -34.535237   1.000000   1.000000
    3      -29.893630    -29.517269   1.000000   1.000000
    4      -29.713158    -29.319480   1.000000   1.000000
    5      -29.668807    -29.065339   1.000000   1.000000
    6      -16.887130    -16.885665   1.000000   1.000000
    7      -16.793222    -16.790329   1.000000   1.000000
    8      -16.704388    -16.697749   1.000000   1.000000
    9      -16.597693    -16.590279   1.000000   1.000000
   10      -16.548806    -16.540737   1.000000   1.000000
   11      -16.511415    -16.491428   1.000000   1.000000
   12       -7.989470     -7.911872   1.000000   1.000000
   13       -7.334423     -7.313085   1.000000   1.000000
   14       -6.604328     -6.584985   1.000000   1.000000
   15       -6.461533     -6.406485   1.000000   1.000000
   16       -4.130288     -4.036064   1.000000   1.000000
   17       -2.739753     -2.657237   1.000000   1.000000
   18       -2.487338     -2.391138   1.000000   1.000000
   19       -2.190276     -2.112749   1.000000   1.000000
   20       -1.969299     -1.871794   1.000000   1.000000
   21       -1.848678     -1.741236   1.000000   1.000000
   22       -1.399926     -1.298362   1.000000   1.000000
   23       -0.931851     -0.903355   1.000000   1.000000
   24        1.043359      2.244950   1.000000   0.000000
   25        2.947114      3.084987   0.000000   0.000000
   26        3.603515      3.743367   0.000000   0.000000
   27        3.783177      3.880404   0.000000   0.000000
   28        3.939804      4.016408   0.000000   0.000000
   29        4.394898      4.536949   0.000000   0.000000
   30        4.893652      4.992074   0.000000   0.000000
   31        5.123858      5.209714   0.000000   0.000000
   32        5.320484      5.367156   0.000000   0.000000
   33        5.566349      5.616730   0.000000   0.000000
   34        5.687901      5.780728   0.000000   0.000000
   35        6.022313      6.081054   0.000000   0.000000
   36        6.168343      6.251083   0.000000   0.000000
   37        6.585263      6.662865   0.000000   0.000000
   38        6.709996      6.783916   0.000000   0.000000
   39        7.006271      7.105688   0.000000   0.000000
   40        7.151797      7.215489   0.000000   0.000000
   41        7.521181      7.599698   0.000000   0.000000
   42        7.756703      7.855040   0.000000   0.000000
   43        8.183909      8.267890   0.000000   0.000000
   44        8.748213      8.848321   0.000000   0.000000
   45        9.076503      9.205571   0.000000   0.000000
   46        9.646092      9.696429   0.000000   0.000000
   47        9.826326      9.926739   0.000000   0.000000
   48       10.280862     10.348883   0.000000   0.000000
 
  0.3731299E-15  0.2500000E+00  0.3608225E-15  0.3333333E-01
    1      -34.795358    -34.792626   1.000000   1.000000
    2      -34.545085    -34.535816   1.000000   1.000000
    3      -29.890694    -29.515979   1.000000   1.000000
    4      -29.713296    -29.319799   1.000000   1.000000
    5      -29.669135    -29.063880   1.000000   1.000000
    6      -16.900704    -16.899233   1.000000   1.000000
    7      -16.762209    -16.759629   1.000000   1.000000
    8      -16.715915    -16.708878   1.000000   1.000000
    9      -16.588111    -16.580248   1.000000   1.000000
   10      -16.522089    -16.515838   1.000000   1.000000
   11      -16.509733    -16.488269   1.000000   1.000000
   12       -8.363674     -8.285834   1.000000   1.000000
   13       -7.264710     -7.225003   1.000000   1.000000
   14       -6.681290     -6.631036   1.000000   1.000000
   15       -6.216581     -6.198603   1.000000   1.000000
   16       -4.112927     -4.032127   1.000000   1.000000
   17       -2.683383     -2.626030   1.000000   1.000000
   18       -2.405922     -2.305210   1.000000   1.000000
   19       -2.289500     -2.207445   1.000000   1.000000
   20       -2.048951     -1.954233   1.000000   1.000000
   21       -1.487464     -1.385219   1.000000   1.000000
   22       -1.232585     -1.179816   1.000000   1.000000
   23       -0.864157     -0.794397   1.000000   1.000000
   24        0.440442      1.472625   1.000000   0.000000
   25        2.939809      3.074408   0.000000   0.000000
   26        3.472106      3.545801   0.000000   0.000000
   27        3.756095      3.866294   0.000000   0.000000
   28        4.145852      4.268740   0.000000   0.000000
   29        4.366233      4.470487   0.000000   0.000000
   30        4.634328      4.704413   0.000000   0.000000
   31        4.943355      5.052076   0.000000   0.000000
   32        5.148659      5.200961   0.000000   0.000000
   33        5.610816      5.680270   0.000000   0.000000
   34        5.806149      5.873760   0.000000   0.000000
   35        5.936762      6.124042   0.000000   0.000000
   36        6.252106      6.351032   0.000000   0.000000
   37        6.592281      6.660035   0.000000   0.000000
   38        6.748859      6.838484   0.000000   0.000000
   39        6.993396      7.080865   0.000000   0.000000
   40        7.435947      7.601030   0.000000   0.000000
   41        7.950857      8.042204   0.000000   0.000000
   42        8.342030      8.413871   0.000000   0.000000
   43        8.391857      8.530545   0.000000   0.000000
   44        8.717493      8.864425   0.000000   0.000000
   45        8.886031      8.993972   0.000000   0.000000
   46        9.516784      9.604207   0.000000   0.000000
   47        9.920455     10.055960   0.000000   0.000000
   48       10.445429     10.511951   0.000000   0.000000
 
  0.2000000E+00  0.2500000E+00  0.3469447E-15  0.3333333E-01
    1      -34.795078    -34.792349   1.000000   1.000000
    2      -34.544832    -34.535567   1.000000   1.000000
    3      -29.891838    -29.516475   1.000000   1.000000
    4      -29.713332    -29.319722   1.000000   1.000000
    5      -29.669073    -29.064564   1.000000   1.000000
    6      -16.898904    -16.897427   1.000000   1.000000
    7      -16.772875    -16.770141   1.000000   1.000000
    8      -16.712252    -16.705407   1.000000   1.000000
    9      -16.591949    -16.584314   1.000000   1.000000
   10      -16.530638    -16.524621   1.000000   1.000000
   11      -16.512550    -16.490744   1.000000   1.000000
   12       -8.206160     -8.128813   1.000000   1.000000
   13       -7.250296     -7.213560   1.000000   1.000000
   14       -6.677127     -6.632519   1.000000   1.000000
   15       -6.324866     -6.302355   1.000000   1.000000
   16       -4.050627     -3.962693   1.000000   1.000000
   17       -2.746571     -2.684096   1.000000   1.000000
   18       -2.543423     -2.440782   1.000000   1.000000
   19       -2.254425     -2.167337   1.000000   1.000000
   20       -1.982194     -1.904332   1.000000   1.000000
   21       -1.608468     -1.514076   1.000000   1.000000
   22       -1.360796     -1.270510   1.000000   1.000000
   23       -0.870347     -0.810142   1.000000   1.000000
   24        0.617418      1.660380   1.000000   0.000000
   25        2.992044      3.160491   0.000000   0.000000
   26        3.553707      3.629248   0.000000   0.000000
   27        3.839129      3.949598   0.000000   0.000000
   28        4.123254      4.254821   0.000000   0.000000
   29        4.353447      4.467218   0.000000   0.000000
   30        4.664707      4.713986   0.000000   0.000000
   31        5.107068      5.223296   0.000000   0.000000
   32        5.415719      5.467396   0.000000   0.000000
   33        5.488962      5.578211   0.000000   0.000000
   34        5.718453      5.767050   0.000000   0.000000
   35        5.955561      6.083319   0.000000   0.000000
   36        6.262593      6.337208   0.000000   0.000000
   37        6.425874      6.549713   0.000000   0.000000
   38        6.624041      6.716848   0.000000   0.000000
   39        7.152728      7.246314   0.000000   0.000000
   40        7.409300      7.495574   0.000000   0.000000
   41        7.742102      7.953011   0.000000   0.000000
   42        8.019004      8.089811   0.000000   0.000000
   43        8.282011      8.356949   0.000000   0.000000
   44        8.430088      8.559789   0.000000   0.000000
   45        9.290509      9.354854   0.000000   0.000000
   46        9.611708      9.733220   0.000000   0.000000
   47        9.782782      9.858227   0.000000   0.000000
   48       10.490348     10.578168   0.000000   0.000000
 
  0.4000000E+00  0.2500000E+00  0.3469447E-15  0.3333333E-01
    1      -34.794623    -34.791894   1.000000   1.000000
    2      -34.544437    -34.535168   1.000000   1.000000
    3      -29.893708    -29.517364   1.000000   1.000000
    4      -29.713315    -29.319596   1.000000   1.000000
    5      -29.668964    -29.065534   1.000000   1.000000
    6      -16.896543    -16.895073   1.000000   1.000000
    7      -16.792847    -16.789897   1.000000   1.000000
    8      -16.703005    -16.696421   1.000000   1.000000
    9      -16.598587    -16.591181   1.000000   1.000000
   10      -16.547547    -16.539940   1.000000   1.000000
   11      -16.513544    -16.493117   1.000000   1.000000
   12       -7.893617     -7.810889   1.000000   1.000000
   13       -7.269126     -7.249741   1.000000   1.000000
   14       -6.648521     -6.627797   1.000000   1.000000
   15       -6.497734     -6.447850   1.000000   1.000000
   16       -4.093079     -3.994729   1.000000   1.000000
   17       -2.844812     -2.770952   1.000000   1.000000
   18       -2.530658     -2.431873   1.000000   1.000000
   19       -2.266626     -2.185103   1.000000   1.000000
   20       -1.971167     -1.883358   1.000000   1.000000
   21       -1.810553     -1.710230   1.000000   1.000000
   22       -1.371343     -1.270919   1.000000   1.000000
   23       -0.945023     -0.903721   1.000000   1.000000
   24        0.925395      2.069721   1.000000   0.000000
   25        3.101391      3.286386   0.000000   0.000000
   26        3.601537      3.709512   0.000000   0.000000
   27        3.746948      3.879528   0.000000   0.000000
   28        4.113276      4.173745   0.000000   0.000000
   29        4.333533      4.453092   0.000000   0.000000
   30        4.779843      4.830149   0.000000   0.000000
   31        5.103982      5.179607   0.000000   0.000000
   32        5.374960      5.450906   0.000000   0.000000
   33        5.698529      5.756493   0.000000   0.000000
   34        5.829245      5.892450   0.000000   0.000000
   35        5.875887      5.962357   0.000000   0.000000
   36        6.103392      6.216959   0.000000   0.000000
   37        6.465358      6.561681   0.000000   0.000000
   38        6.638526      6.797039   0.000000   0.000000
   39        6.943891      7.008490   0.000000   0.000000
   40        7.346916      7.442881   0.000000   0.000000
   41        7.497037      7.574907   0.000000   0.000000
   42        7.897842      7.958062   0.000000   0.000000
   43        8.254188      8.354057   0.000000   0.000000
   44        8.592981      8.701345   0.000000   0.000000
   45        9.092201      9.213155   0.000000   0.000000
   46        9.646008      9.732459   0.000000   0.000000
   47       10.167437     10.231686   0.000000   0.000000
   48       10.389862     10.435372   0.000000   0.000000
 
 -0.4000000E+00  0.2500000E+00  0.3747003E-15  0.3333333E-01
    1      -34.794621    -34.791893   1.000000   1.000000
    2      -34.544447    -34.535175   1.000000   1.000000
    3      -29.893718    -29.517414   1.000000   1.000000
    4      -29.713274    -29.319596   1.000000   1.000000
    5      -29.668960    -29.065452   1.000000   1.000000
    6      -16.896837    -16.895372   1.000000   1.000000
    7      -16.793273    -16.790363   1.000000   1.000000
    8      -16.702852    -16.696193   1.000000   1.000000
    9      -16.598162    -16.590704   1.000000   1.000000
   10      -16.547034    -16.539131   1.000000   1.000000
   11      -16.514120    -16.493955   1.000000   1.000000
   12       -7.930148     -7.849563   1.000000   1.000000
   13       -7.221658     -7.204879   1.000000   1.000000
   14       -6.674052     -6.646987   1.000000   1.000000
   15       -6.448639     -6.401433   1.000000   1.000000
   16       -4.205669     -4.107356   1.000000   1.000000
   17       -2.798530     -2.722647   1.000000   1.000000
   18       -2.464149     -2.382367   1.000000   1.000000
   19       -2.146088     -2.041882   1.000000   1.000000
   20       -2.091070     -2.001068   1.000000   1.000000
   21       -1.815607     -1.717676   1.000000   1.000000
   22       -1.375565     -1.275304   1.000000   1.000000
   23       -0.990111     -0.952628   1.000000   1.000000
   24        0.995904      2.196108   1.000000   0.000000
   25        3.143504      3.264161   0.000000   0.000000
   26        3.495989      3.618969   0.000000   0.000000
   27        3.708125      3.852216   0.000000   0.000000
   28        4.069925      4.144020   0.000000   0.000000
   29        4.437732      4.493437   0.000000   0.000000
   30        4.867529      4.951920   0.000000   0.000000
   31        5.013567      5.117316   0.000000   0.000000
   32        5.309076      5.381890   0.000000   0.000000
   33        5.606821      5.706377   0.000000   0.000000
   34        5.770844      5.848099   0.000000   0.000000
   35        5.933476      6.018911   0.000000   0.000000
   36        6.140536      6.230256   0.000000   0.000000
   37        6.513434      6.586674   0.000000   0.000000
   38        6.731596      6.805419   0.000000   0.000000
   39        6.917758      6.996467   0.000000   0.000000
   40        7.256683      7.367822   0.000000   0.000000
   41        7.419534      7.484212   0.000000   0.000000
   42        7.728901      7.824070   0.000000   0.000000
   43        8.509812      8.586299   0.000000   0.000000
   44        8.723671      8.809365   0.000000   0.000000
   45        9.315479      9.440543   0.000000   0.000000
   46        9.599038      9.683434   0.000000   0.000000
   47        9.918588      9.992152   0.000000   0.000000
   48       10.603370     10.669425   0.000000   0.000000
 
 -0.2000000E+00  0.2500000E+00  0.3608225E-15  0.3333333E-01
    1      -34.795076    -34.792347   1.000000   1.000000
    2      -34.544847    -34.535576   1.000000   1.000000
    3      -29.891859    -29.516560   1.000000   1.000000
    4      -29.713263    -29.319720   1.000000   1.000000
    5      -29.669064    -29.064433   1.000000   1.000000
    6      -16.899354    -16.897888   1.000000   1.000000
    7      -16.773824    -16.771150   1.000000   1.000000
    8      -16.711660    -16.704732   1.000000   1.000000
    9      -16.591350    -16.583582   1.000000   1.000000
   10      -16.528853    -16.522659   1.000000   1.000000
   11      -16.514421    -16.492754   1.000000   1.000000
   12       -8.238543     -8.162015   1.000000   1.000000
   13       -7.205630     -7.173716   1.000000   1.000000
   14       -6.673691     -6.627722   1.000000   1.000000
   15       -6.291641     -6.266061   1.000000   1.000000
   16       -4.199118     -4.110781   1.000000   1.000000
   17       -2.705615     -2.641888   1.000000   1.000000
   18       -2.500974     -2.417960   1.000000   1.000000
   19       -2.240659     -2.133251   1.000000   1.000000
   20       -1.947653     -1.867609   1.000000   1.000000
   21       -1.489406     -1.384570   1.000000   1.000000
   22       -1.348977     -1.245301   1.000000   1.000000
   23       -1.079412     -1.032037   1.000000   1.000000
   24        0.768321      1.864867   1.000000   0.000000
   25        3.081007      3.215320   0.000000   0.000000
   26        3.443090      3.539701   0.000000   0.000000
   27        3.664874      3.767243   0.000000   0.000000
   28        3.984441      4.084886   0.000000   0.000000
   29        4.437470      4.476990   0.000000   0.000000
   30        4.695975      4.740224   0.000000   0.000000
   31        4.977931      5.183730   0.000000   0.000000
   32        5.239475      5.304794   0.000000   0.000000
   33        5.495499      5.608782   0.000000   0.000000
   34        5.766116      5.848058   0.000000   0.000000
   35        5.967194      6.050606   0.000000   0.000000
   36        6.371511      6.515068   0.000000   0.000000
   37        6.584919      6.660605   0.000000   0.000000
   38        6.859213      6.937746   0.000000   0.000000
   39        7.218252      7.291196   0.000000   0.000000
   40        7.286547      7.373280   0.000000   0.000000
   41        7.710251      7.806051   0.000000   0.000000
   42        7.949817      8.030071   0.000000   0.000000
   43        8.382505      8.475082   0.000000   0.000000
   44        8.590146      8.688063   0.000000   0.000000
   45        9.286158      9.335004   0.000000   0.000000
   46        9.560932      9.675726   0.000000   0.000000
   47        9.925656     10.046259   0.000000   0.000000
   48       10.038054     10.132110   0.000000   0.000000
 
  0.3732823E-15  0.5000000E+00  0.3608225E-15  0.1666667E-01
    1      -34.795269    -34.792539   1.000000   1.000000
    2      -34.545082    -34.535813   1.000000   1.000000
    3      -29.890675    -29.516024   1.000000   1.000000
    4      -29.713350    -29.319863   1.000000   1.000000
    5      -29.669214    -29.063903   1.000000   1.000000
    6      -16.910142    -16.908686   1.000000   1.000000
    7      -16.761704    -16.759137   1.000000   1.000000
    8      -16.714806    -16.707698   1.000000   1.000000
    9      -16.589222    -16.581261   1.000000   1.000000
   10      -16.525565    -16.518513   1.000000   1.000000
   11      -16.511665    -16.490866   1.000000   1.000000
   12       -8.163123     -8.077589   1.000000   1.000000
   13       -7.233358     -7.201854   1.000000   1.000000
   14       -6.913129     -6.864528   1.000000   1.000000
   15       -6.178458     -6.159804   1.000000   1.000000
   16       -3.986149     -3.896939   1.000000   1.000000
   17       -2.860670     -2.825130   1.000000   1.000000
   18       -2.405122     -2.297717   1.000000   1.000000
   19       -2.169450     -2.090067   1.000000   1.000000
   20       -2.030789     -1.926187   1.000000   1.000000
   21       -1.497247     -1.396171   1.000000   1.000000
   22       -1.218162     -1.164352   1.000000   1.000000
   23       -1.169081     -1.089478   1.000000   1.000000
   24        0.520987      1.574801   1.000000   0.000000
   25        3.091582      3.171563   0.000000   0.000000
   26        3.317000      3.420220   0.000000   0.000000
   27        3.805818      3.945195   0.000000   0.000000
   28        4.032388      4.151508   0.000000   0.000000
   29        4.198295      4.253474   0.000000   0.000000
   30        4.503061      4.627167   0.000000   0.000000
   31        4.792611      4.944036   0.000000   0.000000
   32        5.358964      5.400666   0.000000   0.000000
   33        5.649912      5.766710   0.000000   0.000000
   34        5.850730      5.897179   0.000000   0.000000
   35        6.109127      6.161367   0.000000   0.000000
   36        6.239870      6.395573   0.000000   0.000000
   37        6.679304      6.759739   0.000000   0.000000
   38        7.038385      7.095580   0.000000   0.000000
   39        7.264843      7.378756   0.000000   0.000000
   40        7.455887      7.625610   0.000000   0.000000
   41        7.722823      7.821711   0.000000   0.000000
   42        7.895256      7.958866   0.000000   0.000000
   43        8.559064      8.619294   0.000000   0.000000
   44        8.611645      8.706973   0.000000   0.000000
   45        9.019623      9.075683   0.000000   0.000000
   46        9.783218      9.880773   0.000000   0.000000
   47        9.929067     10.009433   0.000000   0.000000
   48       10.321124     10.457240   0.000000   0.000000
 
  0.2000000E+00  0.5000000E+00  0.3608225E-15  0.3333333E-01
    1      -34.794993    -34.792263   1.000000   1.000000
    2      -34.544810    -34.535542   1.000000   1.000000
    3      -29.891868    -29.516588   1.000000   1.000000
    4      -29.713383    -29.319805   1.000000   1.000000
    5      -29.669178    -29.064573   1.000000   1.000000
    6      -16.908566    -16.907106   1.000000   1.000000
    7      -16.773007    -16.770291   1.000000   1.000000
    8      -16.710778    -16.703847   1.000000   1.000000
    9      -16.592483    -16.584745   1.000000   1.000000
   10      -16.530432    -16.524582   1.000000   1.000000
   11      -16.516506    -16.494415   1.000000   1.000000
   12       -8.055224     -7.971155   1.000000   1.000000
   13       -7.184747     -7.157675   1.000000   1.000000
   14       -6.848086     -6.802287   1.000000   1.000000
   15       -6.286797     -6.264467   1.000000   1.000000
   16       -4.071569     -3.976730   1.000000   1.000000
   17       -2.817974     -2.775403   1.000000   1.000000
   18       -2.535754     -2.439067   1.000000   1.000000
   19       -2.177344     -2.069645   1.000000   1.000000
   20       -1.890807     -1.810283   1.000000   1.000000
   21       -1.695557     -1.618966   1.000000   1.000000
   22       -1.404190     -1.280333   1.000000   1.000000
   23       -1.042233     -0.997272   1.000000   1.000000
   24        0.681893      1.761744   1.000000   0.000000
   25        3.254072      3.363269   0.000000   0.000000
   26        3.430967      3.530869   0.000000   0.000000
   27        3.704305      3.841966   0.000000   0.000000
   28        3.998578      4.078471   0.000000   0.000000
   29        4.226990      4.321102   0.000000   0.000000
   30        4.507864      4.643455   0.000000   0.000000
   31        5.169959      5.263122   0.000000   0.000000
   32        5.419056      5.488425   0.000000   0.000000
   33        5.582585      5.680020   0.000000   0.000000
   34        5.777072      5.869971   0.000000   0.000000
   35        5.899141      6.016405   0.000000   0.000000
   36        6.392739      6.459271   0.000000   0.000000
   37        6.489304      6.582740   0.000000   0.000000
   38        7.019005      7.083960   0.000000   0.000000
   39        7.064522      7.149670   0.000000   0.000000
   40        7.328605      7.431558   0.000000   0.000000
   41        7.605657      7.686469   0.000000   0.000000
   42        8.012397      8.121632   0.000000   0.000000
   43        8.298430      8.379393   0.000000   0.000000
   44        8.746567      8.850420   0.000000   0.000000
   45        9.266271      9.340814   0.000000   0.000000
   46        9.578124      9.664561   0.000000   0.000000
   47       10.074580     10.169932   0.000000   0.000000
   48       10.426514     10.519437   0.000000   0.000000
 
  0.4000000E+00  0.5000000E+00  0.3885781E-15  0.3333333E-01
    1      -34.794543    -34.791814   1.000000   1.000000
    2      -34.544370    -34.535104   1.000000   1.000000
    3      -29.893795    -29.517506   1.000000   1.000000
    4      -29.713429    -29.319711   1.000000   1.000000
    5      -29.669116    -29.065645   1.000000   1.000000
    6      -16.906144    -16.904679   1.000000   1.000000
    7      -16.792910    -16.789936   1.000000   1.000000
    8      -16.701458    -16.694853   1.000000   1.000000
    9      -16.599022    -16.591581   1.000000   1.000000
   10      -16.545844    -16.538436   1.000000   1.000000
   11      -16.516219    -16.495575   1.000000   1.000000
   12       -7.827670     -7.741052   1.000000   1.000000
   13       -7.145036     -7.131108   1.000000   1.000000
   14       -6.735680     -6.708412   1.000000   1.000000
   15       -6.479894     -6.436873   1.000000   1.000000
   16       -4.191901     -4.089657   1.000000   1.000000
   17       -2.871495     -2.799218   1.000000   1.000000
   18       -2.519502     -2.433910   1.000000   1.000000
   19       -2.258858     -2.172797   1.000000   1.000000
   20       -2.033207     -1.932145   1.000000   1.000000
   21       -1.732360     -1.659761   1.000000   1.000000