unknown system                          
           1
     6.023351   -0.621547    0.528438
     0.899157    6.774893   -0.476114
     2.095209    0.989820    5.403399
   Sr   Nb   H 
   2   3  19
Direct configuration=     1
   0.06867600  0.14045900  0.33846500
   0.75574400  0.41551600  0.99607100
   0.24538200  0.74497300  0.88581000
   0.29970100  0.68687000  0.37256200
   0.46958300  0.26149100  0.67840600
   0.64908900  0.15913700  0.37937700
   0.12567700  0.84909000  0.60795500
   0.11570900  0.82477400  0.21918100
   0.42227600  0.43065900  0.39928100
   0.16386800  0.54233200  0.18264900
   0.47602800  0.49425800  0.80558000
   0.44481400  0.97612000  0.78661000
   0.48882000  0.71743800  0.01185900
   0.61560500  0.71520000  0.23946500
   0.43655900  0.92561600  0.25980100
   0.48340400  0.74923700  0.54216700
   0.92664100  0.72194100  0.03321100
   0.05474800  0.95314200  0.93715100
   0.72346300  0.14812800  0.72688000
   0.14680000  0.28087200  0.91227900
   0.75394500  0.41359000  0.49019900
   0.14806300  0.56643300  0.71717300
   0.26282800  0.16809100  0.57948800
   0.44583900  0.20918900  0.99808100
unknown system                          
           1
     6.082655   -0.627240    0.535281
     0.909376    6.845212   -0.488131
     2.117323    0.994063    5.450763
   Sr   Nb   H 
   2   3  19
Direct configuration=     2
   0.06887027  0.14056996  0.33811058
   0.75599794  0.41538698  0.99613814
   0.24433438  0.74559664  0.88478282
   0.30119685  0.68709583  0.37102710
   0.46970571  0.26147484  0.67822754
   0.64921185  0.15937977  0.37955972
   0.12629576  0.84895542  0.60820445
   0.11584666  0.82488507  0.21964647
   0.42256283  0.43121601  0.39911231
   0.16415332  0.54244985  0.18300491
   0.47608300  0.49398414  0.80497873
   0.44442693  0.97622430  0.78687420
   0.48817792  0.71767049  0.01277744
   0.61519209  0.71537953  0.23965205
   0.43605763  0.92466251  0.26010382
   0.48284057  0.74920396  0.54259591
   0.92727545  0.72151210  0.03321073
   0.05507759  0.95239288  0.93726752
   0.72328480  0.14796957  0.72669315
   0.14678953  0.28086309  0.91233962
   0.75320311  0.41342456  0.49082891
   0.14796203  0.56646236  0.71710162
   0.26277669  0.16847174  0.57929710
   0.44593910  0.20932440  0.99816614
unknown system                          
           1
     6.126447   -0.631444    0.540334
     0.916922    6.897138   -0.497005
     2.133653    0.997197    5.485737
   Sr   Nb   H 
   2   3  19
Direct configuration=     3
   0.06901248  0.14065089  0.33785117
   0.75618366  0.41529273  0.99618711
   0.24356853  0.74605190  0.88403166
   0.30229153  0.68726020  0.36990326
   0.46979555  0.26146297  0.67809684
   0.64930149  0.15955723  0.37969370
   0.12674820  0.84885719  0.60838681
   0.11594703  0.82496642  0.21998732
   0.42277245  0.43162293  0.39898929
   0.16436173  0.54253610  0.18326552
   0.47612367  0.49378378  0.80453826
   0.44414367  0.97630062  0.78706782
   0.48770776  0.71784074  0.01345022
   0.61488994  0.71551079  0.23978925
   0.43569121  0.92396596  0.26032471
   0.48242830  0.74918000  0.54291001
   0.92773962  0.72119871  0.03320996
   0.05531888  0.95184556  0.93735203
   0.72315465  0.14785374  0.72655624
   0.14678184  0.28085661  0.91238400
   0.75266028  0.41330394  0.49129008
   0.14788822  0.56648378  0.71704942
   0.26273911  0.16874985  0.57915772
   0.44601221  0.20942338  0.99822858
unknown system                          
           1
     6.150255   -0.634240    0.534454
     0.924028    6.942086   -0.514918
     2.135594    0.991417    5.486138
   Sr   Nb   H 
   2   3  19
Direct configuration=     4
   0.06960355  0.14042555  0.33737556
   0.75573821  0.41539314  0.99637112
   0.24331535  0.74646105  0.88585789
   0.30250353  0.68944358  0.37101532
   0.47093177  0.26079076  0.67880837
   0.64907877  0.16060631  0.38094611
   0.12890815  0.84770122  0.60743604
   0.11777896  0.82424021  0.21994388
   0.42334007  0.43279102  0.39904265
   0.16555856  0.54418919  0.18273557
   0.47610692  0.49222885  0.80323633
   0.44242597  0.97656417  0.78729802
   0.48519409  0.71817954  0.01410369
   0.61330203  0.71549444  0.24014230
   0.43452622  0.92172567  0.26094453
   0.47986935  0.74871820  0.54364482
   0.92976713  0.72045998  0.03214297
   0.05662518  0.94984978  0.93727334
   0.72144581  0.14859180  0.72548887
   0.14802137  0.28076628  0.91170490
   0.75005449  0.41194770  0.49312413
   0.14874955  0.56778642  0.71565402
   0.26411780  0.16997980  0.57924415
   0.44629918  0.21022135  0.99616642
unknown system                          
           1
     6.168619   -0.636396    0.529919
     0.929508    6.976754   -0.528735
     2.137091    0.986959    5.486448
   Sr   Nb   H 
   2   3  19
Direct configuration=     5
   0.07005780  0.14025257  0.33700890
   0.75539598  0.41547024  0.99651275
   0.24311996  0.74677558  0.88726709
   0.30266418  0.69111653  0.37187789
   0.47180461  0.26027615  0.67935709
   0.64890645  0.16141062  0.38191408
   0.13056812  0.84681491  0.60670273
   0.11918638  0.82368367  0.21991094
   0.42377500  0.43368564  0.39908689
   0.16647649  0.54545482  0.18233163
   0.47609577  0.49103710  0.80222885
   0.44110659  0.97676645  0.78747418
   0.48326325  0.71843983  0.01460558
   0.61208250  0.71548239  0.24041277
   0.43363318  0.92001032  0.26141660
   0.47790435  0.74836535  0.54420772
   0.93132510  0.71989320  0.03132073
   0.05762998  0.94832090  0.93720995
   0.72013330  0.14915673  0.72466517
   0.14897356  0.28069649  0.91118232
   0.74805388  0.41091045  0.49453297
   0.14941042  0.56878316  0.71458142
   0.26517552  0.17092169  0.57931495
   0.44651963  0.21083124  0.99457781
unknown system                          
           1
     6.181063   -0.637592    0.523309
     0.934668    7.006067   -0.540925
     2.135637    0.982630    5.477691
   Sr   Nb   H 
   2   3  19
Direct configuration=     6
   0.07062768  0.13995431  0.33676561
   0.75504244  0.41572118  0.99675576
   0.24341610  0.74678498  0.88742969
   0.30267399  0.68977524  0.37178285
   0.47110878  0.26057563  0.67861824
   0.64903698  0.16214576  0.38259672
   0.13196940  0.84647662  0.60643581
   0.12041712  0.82344132  0.22006568
   0.42408329  0.43487307  0.39946079
   0.16744041  0.54700042  0.18195905
   0.47611229  0.48984203  0.80147500
   0.43949616  0.97685536  0.78789530
   0.48136462  0.71870059  0.01527413
   0.61097740  0.71554285  0.24070260
   0.43319696  0.91926680  0.26171388
   0.47616881  0.74820278  0.54531304
   0.93269879  0.71924523  0.03075195
   0.05851588  0.94694081  0.93730541
   0.71952195  0.14947963  0.72386484
   0.14997899  0.28063641  0.91071728
   0.74633885  0.40984185  0.49585056
   0.15001137  0.57003638  0.71383833
   0.26634733  0.17184562  0.57921137
   0.44671643  0.21137114  0.99391711
unknown system                          
           1
     6.198684   -0.639287    0.513950
     0.941974    7.047574   -0.558186
     2.133579    0.976500    5.465292
   Sr   Nb   H 
   2   3  19
Direct configuration=     7
   0.07143310  0.13953357  0.33642089
   0.75454263  0.41607514  0.99710039
   0.24383430  0.74679822  0.88766094
   0.30268942  0.68788453  0.37164454
   0.47012599  0.26099765  0.67756969
   0.64922016  0.16318230  0.38356714
   0.13394924  0.84599913  0.60605916
   0.12215573  0.82309934  0.22028699
   0.42451722  0.43654694  0.39999485
   0.16880041  0.54917856  0.18143659
   0.47613737  0.48815708  0.80040268
   0.43722108  0.97698147  0.78848960
   0.47868214  0.71906917  0.01621926
   0.60941620  0.71562862  0.24111162
   0.43258146  0.91821903  0.26213271
   0.47371691  0.74797477  0.54687686
   0.93464018  0.71833109  0.02994627
   0.05976870  0.94499517  0.93743894
   0.71865852  0.14993461  0.72272931
   0.15139949  0.28055114  0.91005955
   0.74391683  0.40833682  0.49771313
   0.15085923  0.57180232  0.71278888
   0.26800152  0.17314751  0.57906922
   0.44699416  0.21213179  0.99298181
unknown system                          
           1
     6.202485   -0.639243    0.509604
     0.943646    7.052954   -0.559377
     2.131803    0.976342    5.456168
   Sr   Nb   H 
   2   3  19
Direct configuration=     8
   0.07196517  0.13891416  0.33641630
   0.75447191  0.41648587  0.99717497
   0.24400356  0.74653071  0.88641983
   0.30289320  0.68799698  0.37092791
   0.47027858  0.26139679  0.67782025
   0.64976856  0.16350795  0.38302491
   0.13471782  0.84600241  0.60598956
   0.12266991  0.82316612  0.22077640
   0.42477883  0.43717602  0.40041959
   0.16925199  0.55000795  0.18116629
   0.47599748  0.48747222  0.80024692
   0.43577159  0.97710618  0.78888848
   0.47817350  0.71907829  0.01642660
   0.60892708  0.71549921  0.24116182
   0.43211833  0.91737883  0.26262228
   0.47315699  0.74787809  0.54782898
   0.93522334  0.71774621  0.02990698
   0.05999918  0.94439295  0.93774169
   0.71855680  0.15008349  0.72211380
   0.15156575  0.28062658  0.90998975
   0.74332084  0.40778349  0.49807488
   0.15079635  0.57245608  0.71315527
   0.26782676  0.17338193  0.57797630
   0.44702847  0.21248748  0.99343125
unknown system                          
           1
     6.207368   -0.639188    0.504020
     0.945794    7.059868   -0.560908
     2.129521    0.976140    5.444444
   Sr   Nb   H 
   2   3  19
Direct configuration=     9
   0.07264842  0.13811873  0.33641086
   0.75438098  0.41701321  0.99727096
   0.24422132  0.74618758  0.88482252
   0.30315503  0.68814151  0.37000577
   0.47047430  0.26190914  0.67814299
   0.65047271  0.16392608  0.38232766
   0.13570457  0.84600645  0.60590083
   0.12332986  0.82325159  0.22140691
   0.42511441  0.43798352  0.40096669
   0.16983161  0.55107279  0.18081905
   0.47581810  0.48659299  0.80004614
   0.43391052  0.97726655  0.78940032
   0.47752043  0.71909009  0.01669291
   0.60829915  0.71533318  0.24122588
   0.43152381  0.91630005  0.26325172
   0.47243787  0.74775383  0.54905383
   0.93597218  0.71699511  0.02985693
   0.06029513  0.94361960  0.93813150
   0.71842637  0.15027485  0.72132149
   0.15177921  0.28072341  0.90990011
   0.74255571  0.40707311  0.49853972
   0.15071534  0.57329536  0.71362692
   0.26760269  0.17368327  0.57656946
   0.44707229  0.21294401  0.99400983
unknown system                          
           1
     6.211964   -0.639066    0.498727
     0.947493    7.063636   -0.560826
     2.127283    0.976812    5.435324
   Sr   Nb   H 
   2   3  19
Direct configuration=    10
   0.07309462  0.13736532  0.33636329
   0.75442178  0.41748421  0.99729881
   0.24402734  0.74632445  0.88491800
   0.30303257  0.68797141  0.37038091
   0.47009278  0.26141441  0.67766115
   0.65115149  0.16431798  0.38151740
   0.13642617  0.84612868  0.60575413
   0.12377767  0.82342736  0.22165967
   0.42546871  0.43859308  0.40137656
   0.17020847  0.55176682  0.18047543
   0.47565546  0.48614028  0.80013253
   0.43226892  0.97745784  0.78977377
   0.47743371  0.71908709  0.01641134
   0.60809448  0.71519159  0.24103643
   0.43122873  0.91563626  0.26356658
   0.47223819  0.74760744  0.54961623
   0.93646090  0.71630254  0.02978201
   0.06038731  0.94310524  0.93846787
   0.71849804  0.15040016  0.72071832
   0.15176594  0.28089512  0.90994384
   0.74234426  0.40672523  0.49861883
   0.15047606  0.57380767  0.71403260
   0.26758258  0.17406819  0.57530758
   0.44712580  0.21333761  0.99488770
unknown system                          
           1
     6.221424   -0.638815    0.487830
     0.950989    7.071393   -0.560657
     2.122677    0.978195    5.416551
   Sr   Nb   H 
   2   3  19
Direct configuration=    11
   0.07401241  0.13581510  0.33626627
   0.75450550  0.41845319  0.99735627
   0.24362836  0.74660608  0.88511445
   0.30278070  0.68762124  0.37115417
   0.46930861  0.26039710  0.67666689
   0.65254738  0.16512445  0.37984817
   0.13790999  0.84637987  0.60545321
   0.12469834  0.82378858  0.22218175
   0.42619692  0.43984666  0.40222237
   0.17098326  0.55319473  0.17976767
   0.47532118  0.48520892  0.80031036
   0.42889314  0.97785200  0.79054024
   0.47725548  0.71908117  0.01583060
   0.60767373  0.71490055  0.24064537
   0.43062211  0.91427057  0.26421523
   0.47182746  0.74730597  0.55077540
   0.93746612  0.71487748  0.02962866
   0.06057694  0.94204673  0.93916169
   0.71864556  0.15065834  0.71947478
   0.15173858  0.28124837  0.91003396
   0.74190957  0.40600960  0.49878154
   0.14998374  0.57486153  0.71486847
   0.26754148  0.17486101  0.57270566
   0.44723542  0.21414675  0.99669783
unknown system                          
           1
     6.227293   -0.639236    0.485552
     0.952215    7.078021   -0.559658
     2.122948    0.980084    5.414979
   Sr   Nb   H 
   2   3  19
Direct configuration=    12
   0.07388713  0.13519684  0.33612893
   0.75459199  0.41877206  0.99728307
   0.24364947  0.74670632  0.88597878
   0.30316665  0.68748730  0.37138357
   0.46944618  0.26042844  0.67708086
   0.65308124  0.16532817  0.37893019
   0.13823876  0.84665309  0.60530833
   0.12480906  0.82399604  0.22216854
   0.42659477  0.44001371  0.40254646
   0.17101439  0.55326353  0.17969231
   0.47506295  0.48478667  0.80047028
   0.42764154  0.97809457  0.79078751
   0.47761091  0.71902719  0.01532078
   0.60755411  0.71475891  0.24047882
   0.43069807  0.91417489  0.26421019
   0.47216438  0.74711279  0.55064444
   0.93740522  0.71427355  0.02976665
   0.06011507  0.94209535  0.93957768
   0.71863669  0.15060822  0.71915073
   0.15156551  0.28139147  0.91008564
   0.74182513  0.40581686  0.49871087
   0.14948952  0.57487803  0.71530445
   0.26767604  0.17523579  0.57166873
   0.44733721  0.21445622  0.99702320
unknown system                          
           1
     6.236941   -0.639928    0.481808
     0.954230    7.088917   -0.558016
     2.123393    0.983189    5.412394
   Sr   Nb   H 
   2   3  19
Direct configuration=    13
   0.07368139  0.13418145  0.33590326
   0.75473405  0.41929582  0.99716261
   0.24368402  0.74687052  0.88740008
   0.30380040  0.68726712  0.37176119
   0.46967204  0.26047968  0.67776169
   0.65395808  0.16566317  0.37742101
   0.13877869  0.84710187  0.60507023
   0.12499088  0.82433678  0.22214682
   0.42724807  0.44028785  0.40307965
   0.17106553  0.55337655  0.17956838
   0.47463885  0.48409308  0.80073322
   0.42558619  0.97849309  0.79119296
   0.47819465  0.71893872  0.01448273
   0.60735769  0.71452637  0.24020491
   0.43082281  0.91401773  0.26420202
   0.47271767  0.74679549  0.55042946
   0.93730515  0.71328153  0.02999381
   0.05935654  0.94217506  0.94026134
   0.71862215  0.15052606  0.71861788
   0.15128131  0.28162652  0.91017041
   0.74168646  0.40550033  0.49859469
   0.14867787  0.57490501  0.71602095
   0.26789717  0.17585186  0.56996353
   0.44750433  0.21496433  0.99755819
unknown system                          
           1
     6.241777   -0.640193    0.480984
     0.955399    7.095621   -0.557601
     2.124454    0.984618    5.412076
   Sr   Nb   H 
   2   3  19
Direct configuration=    14
   0.07346565  0.13374881  0.33578755
   0.75481571  0.41949913  0.99710927
   0.24337982  0.74696741  0.88754161
   0.30390181  0.68732503  0.37191444
   0.46964193  0.26040672  0.67749434
   0.65428636  0.16586616  0.37686392
   0.13908174  0.84727757  0.60495152
   0.12508878  0.82444157  0.22218357
   0.42761821  0.44036130  0.40337710
   0.17107319  0.55334845  0.17961440
   0.47443232  0.48378950  0.80094241
   0.42463827  0.97870187  0.79145026
   0.47853742  0.71887771  0.01419941
   0.60735630  0.71441781  0.24007640
   0.43094779  0.91397120  0.26419854
   0.47304005  0.74664595  0.55041114
   0.93733450  0.71281576  0.03017487
   0.05900067  0.94219100  0.94061760
   0.71863616  0.15044473  0.71844776
   0.15119712  0.28173175  0.91021132
   0.74163069  0.40536190  0.49859705
   0.14831290  0.57491303  0.71640808
   0.26824162  0.17625927  0.56929384
   0.44760299  0.21519238  0.99783461
unknown system                          
           1
     6.252074   -0.640755    0.479230
     0.957889    7.109895   -0.556717
     2.126713    0.987661    5.411399
   Sr   Nb   H 
   2   3  19
Direct configuration=    15
   0.07300670  0.13282855  0.33554122
   0.75498947  0.41993164  0.99699565
   0.24273262  0.74717350  0.88784281
   0.30411750  0.68744813  0.37224079
   0.46957794  0.26025165  0.67692506
   0.65498496  0.16629820  0.37567775
   0.13972652  0.84765133  0.60469882
   0.12529706  0.82466447  0.22226184
   0.42840556  0.44051737  0.40401062
   0.17108947  0.55328867  0.17971242
   0.47399286  0.48314362  0.80138786
   0.42262151  0.97914602  0.79199764
   0.47926674  0.71874800  0.01359630
   0.60735338  0.71418693  0.23980278
   0.43121367  0.91387218  0.26419121
   0.47372592  0.74632779  0.55037233
   0.93739686  0.71182483  0.03056058
   0.05824345  0.94222480  0.94137605
   0.71866601  0.15027180  0.71808554
   0.15101799  0.28195561  0.91029836
   0.74151204  0.40506742  0.49860211
   0.14753629  0.57492995  0.71723223
   0.26897467  0.17712621  0.56786783
   0.44781281  0.21567735  0.99842318
