  16  16   1   0
  0.5958602E+01  0.6278791E-09  0.4356221E-09  0.4939058E-09  0.5000000E-15
  1.000000000000000E-004
  CAR 
 unknown system                          
     15.35338531    -12.07064920  301     -7.57996355      1.00000000
    -12.071  0.0000E+00  0.0000E+00  0.0000E+00  0.0000E+00
    -11.979  0.0000E+00  0.0000E+00  0.0000E+00  0.0000E+00
    -11.888  0.0000E+00  0.0000E+00  0.0000E+00  0.0000E+00
    -11.796  0.0000E+00  0.0000E+00  0.0000E+00  0.0000E+00
    -11.705  0.0000E+00  0.0000E+00  0.0000E+00  0.0000E+00
    -11.614  0.0000E+00  0.0000E+00  0.0000E+00  0.0000E+00
    -11.522  0.0000E+00  0.0000E+00  0.0000E+00  0.0000E+00
    -11.431  0.0000E+00  0.0000E+00  0.0000E+00  0.0000E+00
    -11.339  0.0000E+00  0.0000E+00  0.0000E+00  0.0000E+00
    -11.248  0.0000E+00  0.0000E+00  0.0000E+00  0.0000E+00
    -11.157  0.0000E+00  0.0000E+00  0.0000E+00  0.0000E+00
    -11.065  0.0000E+00  0.0000E+00  0.0000E+00  0.0000E+00
    -10.974  0.0000E+00  0.0000E+00  0.0000E+00  0.0000E+00
    -10.882  0.0000E+00  0.0000E+00  0.0000E+00  0.0000E+00
    -10.791  0.1665E-03  0.1666E-03  0.1845E-05  0.1846E-05
    -10.699  0.2342E-02  0.2342E-02  0.9732E-04  0.9732E-04
    -10.608  0.4025E-02  0.4025E-02  0.4321E-03  0.4321E-03
    -10.517  0.4925E-02  0.4925E-02  0.8378E-03  0.8378E-03
    -10.425  0.6060E-02  0.6060E-02  0.1339E-02  0.1339E-02
    -10.334  0.7200E-02  0.7200E-02  0.1947E-02  0.1947E-02
    -10.242  0.9648E-02  0.9648E-02  0.2691E-02  0.2691E-02
    -10.151  0.9532E-02  0.9532E-02  0.3574E-02  0.3574E-02
    -10.060  0.1010E-01  0.1010E-01  0.4456E-02  0.4456E-02
     -9.968  0.1129E-01  0.1129E-01  0.5435E-02  0.5435E-02
     -9.877  0.1328E-01  0.1328E-01  0.6532E-02  0.6532E-02
     -9.785  0.1403E-01  0.1403E-01  0.7833E-02  0.7833E-02
     -9.694  0.1310E-01  0.1310E-01  0.9088E-02  0.9088E-02
     -9.602  0.1201E-01  0.1201E-01  0.1024E-01  0.1024E-01
     -9.511  0.1236E-01  0.1236E-01  0.1135E-01  0.1135E-01
     -9.420  0.1466E-01  0.1466E-01  0.1257E-01  0.1257E-01
     -9.328  0.2060E-01  0.2060E-01  0.1414E-01  0.1414E-01
     -9.237  0.1986E-01  0.1986E-01  0.1603E-01  0.1603E-01
     -9.145  0.1860E-01  0.1860E-01  0.1767E-01  0.1767E-01
     -9.054  0.2535E-01  0.2535E-01  0.1969E-01  0.1969E-01
     -8.963  0.2756E-01  0.2756E-01  0.2208E-01  0.2208E-01
     -8.871  0.3041E-01  0.3041E-01  0.2473E-01  0.2473E-01
     -8.780  0.2960E-01  0.2960E-01  0.2738E-01  0.2738E-01
     -8.688  0.3530E-01  0.3530E-01  0.3037E-01  0.3037E-01
     -8.597  0.4474E-01  0.4474E-01  0.3392E-01  0.3392E-01
     -8.506  0.4837E-01  0.4837E-01  0.3845E-01  0.3845E-01
     -8.414  0.4395E-01  0.4395E-01  0.4263E-01  0.4263E-01
     -8.323  0.4886E-01  0.4886E-01  0.4658E-01  0.4658E-01
     -8.231  0.5245E-01  0.5245E-01  0.5106E-01  0.5106E-01
     -8.140  0.5169E-01  0.5169E-01  0.5581E-01  0.5581E-01
     -8.048  0.6076E-01  0.6076E-01  0.6074E-01  0.6074E-01
     -7.957  0.7380E-01  0.7380E-01  0.6604E-01  0.6604E-01
     -7.866  0.5943E-01  0.5943E-01  0.7329E-01  0.7329E-01
     -7.774  0.4692E-01  0.4692E-01  0.7784E-01  0.7784E-01
     -7.683  0.3566E-02  0.3566E-02  0.8078E-01  0.8078E-01
     -7.591  0.0000E+00  0.0000E+00  0.8081E-01  0.8081E-01
     -7.500  0.0000E+00  0.0000E+00  0.8081E-01  0.8081E-01
     -7.409  0.0000E+00  0.0000E+00  0.8081E-01  0.8081E-01
     -7.317  0.0000E+00  0.0000E+00  0.8081E-01  0.8081E-01
     -7.226  0.0000E+00  0.0000E+00  0.8081E-01  0.8081E-01
     -7.134  0.0000E+00  0.0000E+00  0.8081E-01  0.8081E-01
     -7.043  0.0000E+00  0.0000E+00  0.8081E-01  0.8081E-01
     -6.951  0.0000E+00  0.0000E+00  0.8081E-01  0.8081E-01
     -6.860  0.0000E+00  0.0000E+00  0.8081E-01  0.8081E-01
     -6.769  0.0000E+00  0.0000E+00  0.8081E-01  0.8081E-01
     -6.677  0.0000E+00  0.0000E+00  0.8081E-01  0.8081E-01
     -6.586  0.0000E+00  0.0000E+00  0.8081E-01  0.8081E-01
     -6.494  0.0000E+00  0.0000E+00  0.8081E-01  0.8081E-01
     -6.403  0.0000E+00  0.0000E+00  0.8081E-01  0.8081E-01
     -6.312  0.0000E+00  0.0000E+00  0.8081E-01  0.8081E-01
     -6.220  0.0000E+00  0.0000E+00  0.8081E-01  0.8081E-01
     -6.129  0.0000E+00  0.0000E+00  0.8081E-01  0.8081E-01
     -6.037  0.0000E+00  0.0000E+00  0.8081E-01  0.8081E-01
     -5.946  0.0000E+00  0.0000E+00  0.8081E-01  0.8081E-01
     -5.855  0.0000E+00  0.0000E+00  0.8081E-01  0.8081E-01
     -5.763  0.0000E+00  0.0000E+00  0.8081E-01  0.8081E-01
     -5.672  0.0000E+00  0.0000E+00  0.8081E-01  0.8081E-01
     -5.580  0.0000E+00  0.0000E+00  0.8081E-01  0.8081E-01
     -5.489  0.0000E+00  0.0000E+00  0.8081E-01  0.8081E-01
     -5.397  0.0000E+00  0.0000E+00  0.8081E-01  0.8081E-01
     -5.306  0.0000E+00  0.0000E+00  0.8081E-01  0.8081E-01
     -5.215  0.0000E+00  0.0000E+00  0.8081E-01  0.8081E-01
     -5.123  0.0000E+00  0.0000E+00  0.8081E-01  0.8081E-01
     -5.032  0.0000E+00  0.0000E+00  0.8081E-01  0.8081E-01
     -4.940  0.0000E+00  0.0000E+00  0.8081E-01  0.8081E-01
     -4.849  0.0000E+00  0.0000E+00  0.8081E-01  0.8081E-01
     -4.758  0.0000E+00  0.0000E+00  0.8081E-01  0.8081E-01
     -4.666  0.0000E+00  0.0000E+00  0.8081E-01  0.8081E-01
     -4.575  0.0000E+00  0.0000E+00  0.8081E-01  0.8081E-01
     -4.483  0.0000E+00  0.0000E+00  0.8081E-01  0.8081E-01
     -4.392  0.0000E+00  0.0000E+00  0.8081E-01  0.8081E-01
     -4.301  0.0000E+00  0.0000E+00  0.8081E-01  0.8081E-01
     -4.209  0.0000E+00  0.0000E+00  0.8081E-01  0.8081E-01
     -4.118  0.0000E+00  0.0000E+00  0.8081E-01  0.8081E-01
     -4.026  0.0000E+00  0.0000E+00  0.8081E-01  0.8081E-01
     -3.935  0.0000E+00  0.0000E+00  0.8081E-01  0.8081E-01
     -3.843  0.0000E+00  0.0000E+00  0.8081E-01  0.8081E-01
     -3.752  0.0000E+00  0.0000E+00  0.8081E-01  0.8081E-01
     -3.661  0.0000E+00  0.0000E+00  0.8081E-01  0.8081E-01
     -3.569  0.0000E+00  0.0000E+00  0.8081E-01  0.8081E-01
     -3.478  0.0000E+00  0.0000E+00  0.8081E-01  0.8081E-01
     -3.386  0.0000E+00  0.0000E+00  0.8081E-01  0.8081E-01
     -3.295  0.0000E+00  0.0000E+00  0.8081E-01  0.8081E-01
     -3.204  0.0000E+00  0.0000E+00  0.8081E-01  0.8081E-01
     -3.112  0.0000E+00  0.0000E+00  0.8081E-01  0.8081E-01
     -3.021  0.0000E+00  0.0000E+00  0.8081E-01  0.8081E-01
     -2.929  0.0000E+00  0.0000E+00  0.8081E-01  0.8081E-01
     -2.838  0.0000E+00  0.0000E+00  0.8081E-01  0.8081E-01
     -2.746  0.0000E+00  0.0000E+00  0.8081E-01  0.8081E-01
     -2.655  0.0000E+00  0.0000E+00  0.8081E-01  0.8081E-01
     -2.564  0.0000E+00  0.0000E+00  0.8081E-01  0.8081E-01
     -2.472  0.0000E+00  0.0000E+00  0.8081E-01  0.8081E-01
     -2.381  0.0000E+00  0.0000E+00  0.8081E-01  0.8081E-01
     -2.289  0.0000E+00  0.0000E+00  0.8081E-01  0.8081E-01
     -2.198  0.0000E+00  0.0000E+00  0.8081E-01  0.8081E-01
     -2.107  0.0000E+00  0.0000E+00  0.8081E-01  0.8081E-01
     -2.015  0.0000E+00  0.0000E+00  0.8081E-01  0.8081E-01
     -1.924  0.0000E+00  0.0000E+00  0.8081E-01  0.8081E-01
     -1.832  0.0000E+00  0.0000E+00  0.8081E-01  0.8081E-01
     -1.741  0.0000E+00  0.0000E+00  0.8081E-01  0.8081E-01
     -1.650  0.0000E+00  0.0000E+00  0.8081E-01  0.8081E-01
     -1.558  0.0000E+00  0.0000E+00  0.8081E-01  0.8081E-01
     -1.467  0.0000E+00  0.0000E+00  0.8081E-01  0.8081E-01
     -1.375  0.0000E+00  0.0000E+00  0.8081E-01  0.8081E-01
     -1.284  0.0000E+00  0.0000E+00  0.8081E-01  0.8081E-01
     -1.192  0.0000E+00  0.0000E+00  0.8081E-01  0.8081E-01
     -1.101  0.0000E+00  0.0000E+00  0.8081E-01  0.8081E-01
     -1.010  0.0000E+00  0.0000E+00  0.8081E-01  0.8081E-01
     -0.918  0.0000E+00  0.0000E+00  0.8081E-01  0.8081E-01
     -0.827  0.0000E+00  0.0000E+00  0.8081E-01  0.8081E-01
     -0.735  0.0000E+00  0.0000E+00  0.8081E-01  0.8081E-01
     -0.644  0.0000E+00  0.0000E+00  0.8081E-01  0.8081E-01
     -0.553  0.0000E+00  0.0000E+00  0.8081E-01  0.8081E-01
     -0.461  0.0000E+00  0.0000E+00  0.8081E-01  0.8081E-01
     -0.370  0.0000E+00  0.0000E+00  0.8081E-01  0.8081E-01
     -0.278  0.0000E+00  0.0000E+00  0.8081E-01  0.8081E-01
     -0.187  0.0000E+00  0.0000E+00  0.8081E-01  0.8081E-01
     -0.095  0.0000E+00  0.0000E+00  0.8081E-01  0.8081E-01
     -0.004  0.0000E+00  0.0000E+00  0.8081E-01  0.8081E-01
      0.087  0.0000E+00  0.0000E+00  0.8081E-01  0.8081E-01
      0.179  0.0000E+00  0.0000E+00  0.8081E-01  0.8081E-01
      0.270  0.0000E+00  0.0000E+00  0.8081E-01  0.8081E-01
      0.362  0.0000E+00  0.0000E+00  0.8081E-01  0.8081E-01
      0.453  0.0000E+00  0.0000E+00  0.8081E-01  0.8081E-01
      0.544  0.0000E+00  0.0000E+00  0.8081E-01  0.8081E-01
      0.636  0.0000E+00  0.0000E+00  0.8081E-01  0.8081E-01
      0.727  0.0000E+00  0.0000E+00  0.8081E-01  0.8081E-01
      0.819  0.0000E+00  0.0000E+00  0.8081E-01  0.8081E-01
      0.910  0.9063E-05  0.9072E-05  0.8081E-01  0.8081E-01
      1.001  0.3094E-03  0.3095E-03  0.8082E-01  0.8082E-01
      1.093  0.1035E-02  0.1035E-02  0.8088E-01  0.8088E-01
      1.184  0.2256E-02  0.2257E-02  0.8102E-01  0.8102E-01
      1.276  0.5478E-02  0.5478E-02  0.8137E-01  0.8137E-01
      1.367  0.9451E-02  0.9451E-02  0.8206E-01  0.8206E-01
      1.459  0.1034E-01  0.1034E-01  0.8296E-01  0.8296E-01
      1.550  0.1163E-01  0.1163E-01  0.8396E-01  0.8396E-01
      1.641  0.1522E-01  0.1522E-01  0.8516E-01  0.8516E-01
      1.733  0.2086E-01  0.2086E-01  0.8678E-01  0.8678E-01
      1.824  0.2826E-01  0.2826E-01  0.8904E-01  0.8904E-01
      1.916  0.2970E-01  0.2970E-01  0.9177E-01  0.9177E-01
      2.007  0.2720E-01  0.2720E-01  0.9439E-01  0.9439E-01
      2.098  0.2171E-01  0.2171E-01  0.9657E-01  0.9657E-01
      2.190  0.2556E-01  0.2556E-01  0.9874E-01  0.9874E-01
      2.281  0.3005E-01  0.3006E-01  0.1013E+00  0.1013E+00
      2.373  0.3007E-01  0.3010E-01  0.1040E+00  0.1040E+00
      2.464  0.2814E-01  0.2814E-01  0.1065E+00  0.1065E+00
      2.556  0.2495E-01  0.2495E-01  0.1089E+00  0.1089E+00
      2.647  0.2612E-01  0.2612E-01  0.1112E+00  0.1112E+00
      2.738  0.3142E-01  0.3142E-01  0.1138E+00  0.1138E+00
      2.830  0.2724E-01  0.2724E-01  0.1165E+00  0.1165E+00
      2.921  0.2334E-01  0.2334E-01  0.1187E+00  0.1187E+00
      3.013  0.2232E-01  0.2232E-01  0.1208E+00  0.1208E+00
      3.104  0.2061E-01  0.2061E-01  0.1228E+00  0.1228E+00
      3.195  0.2017E-01  0.2017E-01  0.1247E+00  0.1247E+00
      3.287  0.1669E-01  0.1669E-01  0.1264E+00  0.1264E+00
      3.378  0.1696E-01  0.1696E-01  0.1278E+00  0.1278E+00
      3.470  0.2476E-01  0.2476E-01  0.1298E+00  0.1298E+00
      3.561  0.2816E-01  0.2816E-01  0.1322E+00  0.1322E+00
      3.652  0.1833E-01  0.1833E-01  0.1343E+00  0.1343E+00
      3.744  0.1756E-01  0.1756E-01  0.1360E+00  0.1360E+00
      3.835  0.1960E-01  0.1960E-01  0.1377E+00  0.1377E+00
      3.927  0.2981E-01  0.2981E-01  0.1399E+00  0.1399E+00
      4.018  0.2818E-01  0.2818E-01  0.1424E+00  0.1424E+00
      4.110  0.2640E-01  0.2640E-01  0.1448E+00  0.1448E+00
      4.201  0.2365E-01  0.2365E-01  0.1474E+00  0.1474E+00
      4.292  0.1459E-01  0.1459E-01  0.1491E+00  0.1491E+00
      4.384  0.9803E-02  0.9803E-02  0.1502E+00  0.1502E+00
      4.475  0.9970E-02  0.9970E-02  0.1510E+00  0.1510E+00
      4.567  0.1600E-01  0.1600E-01  0.1522E+00  0.1522E+00
      4.658  0.1783E-01  0.1783E-01  0.1538E+00  0.1538E+00
      4.749  0.1505E-01  0.1505E-01  0.1553E+00  0.1553E+00
      4.841  0.1450E-01  0.1450E-01  0.1566E+00  0.1566E+00
      4.932  0.1391E-01  0.1391E-01  0.1579E+00  0.1579E+00
      5.024  0.1136E-01  0.1136E-01  0.1590E+00  0.1590E+00
      5.115  0.1338E-01  0.1338E-01  0.1602E+00  0.1602E+00
      5.206  0.1479E-01  0.1479E-01  0.1615E+00  0.1615E+00
      5.298  0.1526E-01  0.1526E-01  0.1628E+00  0.1628E+00
      5.389  0.1571E-01  0.1571E-01  0.1642E+00  0.1642E+00
      5.481  0.1585E-01  0.1585E-01  0.1657E+00  0.1657E+00
      5.572  0.1293E-01  0.1293E-01  0.1671E+00  0.1671E+00
      5.664  0.1133E-01  0.1133E-01  0.1681E+00  0.1681E+00
      5.755  0.1292E-01  0.1292E-01  0.1692E+00  0.1692E+00
      5.846  0.1581E-01  0.1581E-01  0.1706E+00  0.1706E+00
      5.938  0.1680E-01  0.1680E-01  0.1721E+00  0.1721E+00
      6.029  0.1795E-01  0.1795E-01  0.1737E+00  0.1737E+00
      6.121  0.1706E-01  0.1706E-01  0.1753E+00  0.1753E+00
      6.212  0.1574E-01  0.1574E-01  0.1768E+00  0.1768E+00
      6.303  0.1422E-01  0.1422E-01  0.1782E+00  0.1782E+00
      6.395  0.1403E-01  0.1403E-01  0.1794E+00  0.1794E+00
      6.486  0.1494E-01  0.1494E-01  0.1808E+00  0.1808E+00
      6.578  0.1477E-01  0.1477E-01  0.1821E+00  0.1821E+00
      6.669  0.1473E-01  0.1473E-01  0.1835E+00  0.1835E+00
      6.761  0.1650E-01  0.1650E-01  0.1849E+00  0.1849E+00
      6.852  0.1799E-01  0.1799E-01  0.1865E+00  0.1865E+00
      6.943  0.1933E-01  0.1933E-01  0.1882E+00  0.1882E+00
      7.035  0.2266E-01  0.2266E-01  0.1901E+00  0.1901E+00
      7.126  0.1986E-01  0.1986E-01  0.1921E+00  0.1921E+00
      7.218  0.1828E-01  0.1828E-01  0.1938E+00  0.1938E+00
      7.309  0.1681E-01  0.1681E-01  0.1954E+00  0.1954E+00
      7.400  0.1613E-01  0.1613E-01  0.1969E+00  0.1969E+00
      7.492  0.1781E-01  0.1781E-01  0.1985E+00  0.1985E+00
      7.583  0.1768E-01  0.1768E-01  0.2001E+00  0.2001E+00
      7.675  0.1632E-01  0.1632E-01  0.2016E+00  0.2016E+00
      7.766  0.1662E-01  0.1662E-01  0.2031E+00  0.2031E+00
      7.857  0.1779E-01  0.1779E-01  0.2047E+00  0.2047E+00
      7.949  0.1985E-01  0.1985E-01  0.2065E+00  0.2065E+00
      8.040  0.1830E-01  0.1830E-01  0.2082E+00  0.2082E+00
      8.132  0.1836E-01  0.1836E-01  0.2099E+00  0.2099E+00
      8.223  0.1776E-01  0.1776E-01  0.2115E+00  0.2115E+00
      8.315  0.1821E-01  0.1821E-01  0.2131E+00  0.2131E+00
      8.406  0.1767E-01  0.1767E-01  0.2148E+00  0.2148E+00
      8.497  0.1726E-01  0.1726E-01  0.2164E+00  0.2164E+00
      8.589  0.1817E-01  0.1817E-01  0.2180E+00  0.2180E+00
      8.680  0.1895E-01  0.1895E-01  0.2197E+00  0.2197E+00
      8.772  0.1941E-01  0.1941E-01  0.2215E+00  0.2215E+00
      8.863  0.1889E-01  0.1889E-01  0.2232E+00  0.2232E+00
      8.954  0.2051E-01  0.2051E-01  0.2250E+00  0.2250E+00
      9.046  0.2340E-01  0.2340E-01  0.2270E+00  0.2270E+00
      9.137  0.2432E-01  0.2432E-01  0.2292E+00  0.2292E+00
      9.229  0.2240E-01  0.2240E-01  0.2314E+00  0.2314E+00
      9.320  0.1929E-01  0.1929E-01  0.2333E+00  0.2333E+00
      9.412  0.1782E-01  0.1782E-01  0.2350E+00  0.2350E+00
      9.503  0.1904E-01  0.1904E-01  0.2367E+00  0.2367E+00
      9.594  0.2203E-01  0.2203E-01  0.2386E+00  0.2386E+00
      9.686  0.2145E-01  0.2145E-01  0.2406E+00  0.2406E+00
      9.777  0.2442E-01  0.2442E-01  0.2427E+00  0.2427E+00
      9.869  0.2364E-01  0.2364E-01  0.2449E+00  0.2449E+00
      9.960  0.2002E-01  0.2002E-01  0.2469E+00  0.2469E+00
     10.051  0.2057E-01  0.2057E-01  0.2488E+00  0.2488E+00
     10.143  0.2175E-01  0.2175E-01  0.2507E+00  0.2507E+00
     10.234  0.2246E-01  0.2246E-01  0.2527E+00  0.2527E+00
     10.326  0.2095E-01  0.2095E-01  0.2547E+00  0.2547E+00
     10.417  0.2033E-01  0.2033E-01  0.2566E+00  0.2566E+00
     10.508  0.1880E-01  0.1880E-01  0.2584E+00  0.2584E+00
     10.600  0.1714E-01  0.1714E-01  0.2600E+00  0.2600E+00
     10.691  0.1996E-01  0.1996E-01  0.2617E+00  0.2617E+00
     10.783  0.2184E-01  0.2184E-01  0.2636E+00  0.2636E+00
     10.874  0.2315E-01  0.2315E-01  0.2657E+00  0.2657E+00
     10.966  0.2138E-01  0.2138E-01  0.2677E+00  0.2677E+00
     11.057  0.1981E-01  0.1981E-01  0.2696E+00  0.2696E+00
     11.148  0.1930E-01  0.1930E-01  0.2714E+00  0.2714E+00
     11.240  0.1825E-01  0.1825E-01  0.2731E+00  0.2731E+00
     11.331  0.1864E-01  0.1864E-01  0.2748E+00  0.2748E+00
     11.423  0.2305E-01  0.2305E-01  0.2767E+00  0.2767E+00
     11.514  0.2396E-01  0.2396E-01  0.2788E+00  0.2788E+00
     11.605  0.2356E-01  0.2356E-01  0.2810E+00  0.2810E+00
     11.697  0.2268E-01  0.2268E-01  0.2831E+00  0.2831E+00
     11.788  0.2149E-01  0.2149E-01  0.2851E+00  0.2851E+00
     11.880  0.1977E-01  0.1977E-01  0.2870E+00  0.2870E+00
     11.971  0.1613E-01  0.1613E-01  0.2887E+00  0.2887E+00
     12.063  0.1558E-01  0.1558E-01  0.2901E+00  0.2901E+00
     12.154  0.2021E-01  0.2021E-01  0.2917E+00  0.2917E+00
     12.245  0.2455E-01  0.2455E-01  0.2938E+00  0.2938E+00
     12.337  0.2345E-01  0.2345E-01  0.2960E+00  0.2960E+00
     12.428  0.2430E-01  0.2430E-01  0.2982E+00  0.2982E+00
     12.520  0.2387E-01  0.2387E-01  0.3004E+00  0.3004E+00
     12.611  0.2435E-01  0.2435E-01  0.3026E+00  0.3026E+00
     12.702  0.2162E-01  0.2162E-01  0.3047E+00  0.3047E+00
     12.794  0.1868E-01  0.1868E-01  0.3066E+00  0.3066E+00
     12.885  0.1892E-01  0.1892E-01  0.3083E+00  0.3083E+00
     12.977  0.1983E-01  0.1983E-01  0.3100E+00  0.3100E+00
     13.068  0.2339E-01  0.2339E-01  0.3120E+00  0.3120E+00
     13.159  0.2434E-01  0.2434E-01  0.3142E+00  0.3142E+00
     13.251  0.1815E-01  0.1815E-01  0.3162E+00  0.3162E+00
     13.342  0.1503E-01  0.1503E-01  0.3176E+00  0.3176E+00
     13.434  0.1310E-01  0.1310E-01  0.3189E+00  0.3189E+00
     13.525  0.1106E-01  0.1106E-01  0.3201E+00  0.3201E+00
     13.617  0.9320E-02  0.9319E-02  0.3210E+00  0.3210E+00
     13.708  0.7768E-02  0.7768E-02  0.3218E+00  0.3218E+00
     13.799  0.6683E-02  0.6683E-02  0.3224E+00  0.3224E+00
     13.891  0.4036E-02  0.4036E-02  0.3229E+00  0.3229E+00
     13.982  0.1625E-02  0.1625E-02  0.3232E+00  0.3232E+00
     14.074  0.1574E-03  0.1573E-03  0.3232E+00  0.3232E+00
     14.165  0.0000E+00  0.0000E+00  0.3232E+00  0.3232E+00
     14.256  0.0000E+00  0.0000E+00  0.3232E+00  0.3232E+00
     14.348  0.0000E+00  0.0000E+00  0.3232E+00  0.3232E+00
     14.439  0.0000E+00  0.0000E+00  0.3232E+00  0.3232E+00
     14.531  0.0000E+00  0.0000E+00  0.3232E+00  0.3232E+00
     14.622  0.0000E+00  0.0000E+00  0.3232E+00  0.3232E+00
     14.713  0.0000E+00  0.0000E+00  0.3232E+00  0.3232E+00
     14.805  0.0000E+00  0.0000E+00  0.3232E+00  0.3232E+00
     14.896  0.0000E+00  0.0000E+00  0.3232E+00  0.3232E+00
     14.988  0.0000E+00  0.0000E+00  0.3232E+00  0.3232E+00
     15.079  0.0000E+00  0.0000E+00  0.3232E+00  0.3232E+00
     15.171  0.0000E+00  0.0000E+00  0.3232E+00  0.3232E+00
     15.262  0.0000E+00  0.0000E+00  0.3232E+00  0.3232E+00
     15.353  0.0000E+00  0.0000E+00  0.3232E+00  0.3232E+00
     15.35338531    -12.07064920  301     -7.57996355      1.00000000
    -12.071  0.0000E+00  0.0000E+00  0.0000E+00  0.0000E+00  0.0000E+00  0.0000E+00  0.0000E+00  0.0000E+00  0.0000E+00  0.0000E+00  0.0000E+00  0.0000E+00  0.0000E+00  0.0000E+00  0.0000E+00  0.0000E+00  0.0000E+00  0.0000E+00
    -11.979  0.0000E+00  0.0000E+00  0.0000E+00  0.0000E+00  0.0000E+00  0.0000E+00  0.0000E+00  0.0000E+00  0.0000E+00  0.0000E+00  0.0000E+00  0.0000E+00  0.0000E+00  0.0000E+00  0.0000E+00  0.0000E+00  0.0000E+00  0.0000E+00
    -11.888  0.0000E+00  0.0000E+00  0.0000E+00  0.0000E+00  0.0000E+00  0.0000E+00  0.0000E+00  0.0000E+00  0.0000E+00  0.0000E+00  0.0000E+00  0.0000E+00  0.0000E+00  0.0000E+00  0.0000E+00  0.0000E+00  0.0000E+00  0.0000E+00
    -11.796  0.0000E+00  0.0000E+00  0.0000E+00  0.0000E+00  0.0000E+00  0.0000E+00  0.0000E+00  0.0000E+00  0.0000E+00  0.0000E+00  0.0000E+00  0.0000E+00  0.0000E+00  0.0000E+00  0.0000E+00  0.0000E+00  0.0000E+00  0.0000E+00
    -11.705  0.0000E+00  0.0000E+00  0.0000E+00  0.0000E+00  0.0000E+00  0.0000E+00  0.0000E+00  0.0000E+00  0.0000E+00  0.0000E+00  0.0000E+00  0.0000E+00  0.0000E+00  0.0000E+00  0.0000E+00  0.0000E+00  0.0000E+00  0.0000E+00
    -11.614  0.0000E+00  0.0000E+00  0.0000E+00  0.0000E+00  0.0000E+00  0.0000E+00  0.0000E+00  0.0000E+00  0.0000E+00  0.0000E+00  0.0000E+00  0.0000E+00  0.0000E+00  0.0000E+00  0.0000E+00  0.0000E+00  0.0000E+00  0.0000E+00
    -11.522  0.0000E+00  0.0000E+00  0.0000E+00  0.0000E+00  0.0000E+00  0.0000E+00  0.0000E+00  0.0000E+00  0.0000E+00  0.0000E+00  0.0000E+00  0.0000E+00  0.0000E+00  0.0000E+00  0.0000E+00  0.0000E+00  0.0000E+00  0.0000E+00
    -11.431  0.0000E+00  0.0000E+00  0.0000E+00  0.0000E+00  0.0000E+00  0.0000E+00  0.0000E+00  0.0000E+00  0.0000E+00  0.0000E+00  0.0000E+00  0.0000E+00  0.0000E+00  0.0000E+00  0.0000E+00  0.0000E+00  0.0000E+00  0.0000E+00
    -11.339  0.0000E+00  0.0000E+00  0.0000E+00  0.0000E+00  0.0000E+00  0.0000E+00  0.0000E+00  0.0000E+00  0.0000E+00  0.0000E+00  0.0000E+00  0.0000E+00  0.0000E+00  0.0000E+00  0.0000E+00  0.0000E+00  0.0000E+00  0.0000E+00
    -11.248  0.0000E+00  0.0000E+00  0.0000E+00  0.0000E+00  0.0000E+00  0.0000E+00  0.0000E+00  0.0000E+00  0.0000E+00  0.0000E+00  0.0000E+00  0.0000E+00  0.0000E+00  0.0000E+00  0.0000E+00  0.0000E+00  0.0000E+00  0.0000E+00
    -11.157  0.0000E+00  0.0000E+00  0.0000E+00  0.0000E+00  0.0000E+00  0.0000E+00  0.0000E+00  0.0000E+00  0.0000E+00  0.0000E+00  0.0000E+00  0.0000E+00  0.0000E+00  0.0000E+00  0.0000E+00  0.0000E+00  0.0000E+00  0.0000E+00
    -11.065  0.0000E+00  0.0000E+00  0.0000E+00  0.0000E+00  0.0000E+00  0.0000E+00  0.0000E+00  0.0000E+00  0.0000E+00  0.0000E+00  0.0000E+00  0.0000E+00  0.0000E+00  0.0000E+00  0.0000E+00  0.0000E+00  0.0000E+00  0.0000E+00
    -10.974  0.0000E+00  0.0000E+00  0.0000E+00  0.0000E+00  0.0000E+00  0.0000E+00  0.0000E+00  0.0000E+00  0.0000E+00  0.0000E+00  0.0000E+00  0.0000E+00  0.0000E+00  0.0000E+00  0.0000E+00  0.0000E+00  0.0000E+00  0.0000E+00
    -10.882  0.0000E+00  0.0000E+00  0.0000E+00  0.0000E+00  0.0000E+00  0.0000E+00  0.0000E+00  0.0000E+00  0.0000E+00  0.0000E+00  0.0000E+00  0.0000E+00  0.0000E+00  0.0000E+00  0.0000E+00  0.0000E+00  0.0000E+00  0.0000E+00
    -10.791  0.4983E-03  0.4983E-03  0.7035E-07  0.7036E-07  0.1134E-05  0.1135E-05  0.1671E-04  0.1672E-04  0.0000E+00  0.0000E+00  0.0000E+00  0.0000E+00  0.0000E+00  0.0000E+00  0.0000E+00  0.0000E+00  0.0000E+00  0.0000E+00
    -10.699  0.7008E-02  0.7008E-02  0.9894E-06  0.9894E-06  0.1596E-04  0.1596E-04  0.2351E-03  0.2351E-03  0.0000E+00  0.0000E+00  0.0000E+00  0.0000E+00  0.0000E+00  0.0000E+00  0.0000E+00  0.0000E+00  0.0000E+00  0.0000E+00
    -10.608  0.1218E-01  0.1218E-01  0.2219E-05  0.2219E-05  0.2887E-04  0.2887E-04  0.4139E-03  0.4139E-03  0.0000E+00  0.0000E+00  0.0000E+00  0.0000E+00  0.0000E+00  0.0000E+00  0.0000E+00  0.0000E+00  0.0000E+00  0.0000E+00
    -10.517  0.1508E-01  0.1509E-01  0.3134E-05  0.3134E-05  0.3661E-04  0.3661E-04  0.5166E-03  0.5166E-03  0.0000E+00  0.0000E+00  0.0000E+00  0.0000E+00  0.0000E+00  0.0000E+00  0.0000E+00  0.0000E+00  0.0000E+00  0.0000E+00
    -10.425  0.1875E-01  0.1875E-01  0.4227E-05  0.4227E-05  0.4600E-04  0.4600E-04  0.6444E-03  0.6444E-03  0.0000E+00  0.0000E+00  0.0000E+00  0.0000E+00  0.0000E+00  0.0000E+00  0.0000E+00  0.0000E+00  0.0000E+00  0.0000E+00
    -10.334  0.2252E-01  0.2252E-01  0.5622E-05  0.5622E-05  0.5587E-04  0.5587E-04  0.7779E-03  0.7779E-03  0.0000E+00  0.0000E+00  0.0000E+00  0.0000E+00  0.0000E+00  0.0000E+00  0.0000E+00  0.0000E+00  0.0000E+00  0.0000E+00
    -10.242  0.3077E-01  0.3077E-01  0.7968E-05  0.7968E-05  0.7663E-04  0.7663E-04  0.1067E-02  0.1067E-02  0.0000E+00  0.0000E+00  0.0000E+00  0.0000E+00  0.0000E+00  0.0000E+00  0.0000E+00  0.0000E+00  0.0000E+00  0.0000E+00
    -10.151  0.3041E-01  0.3041E-01  0.8892E-05  0.8892E-05  0.7722E-04  0.7722E-04  0.1072E-02  0.1072E-02  0.0000E+00  0.0000E+00  0.0000E+00  0.0000E+00  0.0000E+00  0.0000E+00  0.0000E+00  0.0000E+00  0.0000E+00  0.0000E+00
    -10.060  0.3219E-01  0.3219E-01  0.1017E-04  0.1017E-04  0.8283E-04  0.8283E-04  0.1148E-02  0.1148E-02  0.0000E+00  0.0000E+00  0.0000E+00  0.0000E+00  0.0000E+00  0.0000E+00  0.0000E+00  0.0000E+00  0.0000E+00  0.0000E+00
     -9.968  0.3598E-01  0.3598E-01  0.1207E-04  0.1207E-04  0.9447E-04  0.9447E-04  0.1297E-02  0.1297E-02  0.0000E+00  0.0000E+00  0.0000E+00  0.0000E+00  0.0000E+00  0.0000E+00  0.0000E+00  0.0000E+00  0.0000E+00  0.0000E+00
     -9.877  0.4245E-01  0.4245E-01  0.1583E-04  0.1583E-04  0.1120E-03  0.1120E-03  0.1548E-02  0.1548E-02  0.0000E+00  0.0000E+00  0.0000E+00  0.0000E+00  0.0000E+00  0.0000E+00  0.0000E+00  0.0000E+00  0.0000E+00  0.0000E+00
     -9.785  0.4497E-01  0.4497E-01  0.1724E-04  0.1724E-04  0.1212E-03  0.1212E-03  0.1667E-02  0.1667E-02  0.0000E+00  0.0000E+00  0.0000E+00  0.0000E+00  0.0000E+00  0.0000E+00  0.0000E+00  0.0000E+00  0.0000E+00  0.0000E+00
     -9.694  0.4135E-01  0.4134E-01  0.1637E-04  0.1637E-04  0.1180E-03  0.1180E-03  0.1571E-02  0.1571E-02  0.0000E+00  0.0000E+00  0.0000E+00  0.0000E+00  0.0000E+00  0.0000E+00  0.0000E+00  0.0000E+00  0.0000E+00  0.0000E+00
     -9.602  0.3835E-01  0.3835E-01  0.1376E-04  0.1376E-04  0.1194E-03  0.1194E-03  0.1532E-02  0.1532E-02  0.0000E+00  0.0000E+00  0.0000E+00  0.0000E+00  0.0000E+00  0.0000E+00  0.0000E+00  0.0000E+00  0.0000E+00  0.0000E+00
     -9.511  0.4089E-01  0.4089E-01  0.1359E-04  0.1359E-04  0.1283E-03  0.1283E-03  0.1646E-02  0.1646E-02  0.0000E+00  0.0000E+00  0.0000E+00  0.0000E+00  0.0000E+00  0.0000E+00  0.0000E+00  0.0000E+00  0.0000E+00  0.0000E+00
     -9.420  0.5078E-01  0.5078E-01  0.1786E-04  0.1786E-04  0.1529E-03  0.1529E-03  0.2047E-02  0.2047E-02  0.0000E+00  0.0000E+00  0.0000E+00  0.0000E+00  0.0000E+00  0.0000E+00  0.0000E+00  0.0000E+00  0.0000E+00  0.0000E+00
     -9.328  0.7218E-01  0.7218E-01  0.2833E-04  0.2833E-04  0.2074E-03  0.2074E-03  0.2885E-02  0.2885E-02  0.0000E+00  0.0000E+00  0.0000E+00  0.0000E+00  0.0000E+00  0.0000E+00  0.0000E+00  0.0000E+00  0.0000E+00  0.0000E+00
     -9.237  0.6910E-01  0.6910E-01  0.2535E-04  0.2535E-04  0.1986E-03  0.1986E-03  0.2800E-02  0.2800E-02  0.0000E+00  0.0000E+00  0.0000E+00  0.0000E+00  0.0000E+00  0.0000E+00  0.0000E+00  0.0000E+00  0.0000E+00  0.0000E+00
     -9.145  0.6417E-01  0.6417E-01  0.2176E-04  0.2176E-04  0.1865E-03  0.1865E-03  0.2621E-02  0.2621E-02  0.0000E+00  0.0000E+00  0.0000E+00  0.0000E+00  0.0000E+00  0.0000E+00  0.0000E+00  0.0000E+00  0.0000E+00  0.0000E+00
     -9.054  0.8563E-01  0.8563E-01  0.3286E-04  0.3286E-04  0.2544E-03  0.2544E-03  0.3494E-02  0.3494E-02  0.0000E+00  0.0000E+00  0.0000E+00  0.0000E+00  0.0000E+00  0.0000E+00  0.0000E+00  0.0000E+00  0.0000E+00  0.0000E+00
     -8.963  0.9548E-01  0.9548E-01  0.3457E-04  0.3457E-04  0.2842E-03  0.2842E-03  0.3932E-02  0.3932E-02  0.0000E+00  0.0000E+00  0.0000E+00  0.0000E+00  0.0000E+00  0.0000E+00  0.0000E+00  0.0000E+00  0.0000E+00  0.0000E+00
     -8.871  0.1062E+00  0.1062E+00  0.3319E-04  0.3319E-04  0.3161E-03  0.3161E-03  0.4468E-02  0.4468E-02  0.0000E+00  0.0000E+00  0.0000E+00  0.0000E+00  0.0000E+00  0.0000E+00  0.0000E+00  0.0000E+00  0.0000E+00  0.0000E+00
     -8.780  0.1038E+00  0.1038E+00  0.3120E-04  0.3120E-04  0.3031E-03  0.3031E-03  0.4389E-02  0.4389E-02  0.0000E+00  0.0000E+00  0.0000E+00  0.0000E+00  0.0000E+00  0.0000E+00  0.0000E+00  0.0000E+00  0.0000E+00  0.0000E+00
     -8.688  0.1210E+00  0.1210E+00  0.3654E-04  0.3654E-04  0.3434E-03  0.3434E-03  0.5079E-02  0.5079E-02  0.0000E+00  0.0000E+00  0.0000E+00  0.0000E+00  0.0000E+00  0.0000E+00  0.0000E+00  0.0000E+00  0.0000E+00  0.0000E+00
     -8.597  0.1538E+00  0.1538E+00  0.4283E-04  0.4283E-04  0.4233E-03  0.4233E-03  0.6457E-02  0.6457E-02  0.0000E+00  0.0000E+00  0.0000E+00  0.0000E+00  0.0000E+00  0.0000E+00  0.0000E+00  0.0000E+00  0.0000E+00  0.0000E+00
     -8.506  0.1629E+00  0.1629E+00  0.4209E-04  0.4209E-04  0.4511E-03  0.4511E-03  0.6855E-02  0.6855E-02  0.0000E+00  0.0000E+00  0.0000E+00  0.0000E+00  0.0000E+00  0.0000E+00  0.0000E+00  0.0000E+00  0.0000E+00  0.0000E+00
     -8.414  0.1559E+00  0.1559E+00  0.3361E-04  0.3361E-04  0.4514E-03  0.4514E-03  0.6611E-02  0.6611E-02  0.0000E+00  0.0000E+00  0.0000E+00  0.0000E+00  0.0000E+00  0.0000E+00  0.0000E+00  0.0000E+00  0.0000E+00  0.0000E+00
     -8.323  0.1771E+00  0.1771E+00  0.2859E-04  0.2859E-04  0.5762E-03  0.5762E-03  0.7785E-02  0.7785E-02  0.0000E+00  0.0000E+00  0.0000E+00  0.0000E+00  0.0000E+00  0.0000E+00  0.0000E+00  0.0000E+00  0.0000E+00  0.0000E+00
     -8.231  0.2333E+00  0.2333E+00  0.2989E-04  0.2989E-04  0.7914E-03  0.7914E-03  0.1006E-01  0.1006E-01  0.0000E+00  0.0000E+00  0.0000E+00  0.0000E+00  0.0000E+00  0.0000E+00  0.0000E+00  0.0000E+00  0.0000E+00  0.0000E+00
     -8.140  0.2846E+00  0.2846E+00  0.2939E-04  0.2939E-04  0.9323E-03  0.9323E-03  0.1238E-01  0.1238E-01  0.0000E+00  0.0000E+00  0.0000E+00  0.0000E+00  0.0000E+00  0.0000E+00  0.0000E+00  0.0000E+00  0.0000E+00  0.0000E+00
     -8.048  0.2967E+00  0.2967E+00  0.4026E-04  0.4026E-04  0.1003E-02  0.1003E-02  0.1331E-01  0.1331E-01  0.0000E+00  0.0000E+00  0.0000E+00  0.0000E+00  0.0000E+00  0.0000E+00  0.0000E+00  0.0000E+00  0.0000E+00  0.0000E+00
     -7.957  0.3395E+00  0.3395E+00  0.5462E-04  0.5463E-04  0.1114E-02  0.1114E-02  0.1530E-01  0.1530E-01  0.0000E+00  0.0000E+00  0.0000E+00  0.0000E+00  0.0000E+00  0.0000E+00  0.0000E+00  0.0000E+00  0.0000E+00  0.0000E+00
     -7.866  0.2230E+00  0.2230E+00  0.4144E-04  0.4144E-04  0.6773E-03  0.6773E-03  0.9931E-02  0.9931E-02  0.0000E+00  0.0000E+00  0.0000E+00  0.0000E+00  0.0000E+00  0.0000E+00  0.0000E+00  0.0000E+00  0.0000E+00  0.0000E+00
     -7.774  0.1709E+00  0.1709E+00  0.5223E-04  0.5223E-04  0.4669E-03  0.4669E-03  0.7453E-02  0.7453E-02  0.0000E+00  0.0000E+00  0.0000E+00  0.0000E+00  0.0000E+00  0.0000E+00  0.0000E+00  0.0000E+00  0.0000E+00  0.0000E+00
     -7.683  0.1258E-01  0.1258E-01  0.2062E-05  0.2062E-05  0.3148E-04  0.3148E-04  0.5161E-03  0.5161E-03  0.0000E+00  0.0000E+00  0.0000E+00  0.0000E+00  0.0000E+00  0.0000E+00  0.0000E+00  0.0000E+00  0.0000E+00  0.0000E+00
     -7.591  0.0000E+00  0.0000E+00  0.0000E+00  0.0000E+00  0.0000E+00  0.0000E+00  0.0000E+00  0.0000E+00  0.0000E+00  0.0000E+00  0.0000E+00  0.0000E+00  0.0000E+00  0.0000E+00  0.0000E+00  0.0000E+00  0.0000E+00  0.0000E+00
     -7.500  0.0000E+00  0.0000E+00  0.0000E+00  0.0000E+00  0.0000E+00  0.0000E+00  0.0000E+00  0.0000E+00  0.0000E+00  0.0000E+00  0.0000E+00  0.0000E+00  0.0000E+00  0.0000E+00  0.0000E+00  0.0000E+00  0.0000E+00  0.0000E+00