Automatically generated mesh
      62
Reciprocal lattice
    0.00000000000000    0.00000000000000    0.00000000000000             1
    0.25000000000000    0.00000000000000    0.00000000000000             2
    0.50000000000000    0.00000000000000    0.00000000000000             1
    0.00000000000000    0.16666666666667    0.00000000000000             2
    0.25000000000000    0.16666666666667    0.00000000000000             2
    0.50000000000000    0.16666666666667    0.00000000000000             2
   -0.25000000000000    0.16666666666667    0.00000000000000             2
    0.00000000000000    0.33333333333333    0.00000000000000             2
    0.25000000000000    0.33333333333333    0.00000000000000             2
    0.50000000000000    0.33333333333333    0.00000000000000             2
   -0.25000000000000    0.33333333333333    0.00000000000000             2
    0.00000000000000    0.50000000000000    0.00000000000000             1
    0.25000000000000    0.50000000000000    0.00000000000000             2
    0.50000000000000    0.50000000000000    0.00000000000000             1
    0.00000000000000    0.00000000000000    0.20000000000000             2
    0.25000000000000    0.00000000000000    0.20000000000000             2
    0.50000000000000    0.00000000000000    0.20000000000000             2
   -0.25000000000000    0.00000000000000    0.20000000000000             2
    0.00000000000000    0.16666666666667    0.20000000000000             2
    0.25000000000000    0.16666666666667    0.20000000000000             2
    0.50000000000000    0.16666666666667    0.20000000000000             2
   -0.25000000000000    0.16666666666667    0.20000000000000             2
    0.00000000000000    0.33333333333333    0.20000000000000             2
    0.25000000000000    0.33333333333333    0.20000000000000             2
    0.50000000000000    0.33333333333333    0.20000000000000             2
   -0.25000000000000    0.33333333333333    0.20000000000000             2
    0.00000000000000    0.50000000000000    0.20000000000000             2
    0.25000000000000    0.50000000000000    0.20000000000000             2
    0.50000000000000    0.50000000000000    0.20000000000000             2
   -0.25000000000000    0.50000000000000    0.20000000000000             2
    0.00000000000000   -0.33333333333333    0.20000000000000             2
    0.25000000000000   -0.33333333333333    0.20000000000000             2
    0.50000000000000   -0.33333333333333    0.20000000000000             2
   -0.25000000000000   -0.33333333333333    0.20000000000000             2
    0.00000000000000   -0.16666666666667    0.20000000000000             2
    0.25000000000000   -0.16666666666667    0.20000000000000             2
    0.50000000000000   -0.16666666666667    0.20000000000000             2
   -0.25000000000000   -0.16666666666667    0.20000000000000             2
    0.00000000000000    0.00000000000000    0.40000000000000             2
    0.25000000000000    0.00000000000000    0.40000000000000             2
    0.50000000000000    0.00000000000000    0.40000000000000             2
   -0.25000000000000    0.00000000000000    0.40000000000000             2
    0.00000000000000    0.16666666666667    0.40000000000000             2
    0.25000000000000    0.16666666666667    0.40000000000000             2
    0.50000000000000    0.16666666666667    0.40000000000000             2
   -0.25000000000000    0.16666666666667    0.40000000000000             2
    0.00000000000000    0.33333333333333    0.40000000000000             2
    0.25000000000000    0.33333333333333    0.40000000000000             2
    0.50000000000000    0.33333333333333    0.40000000000000             2
   -0.25000000000000    0.33333333333333    0.40000000000000             2
    0.00000000000000    0.50000000000000    0.40000000000000             2
    0.25000000000000    0.50000000000000    0.40000000000000             2
    0.50000000000000    0.50000000000000    0.40000000000000             2
   -0.25000000000000    0.50000000000000    0.40000000000000             2
    0.00000000000000   -0.33333333333333    0.40000000000000             2
    0.25000000000000   -0.33333333333333    0.40000000000000             2
    0.50000000000000   -0.33333333333333    0.40000000000000             2
   -0.25000000000000   -0.33333333333333    0.40000000000000             2
    0.00000000000000   -0.16666666666667    0.40000000000000             2
    0.25000000000000   -0.16666666666667    0.40000000000000             2
    0.50000000000000   -0.16666666666667    0.40000000000000             2
   -0.25000000000000   -0.16666666666667    0.40000000000000             2
Tetrahedra
       360    0.00138888888889
         2         1         4         5        20
         2         1         2         5        20
         2         1         2        16        20
         2         1         4        19        20
         2         1        15        19        20
         2         1        15        16        20
         2         2         5         6        21
         2         2         3         6        21
         2         2         3        17        21
         2         2         5        20        21
         2         2        16        20        21
         2         2        16        17        21
         2         3         6         7        22
         2         2         3         7        22
         2         2         3        18        22
         2         3         6        21        22
         2         3        17        21        22
         2         3        17        18        22
         2         2         4         7        19
         2         1         2         4        19
         2         1         2        15        19
         2         2         7        19        22
         2         2        18        19        22
         2         2        15        18        19
         2         4         8         9        24
         2         4         5         9        24
         2         4         5        20        24
         2         4         8        23        24
         2         4        19        23        24
         2         4        19        20        24
         2         5         9        10        25
         2         5         6        10        25
         2         5         6        21        25
         2         5         9        24        25
         2         5        20        24        25
         2         5        20        21        25
         2         6        10        11        26
         2         6         7        11        26
         2         6         7        22        26
         2         6        10        25        26
         2         6        21        25        26
         2         6        21        22        26
         2         7         8        11        23
         2         4         7         8        23
         2         4         7        19        23
         2         7        11        23        26
         2         7        22        23        26
         2         7        19        22        23
         2         8        12        13        28
         2         8         9        13        28
         2         8         9        24        28
         2         8        12        27        28
         2         8        23        27        28
         2         8        23        24        28
         2         9        13        14        29
         2         9        10        14        29
         2         9        10        25        29
         2         9        13        28        29
         2         9        24        28        29
         2         9        24        25        29
         2        10        13        14        30
         2        10        11        13        30
         2        10        11        26        30
         2        10        14        29        30
         2        10        25        29        30
         2        10        25        26        30
         2        11        12        13        27
         2         8        11        12        27
         2         8        11        23        27
         2        11        13        27        30
         2        11        26        27        30
         2        11        23        26        27
         2         8        11        12        32
         2        11        12        13        32
         2        12        13        28        32
         2         8        12        31        32
         2        12        27        31        32
         2        12        27        28        32
         2        10        11        13        33
         2        10        13        14        33
         2        13        14        29        33
         2        11        13        32        33
         2        13        28        32        33
         2        13        28        29        33
         2         9        10        14        34
         2         9        13        14        34
         2        13        14        30        34
         2        10        14        33        34
         2        14        29        33        34
         2        14        29        30        34
         2         8         9        13        31
         2         8        12        13        31
         2        12        13        27        31
         2         9        13        31        34
         2        13        30        31        34
         2        13        27        30        31
         2         4         7         8        36
         2         7         8        11        36
         2         8        11        32        36
         2         4         8        35        36
         2         8        31        35        36
         2         8        31        32        36
         2         6         7        11        37
         2         6        10        11        37
         2        10        11        33        37
         2         7        11        36        37
         2        11        32        36        37
         2        11        32        33        37
         2         5         6        10        38
         2         5         9        10        38
         2         9        10        34        38
         2         6        10        37        38
         2        10        33        37        38
         2        10        33        34        38
         2         4         5         9        35
         2         4         8         9        35
         2         8         9        31        35
         2         5         9        35        38
         2         9        34        35        38
         2         9        31        34        35
         2         1         2         4        16
         2         2         4         7        16
         2         4         7        16        36
         2         1         4        15        16
         2         4        15        16        35
         2         4        16        35        36
         2         2         3         7        17
         2         3         6         7        17
         2         6         7        17        37
         2         2         7        16        17
         2         7        16        17        36
         2         7        17        36        37
         2         2         3         6        18
         2         2         5         6        18
         2         5         6        18        38
         2         3         6        17        18
         2         6        17        18        37
         2         6        18        37        38
         2         1         2         5        15
         2         1         4         5        15
         2         4         5        15        35
         2         2         5        15        18
         2         5        15        18        38
         2         5        15        35        38
         2        15        19        20        44
         2        15        16        20        44
         2        15        16        40        44
         2        15        19        43        44
         2        15        39        43        44
         2        15        39        40        44
         2        16        20        21        45
         2        16        17        21        45
         2        16        17        41        45
         2        16        20        44        45
         2        16        40        44        45
         2        16        40        41        45
         2        17        21        22        46
         2        17        18        22        46
         2        17        18        42        46
         2        17        21        45        46
         2        17        41        45        46
         2        17        41        42        46
         2        18        19        22        43
         2        15        18        19        43
         2        15        18        39        43
         2        18        22        43        46
         2        18        42        43        46
         2        18        39        42        43
         2        19        23        24        48
         2        19        20        24        48
         2        19        20        44        48
         2        19        23        47        48
         2        19        43        47        48
         2        19        43        44        48
         2        20        24        25        49
         2        20        21        25        49
         2        20        21        45        49
         2        20        24        48        49
         2        20        44        48        49
         2        20        44        45        49
         2        21        25        26        50
         2        21        22        26        50
         2        21        22        46        50
         2        21        25        49        50
         2        21        45        49        50
         2        21        45        46        50
         2        22        23        26        47
         2        19        22        23        47
         2        19        22        43        47
         2        22        26        47        50
         2        22        46        47        50
         2        22        43        46        47
         2        23        27        28        52
         2        23        24        28        52
         2        23        24        48        52
         2        23        27        51        52
         2        23        47        51        52
         2        23        47        48        52
         2        24        28        29        53
         2        24        25        29        53
         2        24        25        49        53
         2        24        28        52        53
         2        24        48        52        53
         2        24        48        49        53
         2        25        29        30        54
         2        25        26        30        54
         2        25        26        50        54
         2        25        29        53        54
         2        25        49        53        54
         2        25        49        50        54
         2        26        27        30        51
         2        23        26        27        51
         2        23        26        47        51
         2        26        30        51        54
         2        26        50        51        54
         2        26        47        50        51
         2        27        31        32        56
         2        27        28        32        56
         2        27        28        52        56
         2        27        31        55        56
         2        27        51        55        56
         2        27        51        52        56
         2        28        32        33        57
         2        28        29        33        57
         2        28        29        53        57
         2        28        32        56        57
         2        28        52        56        57
         2        28        52        53        57
         2        29        33        34        58
         2        29        30        34        58
         2        29        30        54        58
         2        29        33        57        58
         2        29        53        57        58
         2        29        53        54        58
         2        30        31        34        55
         2        27        30        31        55
         2        27        30        51        55
         2        30        34        55        58
         2        30        54        55        58
         2        30        51        54        55
         2        31        35        36        60
         2        31        32        36        60
         2        31        32        56        60
         2        31        35        59        60
         2        31        55        59        60
         2        31        55        56        60
         2        32        36        37        61
         2        32        33        37        61
         2        32        33        57        61
         2        32        36        60        61
         2        32        56        60        61
         2        32        56        57        61
         2        33        37        38        62
         2        33        34        38        62
         2        33        34        58        62
         2        33        37        61        62
         2        33        57        61        62
         2        33        57        58        62
         2        34        35        38        59
         2        31        34        35        59
         2        31        34        55        59
         2        34        38        59        62
         2        34        58        59        62
         2        34        55        58        59
         2        15        16        35        40
         2        16        35        36        40
         2        35        36        40        60
         2        15        35        39        40
         2        35        39        40        59
         2        35        40        59        60
         2        16        17        36        41
         2        17        36        37        41
         2        36        37        41        61
         2        16        36        40        41
         2        36        40        41        60
         2        36        41        60        61
         2        17        18        37        42
         2        18        37        38        42
         2        37        38        42        62
         2        17        37        41        42
         2        37        41        42        61
         2        37        42        61        62
         2        15        18        38        39
         2        15        35        38        39
         2        35        38        39        59
         2        18        38        39        42
         2        38        39        42        62
         2        38        39        59        62
         2        39        43        44        62
         2        39        40        44        62
         2        39        40        42        62
         2        39        43        59        62
         2        39        39        59        62
         2        39        39        42        62
         2        40        44        45        61
         2        40        41        45        61
         2        40        41        41        61
         2        40        44        61        62
         2        40        42        61        62
         2        40        41        42        61
         2        41        45        46        60
         2        41        42        46        60
         2        40        41        42        60
         2        41        45        60        61
         2        41        41        60        61
         2        40        41        41        60
         2        42        43        46        59
         2        39        42        43        59
         2        39        39        42        59
         2        42        46        59        60
         2        40        42        59        60
         2        39        40        42        59
         2        43        47        48        58
         2        43        44        48        58
         2        43        44        58        62
         2        43        47        55        58
         2        43        55        58        59
         2        43        58        59        62
         2        44        48        49        57
         2        44        45        49        57
         2        44        45        57        61
         2        44        48        57        58
         2        44        57        58        62
         2        44        57        61        62
         2        45        49        50        56
         2        45        46        50        56
         2        45        46        56        60
         2        45        49        56        57
         2        45        56        57        61
         2        45        56        60        61
         2        46        47        50        55
         2        43        46        47        55
         2        43        46        55        59
         2        46        50        55        56
         2        46        55        56        60
         2        46        55        59        60
         2        47        51        52        54
         2        47        48        52        54
         2        47        48        54        58
         2        47        51        51        54
         2        47        51        54        55
         2        47        54        55        58
         2        48        52        53        53
         2        48        49        53        53
         2        48        49        53        57
         2        48        52        53        54
         2        48        53        54        58
         2        48        53        57        58
         2        49        52        53        54
         2        49        50        52        54
         2        49        50        52        56
         2        49        52        53        53
         2        49        52        53        57
         2        49        52        56        57
         2        50        51        51        54
         2        47        50        51        51
         2        47        50        51        55
         2        50        51        52        54
         2        50        51        52        56
         2        50        51        55        56
