 running on   16 total cores
 distrk:  each k-point on   16 cores,    1 groups
 distr:  one band on    1 cores,   16 groups
 using from now: INCAR     
 vasp.5.4.4.18Apr17-6-g9f103f2a35 (build Nov 01 2019 12:17:22) complex          
  
 POSCAR found type information on POSCAR  H 
 POSCAR found :  1 types and      16 ions

 ----------------------------------------------------------------------------- 
|                                                                             |
|           W    W    AA    RRRRR   N    N  II  N    N   GGGG   !!!           |
|           W    W   A  A   R    R  NN   N  II  NN   N  G    G  !!!           |
|           W    W  A    A  R    R  N N  N  II  N N  N  G       !!!           |
|           W WW W  AAAAAA  RRRRR   N  N N  II  N  N N  G  GGG   !            |
|           WW  WW  A    A  R   R   N   NN  II  N   NN  G    G                |
|           W    W  A    A  R    R  N    N  II  N    N   GGGG   !!!           |
|                                                                             |
|      For optimal performance we recommend to set                            |
|        NCORE= 4 - approx SQRT( number of cores)                             |
|      NCORE specifies how many cores store one orbital (NPAR=cpu/NCORE).     |
|      This setting can  greatly improve the performance of VASP for DFT.     |
|      The default,   NCORE=1            might be grossly inefficient         |
|      on modern multi-core architectures or massively parallel machines.     |
|      Do your own testing !!!!                                               |
|      Unfortunately you need to use the default for GW and RPA calculations. |
|      (for HF NCORE is supported but not extensively tested yet)             |
|                                                                             |
 ----------------------------------------------------------------------------- 

 LDA part: xc-table for Pade appr. of Perdew
 POSCAR, INCAR and KPOINTS ok, starting setup
 FFT: planning ...
 WAVECAR not read
 entering main loop
       N       E                     dE             d eps       ncg     rms          rms(c)
DAV:   1    -0.139605894730E+02   -0.13961E+02   -0.62966E+03  7936   0.401E+02
DAV:   2    -0.480067394278E+02   -0.34046E+02   -0.33025E+02 10592   0.765E+01
DAV:   3    -0.490482601956E+02   -0.10415E+01   -0.10409E+01  9952   0.112E+01
DAV:   4    -0.490496754454E+02   -0.14152E-02   -0.14152E-02 10272   0.520E-01
DAV:   5    -0.490496781930E+02   -0.27476E-05   -0.27476E-05  8048   0.235E-02    0.183E+01
RMM:   6    -0.533590565770E+02   -0.43094E+01   -0.15741E+00  7936   0.332E+00    0.753E+00
RMM:   7    -0.530231955990E+02    0.33586E+00   -0.10167E+00  7936   0.333E+00    0.359E+00
RMM:   8    -0.529899687809E+02    0.33227E-01   -0.33230E-01  7936   0.196E+00    0.852E-01
RMM:   9    -0.530028509206E+02   -0.12882E-01   -0.17051E-02  7936   0.509E-01    0.378E-01
RMM:  10    -0.530060755585E+02   -0.32246E-02   -0.75137E-04  7040   0.110E-01    0.178E-01
RMM:  11    -0.530084519472E+02   -0.23764E-02   -0.16080E-03  7742   0.159E-01    0.523E-02
RMM:  12    -0.530086447853E+02   -0.19284E-03   -0.16656E-04  5436   0.519E-02
   1 F= -.53008645E+02 E0= -.53008645E+02  d E =-.530086E+02  mag=    -0.0000
 curvature:   0.00 expect dE= 0.000E+00 dE for cont linesearch  0.000E+00
 trial: gam= 0.00000 g(F)=  0.267E-02 g(S)=  0.129E+00 ort = 0.000E+00 (trialstep = 0.100E+01)
 search vector abs. value=  0.132E+00
 bond charge predicted
       N       E                     dE             d eps       ncg     rms          rms(c)
DAV:   1    -0.531168164064E+02   -0.10836E+00   -0.23237E-01 10480   0.209E+00    0.368E-01
RMM:   2    -0.531154537859E+02    0.13626E-02   -0.23737E-03  7559   0.184E-01    0.212E-01
RMM:   3    -0.531147936575E+02    0.66013E-03   -0.71713E-04  4286   0.847E-02
   2 F= -.53114794E+02 E0= -.53114794E+02  d E =-.106149E+00  mag=     0.0000
 trial-energy change:   -0.106149  1 .order   -0.107071   -0.131813   -0.082329
 step:   2.6638(harm=  2.6638)  dis= 0.01166  next Energy=   -53.184204 (dE=-0.176E+00)
 bond charge predicted
       N       E                     dE             d eps       ncg     rms          rms(c)
DAV:   1    -0.531906942090E+02   -0.75240E-01   -0.62363E-01  9600   0.336E+00    0.596E-01
RMM:   2    -0.531870670629E+02    0.36271E-02   -0.64837E-03  7936   0.301E-01    0.343E-01
RMM:   3    -0.531853248055E+02    0.17423E-02   -0.20594E-03  7711   0.138E-01    0.242E-02
RMM:   4    -0.531853339793E+02   -0.91738E-05   -0.10905E-05  3191   0.152E-02
   3 F= -.53185334E+02 E0= -.53185334E+02  d E =-.176689E+00  mag=     0.0000
 curvature:  -1.33 expect dE=-0.966E+00 dE for cont linesearch -0.442E-03
 trial: gam= 5.45226 g(F)=  0.678E+00 g(S)=  0.477E-01 ort = 0.661E-02 (trialstep = 0.373E-01)
 search vector abs. value=  0.472E+01
 bond charge predicted
       N       E                     dE             d eps       ncg     rms          rms(c)
DAV:   1    -0.532137004337E+02   -0.28376E-01   -0.35126E-02 10880   0.634E-01    0.146E-01
RMM:   2    -0.532134497616E+02    0.25067E-03   -0.46793E-04  4078   0.777E-02
   4 F= -.53213450E+02 E0= -.53213450E+02  d E =-.281158E-01  mag=    -0.0000
 ZBRENT: can't locate minimum, use default step
 trial-energy change:   -0.028116  1 .order   -0.028427   -0.028361   -0.028492
 step:   0.1490(harm=  0.1490)  dis= 0.00566  next Energy=   -53.299823 (dE=-0.114E+00)
 bond charge predicted
       N       E                     dE             d eps       ncg     rms          rms(c)
DAV:   1    -0.532962572405E+02   -0.82557E-01   -0.30344E-01  8784   0.187E+00    0.435E-01
RMM:   2    -0.532940249727E+02    0.22323E-02   -0.43093E-03  7884   0.226E-01    0.247E-01
RMM:   3    -0.532929314986E+02    0.10935E-02   -0.11459E-03  5377   0.930E-02    0.106E-02
RMM:   4    -0.532929379095E+02   -0.64108E-05   -0.13456E-05  3377   0.152E-02
   5 F= -.53292938E+02 E0= -.53292938E+02  d E =-.107604E+00  mag=     0.0000
 curvature:  -0.69 expect dE=-0.389E+00 dE for cont linesearch -0.690E-01
 ZBRENT: increasing intervall
 opt :   0.3725  next Energy=   -53.428067 (dE=-0.243E+00)
 bond charge predicted
       N       E                     dE             d eps       ncg     rms          rms(c)
DAV:   1    -0.534459488170E+02   -0.15302E+00   -0.12547E+00  9152   0.374E+00    0.862E-01
RMM:   2    -0.534369184426E+02    0.90304E-02   -0.18044E-02  7936   0.457E-01    0.489E-01
RMM:   3    -0.534324931686E+02    0.44253E-02   -0.47860E-03  7934   0.186E-01    0.213E-02
RMM:   4    -0.534325118804E+02   -0.18712E-04   -0.25851E-05  4203   0.207E-02
   6 F= -.53432512E+02 E0= -.53432512E+02  d E =-.247178E+00  mag=    -0.0000
 curvature:  -1.36 expect dE=-0.463E+00 dE for cont linesearch -0.935E-01
 ZBRENT: increasing intervall
 opt :   0.8195  next Energy=   -53.635681 (dE=-0.450E+00)
 bond charge predicted
       N       E                     dE             d eps       ncg     rms          rms(c)
DAV:   1    -0.536885645871E+02   -0.25607E+00   -0.49814E+00  8768   0.732E+00    0.171E+00
RMM:   2    -0.536510160886E+02    0.37548E-01   -0.75089E-02  7936   0.902E-01    0.967E-01
RMM:   3    -0.536327730143E+02    0.18243E-01   -0.20720E-02  7936   0.379E-01    0.446E-02
RMM:   4    -0.536328545093E+02   -0.81495E-04   -0.11419E-04  4768   0.425E-02
   7 F= -.53632855E+02 E0= -.53632855E+02  d E =-.447521E+00  mag=    -0.0000
 curvature:  -2.95 expect dE=-0.169E+00 dE for cont linesearch -0.727E-01
 ZBRENT: increasing intervall
 opt :   1.7136  next Energy=   -53.732847 (dE=-0.548E+00)
 bond charge predicted
       N       E                     dE             d eps       ncg     rms          rms(c)
DAV:   1    -0.539373662810E+02   -0.30459E+00   -0.19690E+01  8672   0.140E+01    0.338E+00
RMM:   2    -0.537782712463E+02    0.15910E+00   -0.32893E-01  7936   0.178E+00    0.190E+00
RMM:   3    -0.537011698501E+02    0.77101E-01   -0.96167E-02  7936   0.791E-01    0.102E-01
RMM:   4    -0.537015393649E+02   -0.36951E-03   -0.52333E-04  6280   0.904E-02
   8 F= -.53701539E+02 E0= -.53701539E+02  d E =-.516205E+00  mag=     0.0000
 curvature:  -4.06 expect dE=-0.247E+01 dE for cont linesearch -0.174E-01
 ZBRENT: bracketing found
 ZBRENT: interpolating
 opt :   1.4505  next Energy=   -53.720230 (dE=-0.535E+00)
 bond charge predicted
       N       E                     dE             d eps       ncg     rms          rms(c)
DAV:   1    -0.537501393443E+02   -0.48969E-01   -0.18172E+00  9392   0.445E+00    0.105E+00
RMM:   2    -0.537340733226E+02    0.16066E-01   -0.21064E-02  7936   0.455E-01    0.581E-01
RMM:   3    -0.537274248529E+02    0.66485E-02   -0.79345E-03  7936   0.226E-01    0.497E-02
RMM:   4    -0.537274448603E+02   -0.20007E-04   -0.56766E-05  4334   0.295E-02
   9 F= -.53727445E+02 E0= -.53727445E+02  d E =-.542111E+00  mag=    -0.0000
 curvature:  -4.37 expect dE=-0.110E+01 dE for cont linesearch -0.202E-05
 trial: gam= 0.85987 g(F)=  0.222E+00 g(S)=  0.302E-01 ort =-0.148E-02 (trialstep = 0.320E+00)
 search vector abs. value=  0.374E+01
 bond charge predicted
       N       E                     dE             d eps       ncg     rms          rms(c)
DAV:   1    -0.537918094005E+02   -0.64385E-01   -0.85997E-01 10048   0.325E+00    0.798E-01
RMM:   2    -0.537819825382E+02    0.98269E-02   -0.10050E-02  7936   0.308E-01    0.446E-01
RMM:   3    -0.537777093051E+02    0.42732E-02   -0.52144E-03  7934   0.187E-01    0.273E-02
RMM:   4    -0.537777199886E+02   -0.10684E-04   -0.25907E-05  4122   0.212E-02
  10 F= -.53777720E+02 E0= -.53777720E+02  d E =-.502751E-01  mag=    -0.0000
 trial-energy change:   -0.050275  1 .order   -0.050959   -0.080423   -0.021495
 step:   0.4366(harm=  0.4366)  dis= 0.00748  next Energy=   -53.782324 (dE=-0.549E-01)
 bond charge predicted
       N       E                     dE             d eps       ncg     rms          rms(c)
DAV:   1    -0.537837841524E+02   -0.60748E-02   -0.11413E-01  9920   0.118E+00    0.297E-01
RMM:   2    -0.537823898346E+02    0.13943E-02   -0.13363E-03  6805   0.112E-01    0.166E-01
RMM:   3    -0.537817967624E+02    0.59307E-03   -0.70103E-04  4136   0.720E-02
  11 F= -.53781797E+02 E0= -.53781797E+02  d E =-.543519E-01  mag=     0.0000
 curvature:  -3.24 expect dE=-0.181E-01 dE for cont linesearch -0.180E-04
 trial: gam=-0.00259 g(F)=  0.549E-02 g(S)=  0.923E-04 ort = 0.456E-02 (trialstep = 0.343E+00)
 search vector abs. value=  0.558E-02
 bond charge predicted
       N       E                     dE             d eps       ncg     rms          rms(c)
DAV:   1    -0.537826221326E+02   -0.23230E-03   -0.16150E-02 10576   0.478E-01    0.576E-02
RMM:   2    -0.537826696478E+02   -0.47515E-04   -0.92254E-04  4307   0.117E-01
  12 F= -.53782670E+02 E0= -.53782670E+02  d E =-.872885E-03  mag=    -0.0000
 trial-energy change:   -0.000873  1 .order   -0.000858   -0.001911    0.000196
 step:   0.3113(harm=  0.3113)  dis= 0.00172  next Energy=   -53.782664 (dE=-0.867E-03)
 bond charge predicted
       N       E                     dE             d eps       ncg     rms          rms(c)
DAV:   1    -0.537826469042E+02   -0.24772E-04   -0.21616E-04  4032   0.688E-02    0.465E-03
RMM:   2    -0.537826552209E+02   -0.83167E-05   -0.81478E-05  3719   0.321E-02
  13 F= -.53782655E+02 E0= -.53782655E+02  d E =-.858459E-03  mag=    -0.0000
 curvature:  -0.16 expect dE=-0.192E-04 dE for cont linesearch -0.127E-06
 trial: gam= 0.03255 g(F)=  0.110E-03 g(S)=  0.128E-04 ort =-0.674E-04 (trialstep = 0.337E+00)
 search vector abs. value=  0.125E-03
 reached required accuracy - stopping structural energy minimisation
