unknown system                          
           1
     3.674025   -0.712226   -0.064912
     0.708285    3.671888   -0.528952
     1.808985   -1.009664    8.199373
   Sr   Nb   H 
   2   1   7
Direct configuration=     1
   0.89865500  0.05866100  0.26709800
   0.63607900  0.30904100  0.80426400
   0.26707800  0.68374100  0.53513200
   0.38670600  0.57644400  0.29277900
   0.51986800  0.95244200  0.03080800
   0.04589800  0.59401600  0.99395500
   0.14684500  0.80298900  0.77964500
   0.03166300  0.41531200  0.02605900
   0.24941000  0.19830400  0.56611000
   0.74676600  0.67274400  0.57666500
unknown system                          
           1
     3.713270   -0.720473   -0.065193
     0.714843    3.709456   -0.533971
     1.828726   -1.022088    8.266645
   Sr   Nb   H 
   2   1   7
Direct configuration=     2
   0.89855297  0.05857964  0.26741919
   0.63641856  0.30878489  0.80353741
   0.26704259  0.68399863  0.53535956
   0.38670511  0.57629985  0.29271150
   0.51989275  0.95272834  0.03088381
   0.04577193  0.59255265  0.99409572
   0.14688551  0.80296529  0.77961742
   0.03169763  0.41600686  0.02570004
   0.24938915  0.19838211  0.56621119
   0.74661181  0.67339574  0.57697917
unknown system                          
           1
     3.755980   -0.729449   -0.065500
     0.721980    3.750342   -0.539434
     1.850211   -1.035609    8.339859
   Sr   Nb   H 
   2   1   7
Direct configuration=     3
   0.89844256  0.05849226  0.26776592
   0.63678532  0.30850837  0.80275304
   0.26700414  0.68427639  0.53560520
   0.38670422  0.57614450  0.29263864
   0.51991934  0.95303688  0.03096563
   0.04563564  0.59097626  0.99424769
   0.14692917  0.80293973  0.77958764
   0.03173565  0.41675513  0.02531251
   0.24936655  0.19846634  0.56632042
   0.74644541  0.67409813  0.57731830
unknown system                          
           1
     3.763739   -0.730795   -0.065233
     0.723745    3.758985   -0.540739
     1.853417   -1.042550    8.326587
   Sr   Nb   H 
   2   1   7
Direct configuration=     4
   0.89800027  0.05876926  0.26877389
   0.63750838  0.30776151  0.80119856
   0.26670756  0.68414270  0.53610694
   0.38607382  0.57656292  0.29386551
   0.52003388  0.95367299  0.03103129
   0.04565804  0.59021609  0.99405905
   0.14747554  0.80244834  0.77852083
   0.03169483  0.41630840  0.02504891
   0.24940846  0.19860529  0.56636275
   0.74640722  0.67520651  0.57754727
unknown system                          
           1
     3.776608   -0.733027   -0.064791
     0.726673    3.773322   -0.542903
     1.858734   -1.054062    8.304572
   Sr   Nb   H 
   2   1   7
Direct configuration=     5
   0.89726462  0.05923094  0.27044885
   0.63871073  0.30652044  0.79861549
   0.26621487  0.68392307  0.53694067
   0.38502599  0.57725937  0.29590421
   0.52022323  0.95472596  0.03114038
   0.04569580  0.58895739  0.99374559
   0.14838370  0.80163163  0.77674811
   0.03162818  0.41556821  0.02461089
   0.24947771  0.19883537  0.56643307
   0.74634317  0.67704162  0.57792775
