 running on   16 total cores
 distrk:  each k-point on   16 cores,    1 groups
 distr:  one band on    1 cores,   16 groups
 using from now: INCAR     
 vasp.5.4.4.18Apr17-6-g9f103f2a35 (build Nov 01 2019 12:17:22) complex          
  
 POSCAR found type information on POSCAR  Sr Nb H 
 POSCAR found :  3 types and       8 ions

 ----------------------------------------------------------------------------- 
|                                                                             |
|           W    W    AA    RRRRR   N    N  II  N    N   GGGG   !!!           |
|           W    W   A  A   R    R  NN   N  II  NN   N  G    G  !!!           |
|           W    W  A    A  R    R  N N  N  II  N N  N  G       !!!           |
|           W WW W  AAAAAA  RRRRR   N  N N  II  N  N N  G  GGG   !            |
|           WW  WW  A    A  R   R   N   NN  II  N   NN  G    G                |
|           W    W  A    A  R    R  N    N  II  N    N   GGGG   !!!           |
|                                                                             |
|      For optimal performance we recommend to set                            |
|        NCORE= 4 - approx SQRT( number of cores)                             |
|      NCORE specifies how many cores store one orbital (NPAR=cpu/NCORE).     |
|      This setting can  greatly improve the performance of VASP for DFT.     |
|      The default,   NCORE=1            might be grossly inefficient         |
|      on modern multi-core architectures or massively parallel machines.     |
|      Do your own testing !!!!                                               |
|      Unfortunately you need to use the default for GW and RPA calculations. |
|      (for HF NCORE is supported but not extensively tested yet)             |
|                                                                             |
 ----------------------------------------------------------------------------- 


 ----------------------------------------------------------------------------- 
|                                                                             |
|  ADVICE TO THIS USER RUNNING 'VASP/VAMP'   (HEAR YOUR MASTER'S VOICE ...):  |
|                                                                             |
|      You have a (more or less) 'small supercell' and for smaller cells      |
|      it is recommended  to use the reciprocal-space projection scheme!      |
|      The real space optimization is not  efficient for small cells and it   |
|      is also less accurate ...                                              |
|      Therefore set LREAL=.FALSE. in the  INCAR file                         |
|                                                                             |
 ----------------------------------------------------------------------------- 

 LDA part: xc-table for Pade appr. of Perdew
 POSCAR, INCAR and KPOINTS ok, starting setup
 FFT: planning ...
 WAVECAR not read
 entering main loop
       N       E                     dE             d eps       ncg     rms          rms(c)
DAV:   1     0.135870824440E+03    0.13587E+03   -0.12628E+04 12688   0.793E+02
DAV:   2    -0.271889514679E+02   -0.16306E+03   -0.15342E+03 14768   0.233E+02
DAV:   3    -0.342866006797E+02   -0.70976E+01   -0.70407E+01 22368   0.447E+01
DAV:   4    -0.343528890187E+02   -0.66288E-01   -0.66303E-01 14144   0.295E+00
DAV:   5    -0.343545608626E+02   -0.16718E-02   -0.16721E-02 19312   0.372E-01    0.338E+01
RMM:   6    -0.339642318731E+02    0.39033E+00   -0.29693E+00 13403   0.750E+00    0.143E+01
RMM:   7    -0.336434700751E+02    0.32076E+00   -0.40525E-01 13523   0.418E+00    0.720E+00
RMM:   8    -0.336218301067E+02    0.21640E-01   -0.97301E-02 13776   0.194E+00    0.396E+00
RMM:   9    -0.336238049312E+02   -0.19748E-02   -0.23674E-02 13393   0.103E+00    0.175E+00
RMM:  10    -0.336253223879E+02   -0.15175E-02   -0.79310E-03 13236   0.628E-01    0.928E-01
RMM:  11    -0.336255009054E+02   -0.17852E-03   -0.12938E-03 11653   0.253E-01
   1 F= -.33625501E+02 E0= -.33625501E+02  d E =-.336255E+02  mag=     0.0093
 curvature:   0.00 expect dE= 0.000E+00 dE for cont linesearch  0.000E+00
 trial: gam= 0.00000 g(F)=  0.129E-02 g(S)=  0.388E-01 ort = 0.000E+00 (trialstep = 0.100E+01)
 search vector abs. value=  0.401E-01
 bond charge predicted
       N       E                     dE             d eps       ncg     rms          rms(c)
DAV:   1    -0.337762662136E+02   -0.15094E+00   -0.19689E+00 19344   0.897E+00    0.388E+00
RMM:   2    -0.336684125769E+02    0.10785E+00   -0.16596E-01 12829   0.233E+00    0.872E-01
RMM:   3    -0.336525887893E+02    0.15824E-01   -0.20410E-02 13821   0.116E+00    0.786E-01
RMM:   4    -0.336501278524E+02    0.24609E-02   -0.88339E-03 13455   0.474E-01    0.822E-01
RMM:   5    -0.336505500744E+02   -0.42222E-03   -0.52947E-03 12798   0.401E-01    0.124E-01
RMM:   6    -0.336507391206E+02   -0.18905E-03   -0.34666E-03 12383   0.247E-01
   2 F= -.33650739E+02 E0= -.33650739E+02  d E =-.252382E-01  mag=     0.0011
 trial-energy change:   -0.025238  1 .order   -0.027178   -0.040058   -0.014299
 step:   1.5551(harm=  1.5551)  dis= 0.00850  next Energy=   -33.656648 (dE=-0.311E-01)
 bond charge predicted
       N       E                     dE             d eps       ncg     rms          rms(c)
DAV:   1    -0.336902159670E+02   -0.39666E-01   -0.58029E-01 12864   0.491E+00    0.210E+00
RMM:   2    -0.336582069182E+02    0.32009E-01   -0.47401E-02 12778   0.127E+00    0.455E-01
RMM:   3    -0.336541021801E+02    0.41047E-02   -0.54361E-03 13045   0.613E-01    0.397E-01
RMM:   4    -0.336534829848E+02    0.61920E-03   -0.26416E-03 12012   0.303E-01    0.433E-01
RMM:   5    -0.336537417423E+02   -0.25876E-03   -0.13676E-03 11065   0.226E-01
   3 F= -.33653742E+02 E0= -.33653742E+02  d E =-.282408E-01  mag=     0.0002
 curvature:  -0.78 expect dE=-0.714E-02 dE for cont linesearch -0.525E-03
 trial: gam= 0.09955 g(F)=  0.637E-02 g(S)=  0.281E-02 ort = 0.520E-02 (trialstep = 0.111E+01)
 search vector abs. value=  0.106E-01
 bond charge predicted
       N       E                     dE             d eps       ncg     rms          rms(c)
DAV:   1    -0.336693045821E+02   -0.15822E-01   -0.52527E-01 17200   0.463E+00    0.781E-01
RMM:   2    -0.336621651225E+02    0.71395E-02   -0.23386E-02 13471   0.750E-01    0.305E-01
RMM:   3    -0.336608833714E+02    0.12818E-02   -0.12632E-03 11296   0.328E-01    0.252E-01
RMM:   4    -0.336606500869E+02    0.23328E-03   -0.10023E-03 11229   0.170E-01
   4 F= -.33660650E+02 E0= -.33660650E+02  d E =-.690834E-02  mag=     0.0000
 trial-energy change:   -0.006908  1 .order   -0.007708   -0.010782   -0.004634
 step:   1.9483(harm=  1.9483)  dis= 0.01445  next Energy=   -33.663196 (dE=-0.945E-02)
 bond charge predicted
       N       E                     dE             d eps       ncg     rms          rms(c)
DAV:   1    -0.336664032178E+02   -0.55198E-02   -0.29556E-01 19968   0.349E+00    0.551E-01
RMM:   2    -0.336621943735E+02    0.42088E-02   -0.13137E-02 13475   0.563E-01    0.275E-01
RMM:   3    -0.336614674985E+02    0.72688E-03   -0.68339E-04 10575   0.248E-01    0.244E-01
RMM:   4    -0.336613197832E+02    0.14772E-03   -0.62255E-04  9927   0.132E-01
   5 F= -.33661320E+02 E0= -.33661320E+02  d E =-.757804E-02  mag=     0.0000
 curvature:  -1.07 expect dE=-0.637E-02 dE for cont linesearch -0.267E-04
 trial: gam= 0.71008 g(F)=  0.585E-02 g(S)=  0.129E-03 ort =-0.516E-03 (trialstep = 0.128E+01)
 search vector abs. value=  0.106E-01
 bond charge predicted
       N       E                     dE             d eps       ncg     rms          rms(c)
DAV:   1    -0.336659766032E+02   -0.45091E-02   -0.11508E+00 15840   0.776E+00    0.716E-01
RMM:   2    -0.336619803078E+02    0.39963E-02   -0.46837E-02 12957   0.103E+00    0.355E-01
RMM:   3    -0.336605446880E+02    0.14356E-02   -0.33385E-03 12502   0.612E-01    0.330E-01
RMM:   4    -0.336604306922E+02    0.11400E-03   -0.69495E-04 10487   0.150E-01
   6 F= -.33660431E+02 E0= -.33660431E+02  d E =0.889091E-03  mag=     0.0000
 trial-energy change:    0.000889  1 .order   -0.000529   -0.007176    0.006117
 step:   0.6901(harm=  0.6901)  dis= 0.00876  next Energy=   -33.663257 (dE=-0.194E-02)
 bond charge predicted
       N       E                     dE             d eps       ncg     rms          rms(c)
DAV:   1    -0.336637540896E+02   -0.32094E-02   -0.25176E-01 15840   0.360E+00    0.398E-01
RMM:   2    -0.336629725259E+02    0.78156E-03   -0.10063E-02 12922   0.483E-01    0.222E-01
RMM:   3    -0.336626425987E+02    0.32993E-03   -0.56665E-04  9930   0.280E-01
   7 F= -.33662643E+02 E0= -.33662643E+02  d E =-.132282E-02  mag=     0.0000
 curvature:  -0.65 expect dE=-0.132E-02 dE for cont linesearch -0.266E-03
 trial: gam= 0.00000 g(F)=  0.784E-03 g(S)=  0.124E-02 ort =-0.208E-02 (trialstep = 0.116E+01)
 search vector abs. value=  0.202E-02
 reached required accuracy - stopping structural energy minimisation
