unknown system                          
           1
     3.382303   -0.124234    0.864467
     0.249261    3.682872   -0.443070
     2.130018    0.657615    6.109427
   Sr   Nb   H 
   1   1   6
Direct configuration=     1
   0.46651400  0.30746700  0.41438600
   0.48991200  0.80621000  0.92913200
   0.76790000  0.81261500  0.10347100
   0.12227700  0.80076200  0.74404800
   0.35536400  0.30797600  0.05077800
   0.71612500  0.54957400  0.65702400
   0.72874800  0.04461700  0.64325500
   0.08992100  0.79978400  0.27590900
unknown system                          
           1
     3.411221   -0.125833    0.872512
     0.251133    3.716012   -0.448230
     2.148598    0.661384    6.164166
   Sr   Nb   H 
   1   1   6
Direct configuration=     2
   0.46645297  0.30751699  0.41460126
   0.49168297  0.80614454  0.92889433
   0.76704658  0.81250275  0.10331789
   0.12162049  0.80095422  0.74411268
   0.35541555  0.30804643  0.05067980
   0.71607805  0.54964781  0.65727345
   0.72861946  0.04417442  0.64350050
   0.08984492  0.80001785  0.27562309
unknown system                          
           1
     3.427274   -0.126721    0.876977
     0.252172    3.734409   -0.451094
     2.158912    0.663476    6.194551
   Sr   Nb   H 
   1   1   6
Direct configuration=     3
   0.46641939  0.30754456  0.41471970
   0.49265776  0.80610861  0.92876346
   0.76657682  0.81244088  0.10323369
   0.12125912  0.80105992  0.74414832
   0.35544392  0.30808514  0.05062578
   0.71605222  0.54968848  0.65741071
   0.72854873  0.04393100  0.64363553
   0.08980303  0.80014640  0.27546581
unknown system                          
           1
     3.437703   -0.127698    0.880310
     0.252706    3.748744   -0.453983
     2.172720    0.659880    6.188540
   Sr   Nb   H 
   1   1   6
Direct configuration=     4
   0.46623426  0.30762301  0.41503559
   0.49519670  0.80576795  0.92815665
   0.76587070  0.81227588  0.10243319
   0.11910558  0.80128950  0.74488173
   0.35629397  0.30826801  0.04995582
   0.71523862  0.55070173  0.65872822
   0.72758868  0.04269889  0.64501222
   0.09123250  0.80038002  0.27379958
unknown system                          
           1
     3.445562   -0.128434    0.882821
     0.253108    3.759547   -0.456161
     2.183127    0.657170    6.184009
   Sr   Nb   H 
   1   1   6
Direct configuration=     5
   0.46609392  0.30768200  0.41527410
   0.49710680  0.80551233  0.92769831
   0.76534323  0.81215163  0.10182888
   0.11748457  0.80146182  0.74543560
   0.35693529  0.30840517  0.04945000
   0.71462217  0.55146278  0.65972307
   0.72686194  0.04177427  0.64605146
   0.09231307  0.80055501  0.27254158
unknown system                          
           1
     3.456496   -0.129663    0.887194
     0.253220    3.772976   -0.459002
     2.199013    0.653130    6.178174
   Sr   Nb   H 
   1   1   6
Direct configuration=     6
   0.46599719  0.30779292  0.41587408
   0.49521034  0.80566046  0.93060362
   0.76474154  0.81181580  0.10093989
   0.11629528  0.80178562  0.74563236
   0.35890429  0.30848183  0.04800947
   0.71497276  0.55155174  0.65998115
   0.72671994  0.04101065  0.64664808
   0.09391967  0.80090599  0.27031436
unknown system                          
           1
     3.451465   -0.129098    0.885182
     0.253168    3.766796   -0.457695
     2.191702    0.654989    6.180859
   Sr   Nb   H 
   1   1   6
Direct configuration=     7
   0.46604316  0.30774192  0.41559746
   0.49608817  0.80559202  0.92926397
   0.76501524  0.81197009  0.10134969
   0.11684143  0.80163724  0.74554148
   0.35799707  0.30844681  0.04867381
   0.71481259  0.55151084  0.65986220
   0.72678672  0.04136066  0.64637307
   0.09317661  0.80074543  0.27134132
