  10  10   1   0
  0.1546527E+02  0.3219830E-09  0.3288298E-09  0.1508649E-08  0.5000000E-15
  1.000000000000000E-004
  CAR 
 unknown system                          
     10.08369205    -36.85649267  301      1.32751158      1.00000000
    -36.856  0.0000E+00  0.0000E+00  0.0000E+00  0.0000E+00
    -36.700  0.0000E+00  0.0000E+00  0.0000E+00  0.0000E+00
    -36.544  0.0000E+00  0.0000E+00  0.0000E+00  0.0000E+00
    -36.387  0.0000E+00  0.0000E+00  0.0000E+00  0.0000E+00
    -36.231  0.0000E+00  0.0000E+00  0.0000E+00  0.0000E+00
    -36.074  0.0000E+00  0.0000E+00  0.0000E+00  0.0000E+00
    -35.918  0.0000E+00  0.0000E+00  0.0000E+00  0.0000E+00
    -35.761  0.0000E+00  0.0000E+00  0.0000E+00  0.0000E+00
    -35.605  0.0000E+00  0.0000E+00  0.0000E+00  0.0000E+00
    -35.448  0.0000E+00  0.0000E+00  0.0000E+00  0.0000E+00
    -35.292  0.0000E+00  0.0000E+00  0.0000E+00  0.0000E+00
    -35.135  0.0000E+00  0.0000E+00  0.0000E+00  0.0000E+00
    -34.979  0.0000E+00  0.0000E+00  0.0000E+00  0.0000E+00
    -34.822  0.0000E+00  0.0000E+00  0.0000E+00  0.0000E+00
    -34.666  0.4420E-01  0.4339E-01  0.1891E-02  0.1808E-02
    -34.509  0.0000E+00  0.0000E+00  0.1010E-01  0.1010E-01
    -34.353  0.7239E-01  0.8763E-01  0.1690E-01  0.1407E-01
    -34.197  0.0000E+00  0.0000E+00  0.2020E-01  0.2020E-01
    -34.040  0.0000E+00  0.0000E+00  0.2020E-01  0.2020E-01
    -33.884  0.0000E+00  0.0000E+00  0.2020E-01  0.2020E-01
    -33.727  0.0000E+00  0.0000E+00  0.2020E-01  0.2020E-01
    -33.571  0.0000E+00  0.0000E+00  0.2020E-01  0.2020E-01
    -33.414  0.0000E+00  0.0000E+00  0.2020E-01  0.2020E-01
    -33.258  0.0000E+00  0.0000E+00  0.2020E-01  0.2020E-01
    -33.101  0.0000E+00  0.0000E+00  0.2020E-01  0.2020E-01
    -32.945  0.0000E+00  0.0000E+00  0.2020E-01  0.2020E-01
    -32.788  0.0000E+00  0.0000E+00  0.2020E-01  0.2020E-01
    -32.632  0.0000E+00  0.0000E+00  0.2020E-01  0.2020E-01
    -32.475  0.0000E+00  0.0000E+00  0.2020E-01  0.2020E-01
    -32.319  0.0000E+00  0.0000E+00  0.2020E-01  0.2020E-01
    -32.162  0.0000E+00  0.0000E+00  0.2020E-01  0.2020E-01
    -32.006  0.0000E+00  0.0000E+00  0.2020E-01  0.2020E-01
    -31.850  0.0000E+00  0.0000E+00  0.2020E-01  0.2020E-01
    -31.693  0.0000E+00  0.0000E+00  0.2020E-01  0.2020E-01
    -31.537  0.0000E+00  0.0000E+00  0.2020E-01  0.2020E-01
    -31.380  0.0000E+00  0.0000E+00  0.2020E-01  0.2020E-01
    -31.224  0.0000E+00  0.0000E+00  0.2020E-01  0.2020E-01
    -31.067  0.0000E+00  0.0000E+00  0.2020E-01  0.2020E-01
    -30.911  0.0000E+00  0.0000E+00  0.2020E-01  0.2020E-01
    -30.754  0.0000E+00  0.0000E+00  0.2020E-01  0.2020E-01
    -30.598  0.0000E+00  0.0000E+00  0.2020E-01  0.2020E-01
    -30.441  0.0000E+00  0.0000E+00  0.2020E-01  0.2020E-01
    -30.285  0.0000E+00  0.0000E+00  0.2020E-01  0.2020E-01
    -30.128  0.3802E-01  0.0000E+00  0.2226E-01  0.2020E-01
    -29.972  0.7573E-01  0.3844E-01  0.2778E-01  0.2284E-01
    -29.815  0.2982E-01  0.2262E+00  0.4637E-01  0.3852E-01
    -29.659  0.0000E+00  0.4397E-01  0.5051E-01  0.5019E-01
    -29.503  0.0000E+00  0.0000E+00  0.5051E-01  0.5051E-01
    -29.346  0.0000E+00  0.0000E+00  0.5051E-01  0.5051E-01
    -29.190  0.0000E+00  0.0000E+00  0.5051E-01  0.5051E-01
    -29.033  0.0000E+00  0.0000E+00  0.5051E-01  0.5051E-01
    -28.877  0.0000E+00  0.0000E+00  0.5051E-01  0.5051E-01
    -28.720  0.0000E+00  0.0000E+00  0.5051E-01  0.5051E-01
    -28.564  0.0000E+00  0.0000E+00  0.5051E-01  0.5051E-01
    -28.407  0.0000E+00  0.0000E+00  0.5051E-01  0.5051E-01
    -28.251  0.0000E+00  0.0000E+00  0.5051E-01  0.5051E-01
    -28.094  0.0000E+00  0.0000E+00  0.5051E-01  0.5051E-01
    -27.938  0.0000E+00  0.0000E+00  0.5051E-01  0.5051E-01
    -27.781  0.0000E+00  0.0000E+00  0.5051E-01  0.5051E-01
    -27.625  0.0000E+00  0.0000E+00  0.5051E-01  0.5051E-01
    -27.468  0.0000E+00  0.0000E+00  0.5051E-01  0.5051E-01
    -27.312  0.0000E+00  0.0000E+00  0.5051E-01  0.5051E-01
    -27.156  0.0000E+00  0.0000E+00  0.5051E-01  0.5051E-01
    -26.999  0.0000E+00  0.0000E+00  0.5051E-01  0.5051E-01
    -26.843  0.0000E+00  0.0000E+00  0.5051E-01  0.5051E-01
    -26.686  0.0000E+00  0.0000E+00  0.5051E-01  0.5051E-01
    -26.530  0.0000E+00  0.0000E+00  0.5051E-01  0.5051E-01
    -26.373  0.0000E+00  0.0000E+00  0.5051E-01  0.5051E-01
    -26.217  0.0000E+00  0.0000E+00  0.5051E-01  0.5051E-01
    -26.060  0.0000E+00  0.0000E+00  0.5051E-01  0.5051E-01
    -25.904  0.0000E+00  0.0000E+00  0.5051E-01  0.5051E-01
    -25.747  0.0000E+00  0.0000E+00  0.5051E-01  0.5051E-01
    -25.591  0.0000E+00  0.0000E+00  0.5051E-01  0.5051E-01
    -25.434  0.0000E+00  0.0000E+00  0.5051E-01  0.5051E-01
    -25.278  0.0000E+00  0.0000E+00  0.5051E-01  0.5051E-01
    -25.121  0.0000E+00  0.0000E+00  0.5051E-01  0.5051E-01
    -24.965  0.0000E+00  0.0000E+00  0.5051E-01  0.5051E-01
    -24.809  0.0000E+00  0.0000E+00  0.5051E-01  0.5051E-01
    -24.652  0.0000E+00  0.0000E+00  0.5051E-01  0.5051E-01
    -24.496  0.0000E+00  0.0000E+00  0.5051E-01  0.5051E-01
    -24.339  0.0000E+00  0.0000E+00  0.5051E-01  0.5051E-01
    -24.183  0.0000E+00  0.0000E+00  0.5051E-01  0.5051E-01
    -24.026  0.0000E+00  0.0000E+00  0.5051E-01  0.5051E-01
    -23.870  0.0000E+00  0.0000E+00  0.5051E-01  0.5051E-01
    -23.713  0.0000E+00  0.0000E+00  0.5051E-01  0.5051E-01
    -23.557  0.0000E+00  0.0000E+00  0.5051E-01  0.5051E-01
    -23.400  0.0000E+00  0.0000E+00  0.5051E-01  0.5051E-01
    -23.244  0.0000E+00  0.0000E+00  0.5051E-01  0.5051E-01
    -23.087  0.0000E+00  0.0000E+00  0.5051E-01  0.5051E-01
    -22.931  0.0000E+00  0.0000E+00  0.5051E-01  0.5051E-01
    -22.774  0.0000E+00  0.0000E+00  0.5051E-01  0.5051E-01
    -22.618  0.0000E+00  0.0000E+00  0.5051E-01  0.5051E-01
    -22.462  0.0000E+00  0.0000E+00  0.5051E-01  0.5051E-01
    -22.305  0.0000E+00  0.0000E+00  0.5051E-01  0.5051E-01
    -22.149  0.0000E+00  0.0000E+00  0.5051E-01  0.5051E-01
    -21.992  0.0000E+00  0.0000E+00  0.5051E-01  0.5051E-01
    -21.836  0.0000E+00  0.0000E+00  0.5051E-01  0.5051E-01
    -21.679  0.0000E+00  0.0000E+00  0.5051E-01  0.5051E-01
    -21.523  0.0000E+00  0.0000E+00  0.5051E-01  0.5051E-01
    -21.366  0.0000E+00  0.0000E+00  0.5051E-01  0.5051E-01
    -21.210  0.0000E+00  0.0000E+00  0.5051E-01  0.5051E-01
    -21.053  0.0000E+00  0.0000E+00  0.5051E-01  0.5051E-01
    -20.897  0.0000E+00  0.0000E+00  0.5051E-01  0.5051E-01
    -20.740  0.0000E+00  0.0000E+00  0.5051E-01  0.5051E-01
    -20.584  0.0000E+00  0.0000E+00  0.5051E-01  0.5051E-01
    -20.427  0.0000E+00  0.0000E+00  0.5051E-01  0.5051E-01
    -20.271  0.0000E+00  0.0000E+00  0.5051E-01  0.5051E-01
    -20.114  0.0000E+00  0.0000E+00  0.5051E-01  0.5051E-01
    -19.958  0.0000E+00  0.0000E+00  0.5051E-01  0.5051E-01
    -19.802  0.0000E+00  0.0000E+00  0.5051E-01  0.5051E-01
    -19.645  0.0000E+00  0.0000E+00  0.5051E-01  0.5051E-01
    -19.489  0.0000E+00  0.0000E+00  0.5051E-01  0.5051E-01
    -19.332  0.0000E+00  0.0000E+00  0.5051E-01  0.5051E-01
    -19.176  0.0000E+00  0.0000E+00  0.5051E-01  0.5051E-01
    -19.019  0.0000E+00  0.0000E+00  0.5051E-01  0.5051E-01
    -18.863  0.0000E+00  0.0000E+00  0.5051E-01  0.5051E-01
    -18.706  0.0000E+00  0.0000E+00  0.5051E-01  0.5051E-01
    -18.550  0.0000E+00  0.0000E+00  0.5051E-01  0.5051E-01
    -18.393  0.0000E+00  0.0000E+00  0.5051E-01  0.5051E-01
    -18.237  0.0000E+00  0.0000E+00  0.5051E-01  0.5051E-01
    -18.080  0.0000E+00  0.0000E+00  0.5051E-01  0.5051E-01
    -17.924  0.0000E+00  0.0000E+00  0.5051E-01  0.5051E-01
    -17.767  0.0000E+00  0.0000E+00  0.5051E-01  0.5051E-01
    -17.611  0.0000E+00  0.0000E+00  0.5051E-01  0.5051E-01
    -17.455  0.0000E+00  0.0000E+00  0.5051E-01  0.5051E-01
    -17.298  0.8605E-02  0.8534E-02  0.5139E-01  0.5137E-01
    -17.142  0.1412E-01  0.1413E-01  0.5507E-01  0.5505E-01
    -16.985  0.3786E-01  0.3482E-01  0.5960E-01  0.5891E-01
    -16.829  0.2808E-01  0.2942E-01  0.6581E-01  0.6516E-01
    -16.672  0.6406E-01  0.5965E-01  0.7170E-01  0.7060E-01
    -16.516  0.5762E-01  0.7122E-01  0.8356E-01  0.8256E-01
    -16.359  0.6424E-01  0.4165E-01  0.9724E-01  0.9600E-01
    -16.203  0.2944E-01  0.2335E-01  0.1058E+00  0.1046E+00
    -16.046  0.3615E-01  0.2604E-01  0.1100E+00  0.1088E+00
    -15.890  0.0000E+00  0.0000E+00  0.1111E+00  0.1111E+00
    -15.733  0.0000E+00  0.0000E+00  0.1111E+00  0.1111E+00
    -15.577  0.0000E+00  0.0000E+00  0.1111E+00  0.1111E+00
    -15.420  0.0000E+00  0.0000E+00  0.1111E+00  0.1111E+00
    -15.264  0.0000E+00  0.0000E+00  0.1111E+00  0.1111E+00
    -15.108  0.0000E+00  0.0000E+00  0.1111E+00  0.1111E+00
    -14.951  0.0000E+00  0.0000E+00  0.1111E+00  0.1111E+00
    -14.795  0.0000E+00  0.0000E+00  0.1111E+00  0.1111E+00
    -14.638  0.0000E+00  0.0000E+00  0.1111E+00  0.1111E+00
    -14.482  0.0000E+00  0.0000E+00  0.1111E+00  0.1111E+00
    -14.325  0.0000E+00  0.0000E+00  0.1111E+00  0.1111E+00
    -14.169  0.0000E+00  0.0000E+00  0.1111E+00  0.1111E+00
    -14.012  0.0000E+00  0.0000E+00  0.1111E+00  0.1111E+00
    -13.856  0.0000E+00  0.0000E+00  0.1111E+00  0.1111E+00
    -13.699  0.0000E+00  0.0000E+00  0.1111E+00  0.1111E+00
    -13.543  0.0000E+00  0.0000E+00  0.1111E+00  0.1111E+00
    -13.386  0.0000E+00  0.0000E+00  0.1111E+00  0.1111E+00
    -13.230  0.0000E+00  0.0000E+00  0.1111E+00  0.1111E+00
    -13.073  0.0000E+00  0.0000E+00  0.1111E+00  0.1111E+00
    -12.917  0.0000E+00  0.0000E+00  0.1111E+00  0.1111E+00
    -12.761  0.0000E+00  0.0000E+00  0.1111E+00  0.1111E+00
    -12.604  0.0000E+00  0.0000E+00  0.1111E+00  0.1111E+00
    -12.448  0.0000E+00  0.0000E+00  0.1111E+00  0.1111E+00
    -12.291  0.0000E+00  0.0000E+00  0.1111E+00  0.1111E+00
    -12.135  0.0000E+00  0.0000E+00  0.1111E+00  0.1111E+00
    -11.978  0.0000E+00  0.0000E+00  0.1111E+00  0.1111E+00
    -11.822  0.0000E+00  0.0000E+00  0.1111E+00  0.1111E+00
    -11.665  0.0000E+00  0.0000E+00  0.1111E+00  0.1111E+00
    -11.509  0.0000E+00  0.0000E+00  0.1111E+00  0.1111E+00
    -11.352  0.0000E+00  0.0000E+00  0.1111E+00  0.1111E+00
    -11.196  0.0000E+00  0.0000E+00  0.1111E+00  0.1111E+00
    -11.039  0.0000E+00  0.0000E+00  0.1111E+00  0.1111E+00
    -10.883  0.0000E+00  0.0000E+00  0.1111E+00  0.1111E+00
    -10.726  0.0000E+00  0.0000E+00  0.1111E+00  0.1111E+00
    -10.570  0.0000E+00  0.0000E+00  0.1111E+00  0.1111E+00
    -10.414  0.0000E+00  0.0000E+00  0.1111E+00  0.1111E+00
    -10.257  0.0000E+00  0.0000E+00  0.1111E+00  0.1111E+00
    -10.101  0.0000E+00  0.0000E+00  0.1111E+00  0.1111E+00
     -9.944  0.0000E+00  0.0000E+00  0.1111E+00  0.1111E+00
     -9.788  0.0000E+00  0.0000E+00  0.1111E+00  0.1111E+00
     -9.631  0.0000E+00  0.0000E+00  0.1111E+00  0.1111E+00
     -9.475  0.0000E+00  0.0000E+00  0.1111E+00  0.1111E+00
     -9.318  0.0000E+00  0.0000E+00  0.1111E+00  0.1111E+00
     -9.162  0.0000E+00  0.0000E+00  0.1111E+00  0.1111E+00
     -9.005  0.0000E+00  0.0000E+00  0.1111E+00  0.1111E+00
     -8.849  0.0000E+00  0.0000E+00  0.1111E+00  0.1111E+00
     -8.692  0.0000E+00  0.0000E+00  0.1111E+00  0.1111E+00
     -8.536  0.0000E+00  0.0000E+00  0.1111E+00  0.1111E+00
     -8.379  0.0000E+00  0.0000E+00  0.1111E+00  0.1111E+00
     -8.223  0.0000E+00  0.0000E+00  0.1111E+00  0.1111E+00
     -8.067  0.0000E+00  0.0000E+00  0.1111E+00  0.1111E+00
     -7.910  0.0000E+00  0.0000E+00  0.1111E+00  0.1111E+00
     -7.754  0.6830E-03  0.0000E+00  0.1111E+00  0.1111E+00
     -7.597  0.7413E-02  0.4460E-02  0.1120E+00  0.1112E+00
     -7.441  0.8520E-02  0.7034E-02  0.1131E+00  0.1123E+00
     -7.284  0.1430E-01  0.9908E-02  0.1148E+00  0.1137E+00
     -7.128  0.1008E-01  0.1348E-01  0.1166E+00  0.1156E+00
     -6.971  0.2266E-01  0.1819E-01  0.1189E+00  0.1178E+00
     -6.815  0.1497E-01  0.1670E-01  0.1215E+00  0.1208E+00
     -6.658  0.9416E-02  0.1611E-01  0.1240E+00  0.1234E+00
     -6.502  0.1268E-01  0.1268E-01  0.1257E+00  0.1257E+00
     -6.345  0.1163E-01  0.1165E-01  0.1283E+00  0.1283E+00
     -6.189  0.9277E-02  0.9275E-02  0.1299E+00  0.1299E+00
     -6.032  0.5189E-02  0.5201E-02  0.1311E+00  0.1311E+00
     -5.876  0.0000E+00  0.0000E+00  0.1313E+00  0.1313E+00
     -5.720  0.0000E+00  0.0000E+00  0.1313E+00  0.1313E+00
     -5.563  0.0000E+00  0.0000E+00  0.1313E+00  0.1313E+00
     -5.407  0.0000E+00  0.0000E+00  0.1313E+00  0.1313E+00
     -5.250  0.1692E-02  0.1055E-02  0.1314E+00  0.1314E+00
     -5.094  0.3471E-02  0.3073E-02  0.1318E+00  0.1317E+00
     -4.937  0.3320E-02  0.3387E-02  0.1324E+00  0.1322E+00
     -4.781  0.3730E-02  0.3521E-02  0.1329E+00  0.1327E+00
     -4.624  0.4817E-02  0.4393E-02  0.1336E+00  0.1333E+00
     -4.468  0.6459E-02  0.5671E-02  0.1344E+00  0.1341E+00
     -4.311  0.1061E-01  0.1073E-01  0.1359E+00  0.1354E+00
     -4.155  0.1109E-01  0.1134E-01  0.1376E+00  0.1372E+00
     -3.998  0.2004E-01  0.2033E-01  0.1402E+00  0.1398E+00
     -3.842  0.1602E-01  0.1733E-01  0.1430E+00  0.1425E+00
     -3.685  0.1056E-01  0.8921E-02  0.1448E+00  0.1446E+00
     -3.529  0.3091E-01  0.7107E-01  0.1482E+00  0.1470E+00
     -3.372  0.5010E-02  0.5475E-02  0.1506E+00  0.1505E+00
     -3.216  0.4517E-02  0.4831E-02  0.1514E+00  0.1512E+00
     -3.060  0.0000E+00  0.0000E+00  0.1515E+00  0.1515E+00
     -2.903  0.0000E+00  0.0000E+00  0.1515E+00  0.1515E+00
     -2.747  0.0000E+00  0.0000E+00  0.1515E+00  0.1515E+00
     -2.590  0.0000E+00  0.0000E+00  0.1515E+00  0.1515E+00
     -2.434  0.0000E+00  0.0000E+00  0.1515E+00  0.1515E+00
     -2.277  0.0000E+00  0.0000E+00  0.1515E+00  0.1515E+00
     -2.121  0.0000E+00  0.0000E+00  0.1515E+00  0.1515E+00
     -1.964  0.1184E-01  0.1082E-01  0.1521E+00  0.1520E+00
     -1.808  0.2673E-01  0.2403E-01  0.1550E+00  0.1546E+00
     -1.651  0.9164E-02  0.9980E-02  0.1593E+00  0.1592E+00
     -1.495  0.3921E-02  0.3989E-02  0.1604E+00  0.1603E+00
     -1.338  0.3020E-02  0.3106E-02  0.1609E+00  0.1609E+00
     -1.182  0.2118E-02  0.2224E-02  0.1613E+00  0.1613E+00
     -1.025  0.0000E+00  0.0000E+00  0.1616E+00  0.1616E+00
     -0.869  0.5940E-03  0.0000E+00  0.1616E+00  0.1616E+00
     -0.713  0.1771E-02  0.1920E-04  0.1618E+00  0.1616E+00
     -0.556  0.2839E-02  0.1695E-02  0.1622E+00  0.1618E+00
     -0.400  0.6623E-02  0.4069E-02  0.1629E+00  0.1622E+00
     -0.243  0.1207E-01  0.1005E-01  0.1647E+00  0.1635E+00
     -0.087  0.1946E-01  0.1303E-01  0.1668E+00  0.1653E+00
      0.070  0.2735E-01  0.2237E-01  0.1710E+00  0.1680E+00
      0.226  0.3485E-02  0.2206E-01  0.1738E+00  0.1723E+00
      0.383  0.1733E-01  0.3685E-02  0.1757E+00  0.1739E+00
      0.539  0.2937E-01  0.2264E-01  0.1795E+00  0.1762E+00
      0.696  0.8494E-02  0.2294E-01  0.1824E+00  0.1799E+00
      0.852  0.9382E-02  0.4964E-02  0.1836E+00  0.1822E+00
      1.009  0.1725E-01  0.2832E-02  0.1858E+00  0.1826E+00
      1.165  0.3936E-01  0.1768E-01  0.1908E+00  0.1849E+00
      1.322  0.1211E-01  0.2520E-01  0.1946E+00  0.1890E+00
      1.478  0.1730E-01  0.1534E-01  0.1969E+00  0.1923E+00
      1.634  0.1160E-01  0.1595E-01  0.1995E+00  0.1948E+00
      1.791  0.1669E-01  0.1030E-01  0.2008E+00  0.1972E+00
      1.947  0.1994E-01  0.1760E-01  0.2040E+00  0.1993E+00
      2.104  0.1928E-01  0.2549E-01  0.2070E+00  0.2034E+00
      2.260  0.1211E-01  0.2049E-01  0.2099E+00  0.2068E+00
      2.417  0.2493E-01  0.2742E-01  0.2136E+00  0.2102E+00
      2.573  0.2605E-01  0.2783E-01  0.2179E+00  0.2145E+00
      2.730  0.2246E-01  0.2476E-01  0.2220E+00  0.2188E+00
      2.886  0.1667E-01  0.2010E-01  0.2251E+00  0.2232E+00
      3.043  0.1746E-01  0.1715E-01  0.2277E+00  0.2261E+00
      3.199  0.2513E-01  0.1768E-01  0.2310E+00  0.2287E+00
      3.356  0.2354E-01  0.2309E-01  0.2346E+00  0.2319E+00
      3.512  0.2674E-01  0.2161E-01  0.2383E+00  0.2348E+00
      3.669  0.1492E-01  0.1958E-01  0.2407E+00  0.2390E+00
      3.825  0.1577E-01  0.1848E-01  0.2432E+00  0.2420E+00
      3.981  0.1253E-01  0.1455E-01  0.2453E+00  0.2447E+00
      4.138  0.4739E-01  0.3889E-01  0.2505E+00  0.2482E+00
      4.294  0.2055E-01  0.3351E-01  0.2558E+00  0.2536E+00
      4.451  0.3023E-01  0.2201E-01  0.2601E+00  0.2570E+00
      4.607  0.1261E-01  0.2285E-01  0.2636E+00  0.2612E+00
      4.764  0.7555E-02  0.1305E-01  0.2652E+00  0.2641E+00
      4.920  0.4332E-01  0.2841E-01  0.2699E+00  0.2659E+00
      5.077  0.4593E-02  0.2523E-01  0.2728E+00  0.2719E+00
      5.233  0.2080E-01  0.4350E-01  0.2765E+00  0.2740E+00
      5.390  0.2392E-01  0.2203E-01  0.2795E+00  0.2781E+00
      5.546  0.4538E-01  0.3706E-01  0.2852E+00  0.2825E+00
      5.703  0.2589E-01  0.2444E-01  0.2898E+00  0.2883E+00
      5.859  0.3135E-01  0.2965E-01  0.2955E+00  0.2927E+00
      6.016  0.3759E-01  0.2504E-01  0.3003E+00  0.2977E+00
      6.172  0.2815E-01  0.5114E-01  0.3061E+00  0.3028E+00
      6.328  0.2917E-01  0.2163E-01  0.3106E+00  0.3080E+00
      6.485  0.2115E-01  0.2585E-01  0.3144E+00  0.3125E+00
      6.641  0.1416E-01  0.1542E-01  0.3169E+00  0.3156E+00
      6.798  0.1364E-01  0.1288E-01  0.3190E+00  0.3178E+00
      6.954  0.8688E-02  0.1516E-01  0.3209E+00  0.3200E+00
      7.111  0.7036E-02  0.6653E-02  0.3219E+00  0.3216E+00
      7.267  0.2308E-02  0.2825E-02  0.3226E+00  0.3224E+00
      7.424  0.1653E-02  0.2008E-02  0.3229E+00  0.3227E+00
      7.580  0.1049E-02  0.1314E-02  0.3231E+00  0.3230E+00
      7.737  0.4878E-03  0.7579E-03  0.3232E+00  0.3232E+00
      7.893  0.0000E+00  0.2021E-03  0.3232E+00  0.3232E+00
      8.050  0.0000E+00  0.0000E+00  0.3232E+00  0.3232E+00
      8.206  0.0000E+00  0.0000E+00  0.3232E+00  0.3232E+00
      8.363  0.0000E+00  0.0000E+00  0.3232E+00  0.3232E+00
      8.519  0.0000E+00  0.0000E+00  0.3232E+00  0.3232E+00
      8.675  0.0000E+00  0.0000E+00  0.3232E+00  0.3232E+00
      8.832  0.0000E+00  0.0000E+00  0.3232E+00  0.3232E+00
      8.988  0.0000E+00  0.0000E+00  0.3232E+00  0.3232E+00
      9.145  0.0000E+00  0.0000E+00  0.3232E+00  0.3232E+00
      9.301  0.0000E+00  0.0000E+00  0.3232E+00  0.3232E+00
      9.458  0.0000E+00  0.0000E+00  0.3232E+00  0.3232E+00
      9.614  0.0000E+00  0.0000E+00  0.3232E+00  0.3232E+00
      9.771  0.0000E+00  0.0000E+00  0.3232E+00  0.3232E+00
      9.927  0.0000E+00  0.0000E+00  0.3232E+00  0.3232E+00
     10.084  0.0000E+00  0.0000E+00  0.3232E+00  0.3232E+00
     10.08369205    -36.85649267  301      1.32751158      1.00000000
    -36.856  0.0000E+00  0.0000E+00  0.0000E+00  0.0000E+00  0.0000E+00  0.0000E+00  0.0000E+00  0.0000E+00  0.0000E+00  0.0000E+00  0.0000E+00  0.0000E+00  0.0000E+00  0.0000E+00  0.0000E+00  0.0000E+00  0.0000E+00  0.0000E+00
    -36.700  0.0000E+00  0.0000E+00  0.0000E+00  0.0000E+00  0.0000E+00  0.0000E+00  0.0000E+00  0.0000E+00  0.0000E+00  0.0000E+00  0.0000E+00  0.0000E+00  0.0000E+00  0.0000E+00  0.0000E+00  0.0000E+00  0.0000E+00  0.0000E+00
    -36.544  0.0000E+00  0.0000E+00  0.0000E+00  0.0000E+00  0.0000E+00  0.0000E+00  0.0000E+00  0.0000E+00  0.0000E+00  0.0000E+00  0.0000E+00  0.0000E+00  0.0000E+00  0.0000E+00  0.0000E+00  0.0000E+00  0.0000E+00  0.0000E+00
    -36.387  0.0000E+00  0.0000E+00  0.0000E+00  0.0000E+00  0.0000E+00  0.0000E+00  0.0000E+00  0.0000E+00  0.0000E+00  0.0000E+00  0.0000E+00  0.0000E+00  0.0000E+00  0.0000E+00  0.0000E+00  0.0000E+00  0.0000E+00  0.0000E+00
    -36.231  0.0000E+00  0.0000E+00  0.0000E+00  0.0000E+00  0.0000E+00  0.0000E+00  0.0000E+00  0.0000E+00  0.0000E+00  0.0000E+00  0.0000E+00  0.0000E+00  0.0000E+00  0.0000E+00  0.0000E+00  0.0000E+00  0.0000E+00  0.0000E+00
    -36.074  0.0000E+00  0.0000E+00  0.0000E+00  0.0000E+00  0.0000E+00  0.0000E+00  0.0000E+00  0.0000E+00  0.0000E+00  0.0000E+00  0.0000E+00  0.0000E+00  0.0000E+00  0.0000E+00  0.0000E+00  0.0000E+00  0.0000E+00  0.0000E+00
    -35.918  0.0000E+00  0.0000E+00  0.0000E+00  0.0000E+00  0.0000E+00  0.0000E+00  0.0000E+00  0.0000E+00  0.0000E+00  0.0000E+00  0.0000E+00  0.0000E+00  0.0000E+00  0.0000E+00  0.0000E+00  0.0000E+00  0.0000E+00  0.0000E+00
    -35.761  0.0000E+00  0.0000E+00  0.0000E+00  0.0000E+00  0.0000E+00  0.0000E+00  0.0000E+00  0.0000E+00  0.0000E+00  0.0000E+00  0.0000E+00  0.0000E+00  0.0000E+00  0.0000E+00  0.0000E+00  0.0000E+00  0.0000E+00  0.0000E+00
    -35.605  0.0000E+00  0.0000E+00  0.0000E+00  0.0000E+00  0.0000E+00  0.0000E+00  0.0000E+00  0.0000E+00  0.0000E+00  0.0000E+00  0.0000E+00  0.0000E+00  0.0000E+00  0.0000E+00  0.0000E+00  0.0000E+00  0.0000E+00  0.0000E+00
    -35.448  0.0000E+00  0.0000E+00  0.0000E+00  0.0000E+00  0.0000E+00  0.0000E+00  0.0000E+00  0.0000E+00  0.0000E+00  0.0000E+00  0.0000E+00  0.0000E+00  0.0000E+00  0.0000E+00  0.0000E+00  0.0000E+00  0.0000E+00  0.0000E+00
    -35.292  0.0000E+00  0.0000E+00  0.0000E+00  0.0000E+00  0.0000E+00  0.0000E+00  0.0000E+00  0.0000E+00  0.0000E+00  0.0000E+00  0.0000E+00  0.0000E+00  0.0000E+00  0.0000E+00  0.0000E+00  0.0000E+00  0.0000E+00  0.0000E+00
    -35.135  0.0000E+00  0.0000E+00  0.0000E+00  0.0000E+00  0.0000E+00  0.0000E+00  0.0000E+00  0.0000E+00  0.0000E+00  0.0000E+00  0.0000E+00  0.0000E+00  0.0000E+00  0.0000E+00  0.0000E+00  0.0000E+00  0.0000E+00  0.0000E+00
    -34.979  0.0000E+00  0.0000E+00  0.0000E+00  0.0000E+00  0.0000E+00  0.0000E+00  0.0000E+00  0.0000E+00  0.0000E+00  0.0000E+00  0.0000E+00  0.0000E+00  0.0000E+00  0.0000E+00  0.0000E+00  0.0000E+00  0.0000E+00  0.0000E+00
    -34.822  0.0000E+00  0.0000E+00  0.0000E+00  0.0000E+00  0.0000E+00  0.0000E+00  0.0000E+00  0.0000E+00  0.0000E+00  0.0000E+00  0.0000E+00  0.0000E+00  0.0000E+00  0.0000E+00  0.0000E+00  0.0000E+00  0.0000E+00  0.0000E+00
    -34.666  0.4268E+01  0.4189E+01  0.8274E-04  0.7979E-04  0.1826E-03  0.1754E-03  0.1101E-03  0.1070E-03  0.5266E-05  0.5046E-05  0.2473E-05  0.2520E-05  0.9896E-04  0.9985E-04  0.4565E-05  0.4604E-05  0.3071E-04  0.2948E-04
    -34.509  0.0000E+00  0.0000E+00  0.0000E+00  0.0000E+00  0.0000E+00  0.0000E+00  0.0000E+00  0.0000E+00  0.0000E+00  0.0000E+00  0.0000E+00  0.0000E+00  0.0000E+00  0.0000E+00  0.0000E+00  0.0000E+00  0.0000E+00  0.0000E+00
    -34.353  0.2907E-06  0.3661E-06  0.1845E-09  0.3680E-09  0.5341E-09  0.5071E-09  0.1998E-09  0.2028E-09  0.5549E-10  0.5282E-10  0.6574E-10  0.9848E-10  0.1183E-09  0.1455E-09  0.7589E-10  0.9456E-10  0.2931E-10  0.8220E-10
    -34.197  0.0000E+00  0.0000E+00  0.0000E+00  0.0000E+00  0.0000E+00  0.0000E+00  0.0000E+00  0.0000E+00  0.0000E+00  0.0000E+00  0.0000E+00  0.0000E+00  0.0000E+00  0.0000E+00  0.0000E+00  0.0000E+00  0.0000E+00  0.0000E+00
    -34.040  0.0000E+00  0.0000E+00  0.0000E+00  0.0000E+00  0.0000E+00  0.0000E+00  0.0000E+00  0.0000E+00  0.0000E+00  0.0000E+00  0.0000E+00  0.0000E+00  0.0000E+00  0.0000E+00  0.0000E+00  0.0000E+00  0.0000E+00  0.0000E+00
    -33.884  0.0000E+00  0.0000E+00  0.0000E+00  0.0000E+00  0.0000E+00  0.0000E+00  0.0000E+00  0.0000E+00  0.0000E+00  0.0000E+00  0.0000E+00  0.0000E+00  0.0000E+00  0.0000E+00  0.0000E+00  0.0000E+00  0.0000E+00  0.0000E+00
    -33.727  0.0000E+00  0.0000E+00  0.0000E+00  0.0000E+00  0.0000E+00  0.0000E+00  0.0000E+00  0.0000E+00  0.0000E+00  0.0000E+00  0.0000E+00  0.0000E+00  0.0000E+00  0.0000E+00  0.0000E+00  0.0000E+00  0.0000E+00  0.0000E+00
    -33.571  0.0000E+00  0.0000E+00  0.0000E+00  0.0000E+00  0.0000E+00  0.0000E+00  0.0000E+00  0.0000E+00  0.0000E+00  0.0000E+00  0.0000E+00  0.0000E+00  0.0000E+00  0.0000E+00  0.0000E+00  0.0000E+00  0.0000E+00  0.0000E+00
    -33.414  0.0000E+00  0.0000E+00  0.0000E+00  0.0000E+00  0.0000E+00  0.0000E+00  0.0000E+00  0.0000E+00  0.0000E+00  0.0000E+00  0.0000E+00  0.0000E+00  0.0000E+00  0.0000E+00  0.0000E+00  0.0000E+00  0.0000E+00  0.0000E+00
    -33.258  0.0000E+00  0.0000E+00  0.0000E+00  0.0000E+00  0.0000E+00  0.0000E+00  0.0000E+00  0.0000E+00  0.0000E+00  0.0000E+00  0.0000E+00  0.0000E+00  0.0000E+00  0.0000E+00  0.0000E+00  0.0000E+00  0.0000E+00  0.0000E+00
    -33.101  0.0000E+00  0.0000E+00  0.0000E+00  0.0000E+00  0.0000E+00  0.0000E+00  0.0000E+00  0.0000E+00  0.0000E+00  0.0000E+00  0.0000E+00  0.0000E+00  0.0000E+00  0.0000E+00  0.0000E+00  0.0000E+00  0.0000E+00  0.0000E+00
    -32.945  0.0000E+00  0.0000E+00  0.0000E+00  0.0000E+00  0.0000E+00  0.0000E+00  0.0000E+00  0.0000E+00  0.0000E+00  0.0000E+00  0.0000E+00  0.0000E+00  0.0000E+00  0.0000E+00  0.0000E+00  0.0000E+00  0.0000E+00  0.0000E+00
    -32.788  0.0000E+00  0.0000E+00  0.0000E+00  0.0000E+00  0.0000E+00  0.0000E+00  0.0000E+00  0.0000E+00  0.0000E+00  0.0000E+00  0.0000E+00  0.0000E+00  0.0000E+00  0.0000E+00  0.0000E+00  0.0000E+00  0.0000E+00  0.0000E+00
    -32.632  0.0000E+00  0.0000E+00  0.0000E+00  0.0000E+00  0.0000E+00  0.0000E+00  0.0000E+00  0.0000E+00  0.0000E+00  0.0000E+00  0.0000E+00  0.0000E+00  0.0000E+00  0.0000E+00  0.0000E+00  0.0000E+00  0.0000E+00  0.0000E+00
    -32.475  0.0000E+00  0.0000E+00  0.0000E+00  0.0000E+00  0.0000E+00  0.0000E+00  0.0000E+00  0.0000E+00  0.0000E+00  0.0000E+00  0.0000E+00  0.0000E+00  0.0000E+00  0.0000E+00  0.0000E+00  0.0000E+00  0.0000E+00  0.0000E+00
    -32.319  0.0000E+00  0.0000E+00  0.0000E+00  0.0000E+00  0.0000E+00  0.0000E+00  0.0000E+00  0.0000E+00  0.0000E+00  0.0000E+00  0.0000E+00  0.0000E+00  0.0000E+00  0.0000E+00  0.0000E+00  0.0000E+00  0.0000E+00  0.0000E+00
    -32.162  0.0000E+00  0.0000E+00  0.0000E+00  0.0000E+00  0.0000E+00  0.0000E+00  0.0000E+00  0.0000E+00  0.0000E+00  0.0000E+00  0.0000E+00  0.0000E+00  0.0000E+00  0.0000E+00  0.0000E+00  0.0000E+00  0.0000E+00  0.0000E+00
    -32.006  0.0000E+00  0.0000E+00  0.0000E+00  0.0000E+00  0.0000E+00  0.0000E+00  0.0000E+00  0.0000E+00  0.0000E+00  0.0000E+00  0.0000E+00  0.0000E+00  0.0000E+00  0.0000E+00  0.0000E+00  0.0000E+00  0.0000E+00  0.0000E+00
    -31.850  0.0000E+00  0.0000E+00  0.0000E+00  0.0000E+00  0.0000E+00  0.0000E+00  0.0000E+00  0.0000E+00  0.0000E+00  0.0000E+00  0.0000E+00  0.0000E+00  0.0000E+00  0.0000E+00  0.0000E+00  0.0000E+00  0.0000E+00  0.0000E+00
    -31.693  0.0000E+00  0.0000E+00  0.0000E+00  0.0000E+00  0.0000E+00  0.0000E+00  0.0000E+00  0.0000E+00  0.0000E+00  0.0000E+00  0.0000E+00  0.0000E+00  0.0000E+00  0.0000E+00  0.0000E+00  0.0000E+00  0.0000E+00  0.0000E+00
    -31.537  0.0000E+00  0.0000E+00  0.0000E+00  0.0000E+00  0.0000E+00  0.0000E+00  0.0000E+00  0.0000E+00  0.0000E+00  0.0000E+00  0.0000E+00  0.0000E+00  0.0000E+00  0.0000E+00  0.0000E+00  0.0000E+00  0.0000E+00  0.0000E+00
    -31.380  0.0000E+00  0.0000E+00  0.0000E+00  0.0000E+00  0.0000E+00  0.0000E+00  0.0000E+00  0.0000E+00  0.0000E+00  0.0000E+00  0.0000E+00  0.0000E+00  0.0000E+00  0.0000E+00  0.0000E+00  0.0000E+00  0.0000E+00  0.0000E+00
    -31.224  0.0000E+00  0.0000E+00  0.0000E+00  0.0000E+00  0.0000E+00  0.0000E+00  0.0000E+00  0.0000E+00  0.0000E+00  0.0000E+00  0.0000E+00  0.0000E+00  0.0000E+00  0.0000E+00  0.0000E+00  0.0000E+00  0.0000E+00  0.0000E+00
    -31.067  0.0000E+00  0.0000E+00  0.0000E+00  0.0000E+00  0.0000E+00  0.0000E+00  0.0000E+00  0.0000E+00  0.0000E+00  0.0000E+00  0.0000E+00  0.0000E+00  0.0000E+00  0.0000E+00  0.0000E+00  0.0000E+00  0.0000E+00  0.0000E+00
    -30.911  0.0000E+00  0.0000E+00  0.0000E+00  0.0000E+00  0.0000E+00  0.0000E+00  0.0000E+00  0.0000E+00  0.0000E+00  0.0000E+00  0.0000E+00  0.0000E+00  0.0000E+00  0.0000E+00  0.0000E+00  0.0000E+00  0.0000E+00  0.0000E+00
    -30.754  0.0000E+00  0.0000E+00  0.0000E+00  0.0000E+00  0.0000E+00  0.0000E+00  0.0000E+00  0.0000E+00  0.0000E+00  0.0000E+00  0.0000E+00  0.0000E+00  0.0000E+00  0.0000E+00  0.0000E+00  0.0000E+00  0.0000E+00  0.0000E+00
    -30.598  0.0000E+00  0.0000E+00  0.0000E+00  0.0000E+00  0.0000E+00  0.0000E+00  0.0000E+00  0.0000E+00  0.0000E+00  0.0000E+00  0.0000E+00  0.0000E+00  0.0000E+00  0.0000E+00  0.0000E+00  0.0000E+00  0.0000E+00  0.0000E+00
    -30.441  0.0000E+00  0.0000E+00  0.0000E+00  0.0000E+00  0.0000E+00  0.0000E+00  0.0000E+00  0.0000E+00  0.0000E+00  0.0000E+00  0.0000E+00  0.0000E+00  0.0000E+00  0.0000E+00  0.0000E+00  0.0000E+00  0.0000E+00  0.0000E+00
    -30.285  0.0000E+00  0.0000E+00  0.0000E+00  0.0000E+00  0.0000E+00  0.0000E+00  0.0000E+00  0.0000E+00  0.0000E+00  0.0000E+00  0.0000E+00  0.0000E+00  0.0000E+00  0.0000E+00  0.0000E+00  0.0000E+00  0.0000E+00  0.0000E+00
    -30.128  0.2647E-04  0.0000E+00  0.6060E-06  0.0000E+00  0.8145E-05  0.0000E+00  0.2891E-05  0.0000E+00  0.8485E-07  0.0000E+00  0.3423E-06  0.0000E+00  0.9961E-06  0.0000E+00  0.1607E-05  0.0000E+00  0.1082E-06  0.0000E+00
    -29.972  0.1398E-03  0.2275E-04  0.4467E-05  0.7374E-06  0.3313E-04  0.7650E-05  0.5077E-05  0.2740E-05  0.4349E-06  0.1146E-06  0.2145E-05  0.3983E-06  0.1113E-05  0.9435E-06  0.1858E-05  0.1501E-05  0.1820E-06  0.1093E-06
    -29.815  0.8924E-05  0.2091E-03  0.1291E-05  0.6864E-04  0.3192E-05  0.5518E-04  0.7400E-06  0.2620E-04  0.1432E-06  0.9369E-05  0.6763E-06  0.2463E-04  0.3665E-06  0.3313E-05  0.3971E-06  0.9448E-05  0.6223E-07  0.1880E-05
    -29.659  0.0000E+00  0.1192E-05  0.0000E+00  0.4530E-06  0.0000E+00  0.4591E-06  0.0000E+00  0.8848E-06  0.0000E+00  0.3820E-06  0.0000E+00  0.2360E-06  0.0000E+00  0.6476E-07  0.0000E+00  0.5065E-06  0.0000E+00  0.8362E-07
    -29.503  0.0000E+00  0.0000E+00  0.0000E+00  0.0000E+00  0.0000E+00  0.0000E+00  0.0000E+00  0.0000E+00  0.0000E+00  0.0000E+00  0.0000E+00  0.0000E+00  0.0000E+00  0.0000E+00  0.0000E+00  0.0000E+00  0.0000E+00  0.0000E+00
    -29.346  0.0000E+00  0.0000E+00  0.0000E+00  0.0000E+00  0.0000E+00  0.0000E+00  0.0000E+00  0.0000E+00  0.0000E+00  0.0000E+00  0.0000E+00  0.0000E+00  0.0000E+00  0.0000E+00  0.0000E+00  0.0000E+00  0.0000E+00  0.0000E+00
    -29.190  0.0000E+00  0.0000E+00  0.0000E+00  0.0000E+00  0.0000E+00  0.0000E+00  0.0000E+00  0.0000E+00  0.0000E+00  0.0000E+00  0.0000E+00  0.0000E+00  0.0000E+00  0.0000E+00  0.0000E+00  0.0000E+00  0.0000E+00  0.0000E+00
    -29.033  0.0000E+00  0.0000E+00  0.0000E+00  0.0000E+00  0.0000E+00  0.0000E+00  0.0000E+00  0.0000E+00  0.0000E+00  0.0000E+00  0.0000E+00  0.0000E+00  0.0000E+00  0.0000E+00  0.0000E+00  0.0000E+00  0.0000E+00  0.0000E+00