Automatically generated mesh
      25
Reciprocal lattice
    0.00000000000000    0.00000000000000    0.00000000000000             1
    0.14285714285714    0.00000000000000    0.00000000000000             2
    0.28571428571429    0.00000000000000    0.00000000000000             2
    0.42857142857143    0.00000000000000    0.00000000000000             2
    0.00000000000000    0.14285714285714    0.00000000000000             2
    0.14285714285714    0.14285714285714    0.00000000000000             2
    0.28571428571429    0.14285714285714    0.00000000000000             2
    0.42857142857143    0.14285714285714    0.00000000000000             2
   -0.42857142857143    0.14285714285714    0.00000000000000             2
   -0.28571428571429    0.14285714285714    0.00000000000000             2
   -0.14285714285714    0.14285714285714    0.00000000000000             2
    0.00000000000000    0.28571428571429    0.00000000000000             2
    0.14285714285714    0.28571428571429    0.00000000000000             2
    0.28571428571429    0.28571428571429    0.00000000000000             2
    0.42857142857143    0.28571428571429    0.00000000000000             2
   -0.42857142857143    0.28571428571429    0.00000000000000             2
   -0.28571428571429    0.28571428571429    0.00000000000000             2
   -0.14285714285714    0.28571428571429    0.00000000000000             2
    0.00000000000000    0.42857142857143    0.00000000000000             2
    0.14285714285714    0.42857142857143    0.00000000000000             2
    0.28571428571429    0.42857142857143    0.00000000000000             2
    0.42857142857143    0.42857142857143    0.00000000000000             2
   -0.42857142857143    0.42857142857143    0.00000000000000             2
   -0.28571428571429    0.42857142857143    0.00000000000000             2
   -0.14285714285714    0.42857142857143    0.00000000000000             2
Tetrahedra
       144    0.00340136054422
         2         1         1         2         6
         2         1         1         5         6
         2         1         5         5         6
         2         1         2         2         6
         2         1         2         6         6
         2         1         5         6         6
         2         2         2         3         7
         2         2         2         6         7
         2         2         6         6         7
         2         2         3         3         7
         2         2         3         7         7
         2         2         6         7         7
         2         3         3         4         8
         2         3         3         7         8
         2         3         7         7         8
         2         3         4         4         8
         2         3         4         8         8
         2         3         7         8         8
         4         4         4         4         9
         2         4         4         8         9
         2         4         8         8         9
         2         4         4         9         9
         2         4         8         9         9
         2         3         4         4        10
         2         4         4         9        10
         2         4         9         9        10
         2         3         3         4        10
         2         3         4        10        10
         2         4         9        10        10
         2         2         3         3        11
         2         3         3        10        11
         2         3        10        10        11
         2         2         2         3        11
         2         2         3        11        11
         2         3        10        11        11
         2         1         2         2         5
         2         2         2         5        11
         2         2         5        11        11
         2         1         1         2         5
         2         1         2         5         5
         2         2         5         5        11
         2         5         5         6        13
         2         5         5        12        13
         2         5        12        12        13
         2         5         6         6        13
         2         5         6        13        13
         2         5        12        13        13
         2         6         6         7        14
         2         6         6        13        14
         2         6        13        13        14
         2         6         7         7        14
         2         6         7        14        14
         2         6        13        14        14
         2         7         7         8        15
         2         7         7        14        15
         2         7        14        14        15
         2         7         8         8        15
         2         7         8        15        15
         2         7        14        15        15
         2         8         8         9        16
         2         8         8        15        16
         2         8        15        15        16
         2         8         9         9        16
         2         8         9        16        16
         2         8        15        16        16
         2         9         9        10        17
         2         9         9        16        17
         2         9        16        16        17
         2         9        10        10        17
         2         9        10        17        17
         2         9        16        17        17
         2        10        10        11        18
         2        10        10        17        18
         2        10        17        17        18
         2        10        11        11        18
         2        10        11        18        18
         2        10        17        18        18
         2         5        11        11        12
         2        11        11        12        18
         2        11        12        18        18
         2         5         5        11        12
         2         5        11        12        12
         2        11        12        12        18
         2        12        12        13        20
         2        12        12        19        20
         2        12        19        19        20
         2        12        13        13        20
         2        12        13        20        20
         2        12        19        20        20
         2        13        13        14        21
         2        13        13        20        21
         2        13        20        20        21
         2        13        14        14        21
         2        13        14        21        21
         2        13        20        21        21
         2        14        14        15        22
         2        14        14        21        22
         2        14        21        21        22
         2        14        15        15        22
         2        14        15        22        22
         2        14        21        22        22
         2        15        15        16        23
         2        15        15        22        23
         2        15        22        22        23
         2        15        16        16        23
         2        15        16        23        23
         2        15        22        23        23
         2        16        16        17        24
         2        16        16        23        24
         2        16        23        23        24
         2        16        17        17        24
         2        16        17        24        24
         2        16        23        24        24
         2        17        17        18        25
         2        17        17        24        25
         2        17        24        24        25
         2        17        18        18        25
         2        17        18        25        25
         2        17        24        25        25
         2        12        18        18        19
         2        18        18        19        25
         2        18        19        25        25
         2        12        12        18        19
         2        12        18        19        19
         2        18        19        19        25
         2        19        19        20        25
         4        19        19        19        25
         2        19        20        20        25
         2        19        20        25        25
         2        19        19        25        25
         2        20        20        21        24
         2        20        20        24        25
         2        20        24        25        25
         2        20        21        21        24
         2        20        21        24        24
         2        20        24        24        25
         2        21        21        22        23
         2        21        21        23        24
         2        21        23        24        24
         2        21        22        22        23
         2        21        22        23        23
         2        21        23        23        24
         4        22        22        22        23
         2        22        22        23        23
