    8    8   60    1
  0.8643759E+01  0.3566484E-09  0.3573313E-09  0.7210482E-09  0.5000000E-15
  1.000000000000000E-004
  CAR 
 unknown system                          
     27    548     20
 
  0.3742002E-15  0.3742002E-15  0.3742002E-15  0.9157509E-03
    1      -31.650387   1.000000
    2      -28.022095   1.000000
    3      -28.005747   1.000000
    4      -28.001078   1.000000
    5      -13.879110   1.000000
    6      -13.415195   1.000000
    7      -13.408201   1.000000
    8       -6.952833   1.000000
    9       -4.195190   1.000000
   10       -1.581774   1.000000
   11        0.590408   1.000000
   12        2.766129   1.000000
   13        2.804482   1.000000
   14        3.200218   0.999904
   15        4.346000   0.000000
   16        4.378800   0.000000
   17        4.641442   0.000000
   18        6.181236   0.000000
   19        6.220709   0.000000
   20        8.580365   0.000000
 
  0.7692308E-01  0.3742666E-15  0.3738329E-15  0.1831502E-02
    1      -31.643662   1.000000
    2      -28.020654   1.000000
    3      -28.014410   1.000000
    4      -28.005723   1.000000
    5      -13.867406   1.000000
    6      -13.490958   1.000000
    7      -13.424443   1.000000
    8       -6.854639   1.000000
    9       -4.090838   1.000000
   10       -1.625310   1.000000
   11        0.531643   1.000000
   12        1.847413   1.000000
   13        2.886215   1.000000
   14        3.877803   0.000016
   15        4.305317   0.000000
   16        4.455087   0.000000
   17        4.649857   0.000000
   18        6.318161   0.000000
   19        6.439649   0.000000
   20        8.835203   0.000000
 
  0.1538462E+00  0.3890117E-15  0.3608225E-15  0.1831502E-02
    1      -31.624931   1.000000
    2      -28.043845   1.000000
    3      -28.016856   1.000000
    4      -28.012513   1.000000
    5      -13.853921   1.000000
    6      -13.679893   1.000000
    7      -13.459105   1.000000
    8       -6.583486   1.000000
    9       -3.807176   1.000000
   10       -1.720107   1.000000
   11        0.354448   1.000000
   12        0.909386   1.000000
   13        3.163852   0.999988
   14        3.539605   0.328550
   15        4.214818   0.000000
   16        4.496511   0.000000
   17        5.661332   0.000000
   18        6.686847   0.000000
   19        6.798526   0.000000
   20        8.979289   0.000000
 
  0.2307692E+00  0.3898791E-15  0.3677614E-15  0.1831502E-02
    1      -31.598332   1.000000
    2      -28.085772   1.000000
    3      -28.021643   1.000000
    4      -28.011757   1.000000
    5      -14.028927   1.000000
    6      -13.728103   1.000000
    7      -13.507354   1.000000
    8       -6.234517   1.000000
    9       -3.410502   1.000000
   10       -1.804537   1.000000
   11       -0.111675   1.000000
   12        0.414216   1.000000
   13        2.984356   1.000000
   14        3.585441   0.003316
   15        4.090792   0.000000
   16        4.632417   0.000000
   17        6.444556   0.000000
   18        7.137860   0.000000
   19        7.413900   0.000000
   20        8.832521   0.000000
 
  0.3076923E+00  0.4028895E-15  0.3538836E-15  0.1831502E-02
    1      -31.569821   1.000000
    2      -28.129511   1.000000
    3      -28.031180   1.000000
    4      -28.006198   1.000000
    5      -14.294242   1.000000
    6      -13.673304   1.000000
    7      -13.557782   1.000000
    8       -5.909658   1.000000
    9       -2.997392   1.000000
   10       -1.789928   1.000000
   11       -0.677476   1.000000
   12        0.253041   1.000000
   13        2.453460   1.000000
   14        3.833266   0.000183
   15        4.243503   0.000000
   16        4.866991   0.000000
   17        6.543888   0.000000
   18        7.728003   0.000000
   19        8.166436   0.000000
   20        8.702909   0.000000
 
  0.3846154E+00  0.3586541E-15  0.3712308E-15  0.1831502E-02
    1      -31.546012   1.000000
    2      -28.165388   1.000000
    3      -28.038933   1.000000
    4      -28.001789   1.000000
    5      -14.505524   1.000000
    6      -13.620710   1.000000
    7      -13.598572   1.000000
    8       -5.689304   1.000000
    9       -2.679047   1.000000
   10       -1.671207   1.000000
   11       -1.044509   1.000000
   12        0.172939   1.000000
   13        2.041929   1.000000
   14        3.746497   0.003982
   15        4.773539   0.000000
   16        5.029695   0.000000
   17        6.626289   0.000000
   18        7.633834   0.000000
   19        8.473822   0.000000
   20        8.576095   0.000000
 
  0.4615385E+00  0.3838076E-15  0.3608225E-15  0.1831502E-02
    1      -31.532492   1.000000
    2      -28.185680   1.000000
    3      -28.043435   1.000000
    4      -27.999306   1.000000
    5      -14.620252   1.000000
    6      -13.622141   1.000000
    7      -13.589303   1.000000
    8       -5.592006   1.000000
    9       -2.516701   1.000000
   10       -1.597669   1.000000
   11       -1.157239   1.000000
   12        0.138561   1.000000
   13        1.812329   1.000000
   14        3.684540  -0.003782
   15        5.080902   0.000000
   16        5.160661   0.000000
   17        6.557208   0.000000
   18        7.567855   0.000000
   19        8.391157   0.000000
   20        8.560003   0.000000
 
  0.3773024E-15  0.7142857E-01  0.3885781E-15  0.1831502E-02
    1      -31.644661   1.000000
    2      -28.020615   1.000000
    3      -28.015004   1.000000
    4      -28.003092   1.000000
    5      -13.870086   1.000000
    6      -13.483494   1.000000
    7      -13.419192   1.000000
    8       -6.852297   1.000000
    9       -4.123281   1.000000
   10       -1.607211   1.000000
   11        0.538918   1.000000
   12        1.915330   1.000000
   13        2.891361   1.000000
   14        3.764794   0.002630
   15        4.315740   0.000000
   16        4.388545   0.000000
   17        4.743830   0.000000
   18        6.350510   0.000000
   19        6.405920   0.000000
   20        8.787265   0.000000
 
  0.7692308E-01  0.7142857E-01  0.3885781E-15  0.1831502E-02
    1      -31.644093   1.000000
    2      -28.020602   1.000000
    3      -28.012131   1.000000
    4      -28.007176   1.000000
    5      -13.869249   1.000000
    6      -13.482893   1.000000
    7      -13.426676   1.000000
    8       -6.847188   1.000000
    9       -4.115510   1.000000
   10       -1.609437   1.000000
   11        0.524646   1.000000
   12        1.887818   1.000000
   13        2.867936   1.000000
   14        3.776914   0.001841
   15        4.334836   0.000000
   16        4.404610   0.000000
   17        4.757856   0.000000
   18        6.317547   0.000000
   19        6.448838   0.000000
   20        8.799181   0.000000
 
  0.1538462E+00  0.7142857E-01  0.3747003E-15  0.1831502E-02
    1      -31.630788   1.000000
    2      -28.032478   1.000000
    3      -28.017992   1.000000
    4      -28.012311   1.000000
    5      -13.852700   1.000000
    6      -13.622750   1.000000
    7      -13.453591   1.000000
    8       -6.652961   1.000000
    9       -3.913444   1.000000
   10       -1.677333   1.000000
   11        0.399120   1.000000
   12        1.140228   1.000000
   13        3.063041   1.000000
   14        3.616880  -0.051481
   15        4.244571   0.000000
   16        4.501121   0.000000
   17        5.429297   0.000000
   18        6.617817   0.000000
   19        6.681192   0.000000
   20        9.031784   0.000000
 
  0.2307692E+00  0.7142857E-01  0.3747003E-15  0.1831502E-02
    1      -31.607693   1.000000
    2      -28.068842   1.000000
    3      -28.021007   1.000000
    4      -28.013240   1.000000
    5      -13.934239   1.000000
    6      -13.736391   1.000000
    7      -13.502389   1.000000
    8       -6.338936   1.000000
    9       -3.568874   1.000000
   10       -1.770191   1.000000
   11        0.060190   1.000000
   12        0.538293   1.000000
   13        3.140157   0.999997
   14        3.429631   1.051415
   15        4.096540   0.000000
   16        4.587457   0.000000
   17        6.348234   0.000000
   18        6.933256   0.000000
   19        7.207871   0.000000
   20        8.770391   0.000000
 
  0.3076923E+00  0.7142857E-01  0.3608225E-15  0.1831502E-02
    1      -31.579931   1.000000
    2      -28.110869   1.000000
    3      -28.031178   1.000000
    4      -28.008006   1.000000
    5      -14.181517   1.000000
    6      -13.696727   1.000000
    7      -13.560617   1.000000
    8       -6.000557   1.000000
    9       -3.161663   1.000000
   10       -1.796844   1.000000
   11       -0.514103   1.000000
   12        0.340801   1.000000
   13        2.601785   1.000000
   14        3.782668   0.001523
   15        4.076498   0.000000
   16        4.806385   0.000000
   17        6.513118   0.000000
   18        7.679006   0.000000
   19        7.973973   0.000000
   20        8.617668   0.000000
 
  0.3846154E+00  0.7142857E-01  0.3608225E-15  0.1831502E-02
    1      -31.553841   1.000000
    2      -28.149587   1.000000
    3      -28.040883   1.000000
    4      -28.003236   1.000000
    5      -14.411641   1.000000
    6      -13.645668   1.000000
    7      -13.610487   1.000000
    8       -5.737279   1.000000
    9       -2.794667   1.000000
   10       -1.704348   1.000000
   11       -0.968164   1.000000
   12        0.248295   1.000000
   13        2.143650   1.000000
   14        3.695807   0.000929
   15        4.578905   0.000000
   16        5.038222   0.000000
   17        6.535633   0.000000
   18        7.852275   0.000000
   19        8.419119   0.000000
   20        8.835625   0.000000
 
  0.4615385E+00  0.7142857E-01  0.3330669E-15  0.1831502E-02
    1      -31.535496   1.000000
    2      -28.176160   1.000000
    3      -28.047724   1.000000
    4      -27.999878   1.000000
    5      -14.564711   1.000000
    6      -13.657766   1.000000
    7      -13.594908   1.000000
    8       -5.592998   1.000000
    9       -2.534332   1.000000
   10       -1.597665   1.000000
   11       -1.167305   1.000000
   12        0.163052   1.000000
   13        1.869569   1.000000
   14        3.593650  -0.022540
   15        5.044484   0.000000
   16        5.175736   0.000000
   17        6.523405   0.000000
   18        7.586445   0.000000
   19        8.353100   0.000000
   20        8.721926   0.000000
 
 -0.4615385E+00  0.7142857E-01  0.3434752E-15  0.1831502E-02
    1      -31.529275   1.000000
    2      -28.185197   1.000000
    3      -28.050099   1.000000
    4      -27.998718   1.000000
    5      -14.615454   1.000000
    6      -13.669880   1.000000
    7      -13.581476   1.000000
    8       -5.562130   1.000000
    9       -2.417120   1.000000
   10       -1.584656   1.000000
   11       -1.168281   1.000000
   12        0.064639   1.000000
   13        1.827990   1.000000
   14        3.554027   0.195537
   15        5.122010   0.000000
   16        5.308412   0.000000
   17        6.462517   0.000000
   18        7.514141   0.000000
   19        8.318676   0.000000
   20        8.604411   0.000000
 
 -0.3846154E+00  0.7142857E-01  0.3989864E-15  0.1831502E-02
    1      -31.536656   1.000000
    2      -28.174608   1.000000
    3      -28.047261   1.000000
    4      -28.000092   1.000000
    5      -14.555624   1.000000
    6      -13.655888   1.000000
    7      -13.597813   1.000000
    8       -5.620768   1.000000
    9       -2.471660   1.000000
   10       -1.610553   1.000000
   11       -1.131562   1.000000
   12        0.013539   1.000000
   13        1.998926   1.000000
   14        3.586683  -0.001213
   15        5.020000   0.000000
   16        5.164631   0.000000
   17        6.552209   0.000000
   18        7.432358   0.000000
   19        8.285757   0.000000
   20        8.638311   0.000000
 
 -0.3076923E+00  0.7142857E-01  0.4024558E-15  0.1831502E-02
    1      -31.555872   1.000000
    2      -28.146886   1.000000
    3      -28.039864   1.000000
    4      -28.003652   1.000000
    5      -14.395009   1.000000
    6      -13.646570   1.000000
    7      -13.611054   1.000000
    8       -5.779096   1.000000
    9       -2.731226   1.000000
   10       -1.720466   1.000000
   11       -0.893801   1.000000
   12        0.064202   1.000000
   13        2.320678   1.000000
   14        3.688577  -0.001841
   15        4.535655   0.000000
   16        5.076749   0.000000
   17        6.465374   0.000000
   18        7.584876   0.000000
   19        8.254941   0.000000
   20        8.741928   0.000000
 
 -0.2307692E+00  0.7142857E-01  0.3677614E-15  0.1831502E-02
    1      -31.582362   1.000000
    2      -28.107993   1.000000
    3      -28.029519   1.000000
    4      -28.008608   1.000000
    5      -14.161356   1.000000
    6      -13.700446   1.000000
    7      -13.557597   1.000000
    8       -6.042976   1.000000
    9       -3.147193   1.000000
   10       -1.781874   1.000000
   11       -0.436063   1.000000
   12        0.214637   1.000000
   13        2.743732   1.000000
   14        3.782801   0.001517
   15        4.032272   0.000000
   16        4.881125   0.000000
   17        6.394103   0.000000
   18        7.416565   0.000000
   19        7.818435   0.000000
   20        8.758623   0.000000
 
 -0.1538462E+00  0.7142857E-01  0.4024558E-15  0.1831502E-02
    1      -31.609967   1.000000
    2      -28.067103   1.000000
    3      -28.018173   1.000000
    4      -28.013908   1.000000
    5      -13.919475   1.000000
    6      -13.736247   1.000000
    7      -13.497288   1.000000
    8       -6.371116   1.000000
    9       -3.585777   1.000000
   10       -1.749328   1.000000
   11        0.114575   1.000000
   12        0.514100   1.000000
   13        3.210994   0.999833
   14        3.417926   1.049052
   15        4.076714   0.000000
   16        4.667606   0.000000
   17        6.208629   0.000000
   18        6.815300   0.000000
   19        7.171586   0.000000
   20        8.801609   0.000000
 
 -0.7692308E-01  0.7142857E-01  0.3816392E-15  0.1831502E-02
    1      -31.632387   1.000000
    2      -28.033466   1.000000
    3      -28.018158   1.000000
    4      -28.008373   1.000000
    5      -13.853924   1.000000
    6      -13.613486   1.000000
    7      -13.446233   1.000000
    8       -6.672727   1.000000
    9       -3.933761   1.000000
   10       -1.668028   1.000000
   11        0.422559   1.000000
   12        1.184411   1.000000
   13        3.068891   1.000000
   14        3.638226  -0.042031
   15        4.213396   0.000000
   16        4.561796   0.000000
   17        5.307932   0.000000
   18        6.539282   0.000000
   19        6.714109   0.000000
   20        8.931990   0.000000
 
  0.3790371E-15  0.1428571E+00  0.4163336E-15  0.1831502E-02
    1      -31.628549   1.000000
    2      -28.040959   1.000000
    3      -28.017184   1.000000
    4      -28.008685   1.000000
    5      -13.856539   1.000000
    6      -13.654826   1.000000
    7      -13.449069   1.000000
    8       -6.581873   1.000000
    9       -3.928945   1.000000
   10       -1.654271   1.000000
   11        0.364283   1.000000
   12        1.024509   1.000000
   13        3.122589   0.999999
   14        3.414836   1.047254
   15        4.238245   0.000000
   16        4.511201   0.000000
   17        5.677411   0.000000
   18        6.706539   0.000000
   19        6.808325   0.000000
   20        8.706786   0.000000
 
  0.7692308E-01  0.1428571E+00  0.3608225E-15  0.1831502E-02
    1      -31.633598   1.000000
    2      -28.030791   1.000000
    3      -28.018142   1.000000
    4      -28.008991   1.000000
    5      -13.858045   1.000000
    6      -13.599393   1.000000
    7      -13.445969   1.000000
    8       -6.656585   1.000000
    9       -4.001782   1.000000
   10       -1.621567   1.000000
   11        0.394362   1.000000
   12        1.240048   1.000000
   13        3.036618   1.000000
   14        3.507172   0.664715
   15        4.260964   0.000000
   16        4.553864   0.000000
   17        5.429026   0.000000
   18        6.577792   0.000000
   19        6.681799   0.000000
   20        8.781387   0.000000
 
  0.1538462E+00  0.1428571E+00  0.4024558E-15  0.1831502E-02
    1      -31.626452   1.000000
    2      -28.040169   1.000000
    3      -28.016733   1.000000
    4      -28.013510   1.000000
    5      -13.854811   1.000000
    6      -13.665348   1.000000
    7      -13.459716   1.000000
    8       -6.566959   1.000000
    9       -3.884895   1.000000
   10       -1.642028   1.000000
   11        0.281609   1.000000
   12        0.960880   1.000000
   13        3.129594   0.999999
   14        3.385123   1.020823
   15        4.237836   0.000000
   16        4.688407   0.000000
   17        5.739498   0.000000
   18        6.681092   0.000000
   19        6.710357   0.000000
   20        8.808720   0.000000
 
  0.2307692E+00  0.1428571E+00  0.3608225E-15  0.1831502E-02
    1      -31.608675   1.000000
    2      -28.066300   1.000000
    3      -28.021829   1.000000
    4      -28.013319   1.000000
    5      -13.921509   1.000000
    6      -13.738248   1.000000
    7      -13.505482   1.000000
    8       -6.337364   1.000000
    9       -3.606140   1.000000
   10       -1.701506   1.000000
   11        0.024082   1.000000
   12        0.493914   1.000000
   13        3.101572   1.000000
   14        3.413506   1.046369
   15        4.092773   0.000000
   16        4.791883   0.000000
   17        6.346356   0.000000
   18        6.794423   0.000000
   19        7.166412   0.000000
   20        8.771627   0.000000
 
  0.3076923E+00  0.1428571E+00  0.3608225E-15  0.1831502E-02
    1      -31.584198   1.000000
    2      -28.100074   1.000000
    3      -28.034115   1.000000
    4      -28.008766   1.000000
    5      -14.114757   1.000000
    6      -13.709200   1.000000
    7      -13.580404   1.000000
    8       -6.038985   1.000000
    9       -3.218245   1.000000
   10       -1.739511   1.000000
   11       -0.448794   1.000000
   12        0.254339   1.000000
   13        2.711219   1.000000
   14        3.735178   0.004674
   15        3.980104   0.000000
   16        4.963509   0.000000
   17        6.365622   0.000000
   18        7.504551   0.000000
   19        7.805196   0.000000
   20        8.683545   0.000000
 
  0.3846154E+00  0.1428571E+00  0.3053113E-15  0.1831502E-02
    1      -31.558579   1.000000
    2      -28.134089   1.000000
    3      -28.048023   1.000000
    4      -28.004077   1.000000
    5      -14.316769   1.000000
    6      -13.687129   1.000000
    7      -13.635141   1.000000
    8       -5.766798   1.000000
    9       -2.810522   1.000000
   10       -1.690234   1.000000
   11       -0.916737   1.000000
   12        0.162041   1.000000
   13        2.304068   1.000000
   14        3.558860   0.156468
   15        4.473996   0.000000
   16        5.195630   0.000000
   17        6.275617   0.000000
   18        7.990877   0.000000
   19        8.272811   0.000000
   20        8.574121   0.000000
 
  0.4615385E+00  0.1428571E+00  0.3885781E-15  0.1831502E-02
    1      -31.537689   1.000000
    2      -28.160749   1.000000
    3      -28.059625   1.000000
    4      -28.000266   1.000000
    5      -14.471585   1.000000
    6      -13.746861   1.000000
    7      -13.600043   1.000000
    8       -5.585310   1.000000
    9       -2.466843   1.000000
   10       -1.576586   1.000000
   11       -1.198014   1.000000
   12        0.090302   1.000000
   13        2.009188   1.000000
   14        3.380333   1.016642
   15        5.031138   0.000000
   16        5.332574   0.000000
   17        6.273495   0.000000
   18        7.643005   0.000000
   19        8.261151   0.000000
   20        8.604597   0.000000
 
 -0.4615385E+00  0.1428571E+00  0.3469447E-15  0.1831502E-02
    1      -31.526472   1.000000
    2      -28.174849   1.000000
    3      -28.065989   1.000000
    4      -27.998272   1.000000
    5      -14.551508   1.000000
    6      -13.784878   1.000000
    7      -13.575440   1.000000
    8       -5.512645   1.000000
    9       -2.250918   1.000000
   10       -1.566476   1.000000
   11       -1.208616   1.000000
   12       -0.026747   1.000000
   13        1.915924   1.000000
   14        3.281063   0.997387
   15        5.251230   0.000000
   16        5.474569   0.000000
   17        6.248913   0.000000
   18        7.416654   0.000000
   19        8.124488   0.000000
   20        8.584190   0.000000
 
 -0.3846154E+00  0.1428571E+00  0.3747003E-15  0.1831502E-02
    1      -31.527582   1.000000
    2      -28.173456   1.000000
    3      -28.065309   1.000000
    4      -27.998496   1.000000
    5      -14.543902   1.000000
    6      -13.782309   1.000000
    7      -13.577701   1.000000
    8       -5.531050   1.000000
    9       -2.206421   1.000000
   10       -1.556343   1.000000
   11       -1.201278   1.000000
   12       -0.134558   1.000000
   13        2.014764   1.000000
   14        3.268198   0.998217
   15        5.201763   0.000000
   16        5.472291   0.000000
   17        6.318324   0.000000
   18        7.305155   0.000000
   19        8.060336   0.000000
   20        8.545794   0.000000
 
 -0.3076923E+00  0.1428571E+00  0.3608225E-15  0.1831502E-02
    1      -31.540755   1.000000
    2      -28.157133   1.000000
    3      -28.057630   1.000000
    4      -28.000913   1.000000
    5      -14.450292   1.000000
    6      -13.739367   1.000000
    7      -13.606445   1.000000
    8       -5.634616   1.000000
    9       -2.390256   1.000000
   10       -1.615485   1.000000
   11       -1.104813   1.000000
   12       -0.127316   1.000000
   13        2.231003   1.000000
   14        3.358026   1.002067
   15        4.944922   0.000000
   16        5.336646   0.000000
   17        6.300275   0.000000
   18        7.398850   0.000000
   19        8.120562   0.000000
   20        8.589198   0.000000
 
 -0.2307692E+00  0.1428571E+00  0.3330669E-15  0.1831502E-02
    1      -31.562872   1.000000
    2      -28.129500   1.000000
    3      -28.044531   1.000000
    4      -28.005022   1.000000
    5      -14.287090   1.000000
    6      -13.679747   1.000000
    7      -13.639091   1.000000
    8       -5.823627   1.000000
    9       -2.804227   1.000000
   10       -1.697965   1.000000
   11       -0.798237   1.000000
   12        0.012291   1.000000
   13        2.501873   1.000000
   14        3.552208   0.211032
   15        4.396268   0.000000
   16        5.230309   0.000000
   17        6.179407   0.000000
   18        7.656640   0.000000
   19        8.122437   0.000000
   20        8.745777   0.000000
 
 -0.1538462E+00  0.1428571E+00  0.3885781E-15  0.1831502E-02
    1      -31.588725   1.000000
    2      -28.096319   1.000000
    3      -28.029166   1.000000
    4      -28.009737   1.000000
    5      -14.085031   1.000000
    6      -13.714558   1.000000
    7      -13.567482   1.000000
    8       -6.085675   1.000000
    9       -3.275750   1.000000
   10       -1.730003   1.000000
   11       -0.338320   1.000000
   12        0.245369   1.000000
   13        2.808721   1.000000
   14        3.712325   0.004329
   15        3.947415   0.000000
   16        4.945372   0.000000
   17        6.334083   0.000000
   18        7.339567   0.000000
   19        7.739839   0.000000
   20        8.676845   0.000000
 
 -0.7692308E-01  0.1428571E+00  0.4163336E-15  0.1831502E-02
    1      -31.612400   1.000000
    2      -28.064722   1.000000
    3      -28.015943   1.000000
    4      -28.014192   1.000000
    5      -13.905625   1.000000
    6      -13.735794   1.000000
    7      -13.490867   1.000000
    8       -6.367522   1.000000
    9       -3.674241   1.000000
   10       -1.706765   1.000000
   11        0.127183   1.000000
   12        0.575280   1.000000
   13        3.134819   0.999998
   14        3.379157   1.015663
   15        4.088060   0.000000
   16        4.680642   0.000000
   17        6.270426   0.000000
   18        6.827346   0.000000
   19        7.205861   0.000000
   20        8.648443   0.000000
 
  0.3668940E-15  0.2142857E+00  0.4163336E-15  0.1831502E-02
    1      -31.605065   1.000000
    2      -28.078319   1.000000
    3      -28.016506   1.000000
    4      -28.012564   1.000000
    5      -13.976252   1.000000
    6      -13.740839   1.000000
    7      -13.491504   1.000000
    8       -6.233902   1.000000
    9       -3.634778   1.000000
   10       -1.669713   1.000000
   11       -0.044587   1.000000
   12        0.457773   1.000000
   13        2.847501   1.000000
   14        3.477146   0.914392
   15        4.149880   0.000000
   16        4.723973   0.000000
   17        6.632327   0.000000
   18        7.076821   0.000000
   19        7.454763   0.000000
   20        8.419277   0.000000
 
  0.7692308E-01  0.2142857E+00  0.4163336E-15  0.1831502E-02
    1      -31.614136   1.000000
    2      -28.061705   1.000000
    3      -28.016053   1.000000
    4      -28.014007   1.000000
    5      -13.894415   1.000000
    6      -13.735056   1.000000
    7      -13.487900   1.000000
    8       -6.351373   1.000000
    9       -3.762600   1.000000
   10       -1.629088   1.000000
   11        0.099148   1.000000
   12        0.579993   1.000000
   13        3.045929   1.000000
   14        3.338464   0.996279
   15        4.133372   0.000000
   16        4.760091   0.000000
   17        6.393955   0.000000
   18        6.809660   0.000000
   19        7.182311   0.000000
   20        8.507105   0.000000
 
  0.1538462E+00  0.2142857E+00  0.3885781E-15  0.1831502E-02
    1      -31.612702   1.000000
    2      -28.062144   1.000000
    3      -28.018262   1.000000
    4      -28.013883   1.000000
    5      -13.899363   1.000000
    6      -13.738142   1.000000
    7      -13.491957   1.000000
    8       -6.351959   1.000000
    9       -3.717818   1.000000
   10       -1.602506   1.000000
   11        0.023342   1.000000
   12        0.518419   1.000000
   13        3.060198   1.000000
   14        3.355215   1.000861
   15        4.142429   0.000000
   16        4.929020   0.000000
   17        6.354193   0.000000
   18        6.696515   0.000000
   19        7.098793   0.000000
   20        8.683668   0.000000
 
  0.2307692E+00  0.2142857E+00  0.4163336E-15  0.1831502E-02
    1      -31.601065   1.000000
    2      -28.080229   1.000000
    3      -28.022331   1.000000
    4      -28.011733   1.000000
    5      -13.996048   1.000000
    6      -13.738570   1.000000
    7      -13.506816   1.000000
    8       -6.231740   1.000000
    9       -3.509117   1.000000
   10       -1.610919   1.000000
   11       -0.183336   1.000000
   12        0.263785   1.000000
   13        2.909558   1.000000
   14        3.536465   0.360051
   15        4.124266   0.000000
   16        5.100283   0.000000
   17        6.356073   0.000000
   18        6.906473   0.000000
   19        7.288004   0.000000
   20        8.951472   0.000000
 
  0.3076923E+00  0.2142857E+00  0.3608225E-15  0.1831502E-02
    1      -31.581820   1.000000
    2      -28.105796   1.000000
    3      -28.033201   1.000000
    4      -28.008194   1.000000
    5      -14.147797   1.000000
    6      -13.706534   1.000000
    7      -13.570719   1.000000
    8       -6.022414   1.000000
    9       -3.167443   1.000000
   10       -1.634578   1.000000
   11       -0.507632   1.000000
   12        0.016936   1.000000
   13        2.685407   1.000000
   14        3.801726   0.000751
   15        4.010162   0.000000
   16        5.253828   0.000000
   17        6.212550   0.000000
   18        7.325598   0.000000
   19        7.764276   0.000000
   20        8.849888   0.000000
 
  0.3846154E+00  0.2142857E+00  0.3885781E-15  0.1831502E-02
    1      -31.559284   1.000000
    2      -28.130550   1.000000
    3      -28.050410   1.000000
    4      -28.004176   1.000000
    5      -14.293430   1.000000
    6      -13.701818   1.000000
    7      -13.639821   1.000000
    8       -5.785961   1.000000
    9       -2.750907   1.000000
   10       -1.624662   1.000000
   11       -0.896051   1.000000
   12       -0.091349   1.000000
   13        2.433239   1.000000
   14        3.529573   0.431223
   15        4.438036   0.000000
   16        5.458546   0.000000
   17        6.029163   0.000000
   18        7.677486   0.000000
   19        8.094544   0.000000
   20        8.791002   0.000000
 
  0.4615385E+00  0.2142857E+00  0.4163336E-15  0.1831502E-02
    1      -31.538598   1.000000
    2      -28.148981   1.000000
    3      -28.069741   1.000000
    4      -28.000364   1.000000
    5      -14.399969   1.000000
    6      -13.818475   1.000000
    7      -13.603138   1.000000
    8       -5.586328   1.000000
    9       -2.346373   1.000000
   10       -1.549379   1.000000
   11       -1.212320   1.000000
   12       -0.114629   1.000000
   13        2.204224   1.000000
   14        3.212108   0.999823
   15        4.991412   0.000000
   16        5.607038   0.000000
   17        5.939558   0.000000
   18        7.720800   0.000000
   19        7.954360   0.000000
   20        8.603350   0.000000
 
 -0.4615385E+00  0.2142857E+00  0.5273559E-15  0.1831502E-02
    1      -31.524613   1.000000
    2      -28.159403   1.000000
    3      -28.085080   1.000000
    4      -27.997914   1.000000
    5      -14.458584   1.000000
    6      -13.916084   1.000000
    7      -13.571887   1.000000
    8       -5.472668   1.000000
    9       -2.056143   1.000000
   10       -1.537252   1.000000
   11       -1.292761   1.000000
   12       -0.145913   1.000000
   13        2.081508   1.000000
   14        3.003821   1.000000
   15        5.401167   0.000000
   16        5.509787   0.000000
   17        6.048572   0.000000
   18        7.464769   0.000000
   19        7.854621   0.000000
   20        8.617332   0.000000
 
 -0.3846154E+00  0.2142857E+00  0.3608225E-15  0.1831502E-02
    1      -31.520592   1.000000
    2      -28.162029   1.000000
    3      -28.089885   1.000000