       N       E                     dE             d eps       ncg     rms          rms(c)
DAV:   1     0.221262311596E+03    0.22126E+03   -0.13590E+04 18800   0.845E+02
DAV:   2    -0.428876061945E+02   -0.26415E+03   -0.25818E+03 22768   0.374E+02
DAV:   3    -0.575531803776E+02   -0.14666E+02   -0.14462E+02 31560   0.753E+01
DAV:   4    -0.581814997237E+02   -0.62832E+00   -0.62511E+00 30960   0.115E+01
DAV:   5    -0.581932900260E+02   -0.11790E-01   -0.11772E-01 30828   0.145E+00    0.432E+01
DAV:   6    -0.542619706839E+02    0.39313E+01   -0.13636E+01 29048   0.240E+01    0.163E+01
DAV:   7    -0.538886495019E+02    0.37332E+00   -0.19725E+00 26288   0.849E+00    0.778E+00
DAV:   8    -0.539260276652E+02   -0.37378E-01   -0.17893E+00 34000   0.856E+00    0.391E+00
DAV:   9    -0.538454679849E+02    0.80560E-01   -0.64133E-01 27384   0.435E+00    0.214E+00
DAV:  10    -0.538412030171E+02    0.42650E-02   -0.42342E-02 26896   0.119E+00    0.726E-01
DAV:  11    -0.538411244249E+02    0.78592E-04   -0.67848E-03 25856   0.544E-01    0.142E-01
DAV:  12    -0.538409166836E+02    0.20774E-03   -0.17029E-03 26976   0.286E-01    0.754E-02
DAV:  13    -0.538409167433E+02   -0.59737E-07   -0.17440E-04 14764   0.100E-01
   1 F= -.53840917E+02 E0= -.53841055E+02  d E =-.538409E+02
       N       E                     dE             d eps       ncg     rms          rms(c)
DAV:   1    -0.538409145920E+02    0.20916E-05   -0.64102E-02 22696   0.237E+00    0.257E-01
DAV:   2    -0.538414385794E+02   -0.52399E-03   -0.10574E-02 20796   0.687E-01    0.787E-02
DAV:   3    -0.538413968853E+02    0.41694E-04   -0.53018E-04 23592   0.184E-01
   2 F= -.53841397E+02 E0= -.53841522E+02  d E =-.480142E-03
       N       E                     dE             d eps       ncg     rms          rms(c)
DAV:   1    -0.538413240500E+02    0.11453E-03   -0.10430E-02 22792   0.963E-01    0.104E-01
DAV:   2    -0.538413795633E+02   -0.55513E-04   -0.17066E-03 20944   0.277E-01    0.455E-02
DAV:   3    -0.538413670243E+02    0.12539E-04   -0.14094E-04 15400   0.103E-01
   3 F= -.53841367E+02 E0= -.53841494E+02  d E =-.450281E-03
