unknown system                          
           1
     3.558578   -0.153091    0.182552
     0.018085    4.943312    0.134005
     0.709746    0.715133    7.669137
   Sr   Nb   H 
   1   2  14
Direct configuration=     1
   0.65949900  0.23597300  0.66179800
   0.31198700  0.61326600  0.27109200
   0.02396900  0.69870400  0.92301900
   0.14785600  0.41557100  0.09397500
   0.72151400  0.40115300  0.95357300
   0.56354300  0.78777000  0.05330400
   0.23654400  0.31655000  0.45038400
   0.58094900  0.74851300  0.45718400
   0.04103200  0.84066800  0.38613400
   0.35715800  0.72384400  0.50633100
   0.13989400  0.90649500  0.70788600
   0.14002500  0.49429500  0.74205700
   0.44734900  0.96160100  0.25892100
   0.90879400  0.04560100  0.92707500
   0.06357000  0.86672800  0.13585100
   0.60134000  0.73402500  0.80186600
   0.80010400  0.46017200  0.31759600
unknown system                          
           1
     3.592364   -0.154995    0.184221
     0.017383    4.987534    0.137806
     0.716367    0.725310    7.742641
   Sr   Nb   H 
   1   2  14
Direct configuration=     2
   0.65946644  0.23611678  0.66204701
   0.31097556  0.61424059  0.27068251
   0.02275354  0.69887307  0.92296102
   0.14783858  0.41593755  0.09410926
   0.72207860  0.40190411  0.95357534
   0.56358564  0.78756846  0.05338637
   0.23645552  0.31671698  0.45047524
   0.58008768  0.74854273  0.45722350
   0.04160372  0.84001890  0.38587938
   0.35798623  0.72402444  0.50610826
   0.13984849  0.90637290  0.70807776
   0.13998166  0.49449621  0.74228040
   0.44693094  0.96059711  0.25883512
   0.90944777  0.04491597  0.92692888
   0.06398836  0.86619485  0.13584902
   0.60169809  0.73416650  0.80201069
   0.80040018  0.46024184  0.31761624
unknown system                          
           1
     3.642955   -0.157845    0.186721
     0.016331    5.053750    0.143497
     0.726281    0.740548    7.852703
   Sr   Nb   H 
   1   2  14
Direct configuration=     3
   0.65941823  0.23632993  0.66241625
   0.30947571  0.61568733  0.27007465
   0.02095074  0.69912389  0.92287493
   0.14781291  0.41648143  0.09430821
   0.72291641  0.40301896  0.95357842
   0.56364880  0.78726926  0.05350864
   0.23632437  0.31696471  0.45061049
   0.57881012  0.74858670  0.45728206
   0.04245142  0.83905585  0.38550208
   0.35921479  0.72429258  0.50577782
   0.13978095  0.90619149  0.70836222
   0.13991749  0.49479463  0.74261164
   0.44631037  0.95910720  0.25870826
   0.91041717  0.04389950  0.92671251
   0.06460866  0.86540361  0.13584637
   0.60222932  0.73437641  0.80222521
   0.80083954  0.46034552  0.31764622
unknown system                          
           1
     3.668970   -0.160149    0.183792
     0.014091    5.085025    0.151297
     0.723627    0.755981    7.886390
   Sr   Nb   H 
   1   2  14
Direct configuration=     4
   0.65972145  0.23684290  0.66353641
   0.30676185  0.61722460  0.27058232
   0.01745247  0.69964995  0.92271682
   0.14788735  0.42108553  0.09437964
   0.72612100  0.40702125  0.95315471
   0.56445359  0.78516382  0.05409420
   0.23652961  0.32004269  0.44973244
   0.57314664  0.74771805  0.45736561
   0.04495053  0.83602276  0.38395868
   0.36425594  0.72460382  0.50362188
   0.13893899  0.90501778  0.71042086
   0.13852049  0.49623949  0.74445170
   0.44418775  0.95470281  0.25833940
   0.91165373  0.03982292  0.92607761
   0.06593676  0.86217125  0.13490192
   0.60365948  0.73456306  0.80366250
   0.80094935  0.46303632  0.31704929
unknown system                          
           1
     3.670196   -0.160258    0.183654
     0.013985    5.086500    0.151665
     0.723502    0.756708    7.887979
   Sr   Nb   H 
   1   2  14
Direct configuration=     5
   0.65973575  0.23686683  0.66358900
   0.30663489  0.61729658  0.27060603
   0.01728870  0.69967461  0.92270929
   0.14789102  0.42130134  0.09438281
   0.72627115  0.40720892  0.95313472
   0.56449124  0.78506507  0.05412180
   0.23653927  0.32018707  0.44969108
   0.57288146  0.74767728  0.45736942
   0.04506730  0.83588077  0.38388639
   0.36449181  0.72461869  0.50352076
   0.13889968  0.90496253  0.71051756
   0.13845527  0.49630700  0.74453801
   0.44408818  0.95449638  0.25832221
   0.91171142  0.03963191  0.92604800
   0.06599875  0.86201984  0.13485774
   0.60372655  0.73457166  0.80373002
   0.80095454  0.46316252  0.31702115
unknown system                          
           1
     3.674547   -0.161536    0.176887
     0.012162    5.099773    0.159028
     0.711359    0.770590    7.863982
   Sr   Nb   H 
   1   2  14
Direct configuration=     6
   0.65989512  0.23748525  0.66490268
   0.30620323  0.61512244  0.26965944
   0.01746538  0.70006436  0.92355265
   0.14793929  0.42657141  0.09450751
   0.72831533  0.41055137  0.95269711
   0.56511406  0.78242608  0.05502643
   0.23659180  0.32366325  0.44894765
   0.57381047  0.74747284  0.45593686
   0.04621201  0.83374270  0.38260694
   0.36287255  0.72411753  0.50297179
   0.13806770  0.90405135  0.71248782
   0.13677639  0.49771876  0.74644888
   0.44216303  0.95116825  0.25788910
   0.91192140  0.03632923  0.92527969
   0.06697970  0.85881909  0.13360958
   0.60436058  0.73484279  0.80519835
   0.80043895  0.46678230  0.31632351
unknown system                          
           1
     3.678589   -0.162723    0.170602
     0.010469    5.112101    0.165866
     0.700081    0.783484    7.841692
   Sr   Nb   H 
   1   2  14
Direct configuration=     7
   0.66004666  0.23805450  0.66612623
   0.30579906  0.61311064  0.26877898
   0.01763164  0.70042307  0.92433821
   0.14798771  0.43145415  0.09461933
   0.73021248  0.41364978  0.95228829
   0.56569241  0.77997831  0.05587198
   0.23664084  0.32688632  0.44825215
   0.57466845  0.74728759  0.45460311
   0.04726923  0.83176538  0.38141764
   0.36136885  0.72365465  0.50245940
   0.13730037  0.90320135  0.71432355
   0.13522480  0.49902124  0.74822662
   0.44037410  0.94808561  0.25748678
   0.91211216  0.03327129  0.92456681
   0.06788444  0.85585702  0.13245020
   0.60495258  0.73508983  0.80656666
   0.79996121  0.47013827  0.31567008
unknown system                          
           1
     3.672250   -0.162541    0.168523
     0.011795    5.143215    0.170003
     0.695533    0.795163    7.830169
   Sr   Nb   H 
   1   2  14
Direct configuration=     8
   0.65948654  0.23899340  0.66738163
   0.30836910  0.61320504  0.26957474
   0.01984762  0.70033554  0.92461447
   0.14780004  0.43335826  0.09437004
   0.72948385  0.41419817  0.95226614
   0.56696494  0.77760939  0.05640459
   0.23598535  0.32794284  0.44896530
   0.57430852  0.74693646  0.45351632
   0.04767546  0.83005079  0.38031751
   0.36114935  0.72294994  0.50164630
   0.13761027  0.90379295  0.71468073
   0.13463790  0.49941848  0.74932796
   0.43920250  0.94582135  0.25681082
   0.91085604  0.03338657  0.92405118
   0.06851475  0.85433756  0.13159604
   0.60439768  0.73566757  0.80751740
   0.79883710  0.47292470  0.31500483
unknown system                          
           1
     3.665011   -0.162332    0.166148
     0.013310    5.178745    0.174728
     0.690338    0.808500    7.817009
   Sr   Nb   H 
   1   2  14
Direct configuration=     9
   0.65884691  0.24005565  0.66881688
   0.31130985  0.61330990  0.27048548
   0.02238283  0.70023535  0.92493106
   0.14758450  0.43552041  0.09408403
   0.72865016  0.41482074  0.95224037
   0.56842191  0.77491882  0.05701513
   0.23523600  0.32914013  0.44978028
   0.57389572  0.74654097  0.45227342
   0.04813946  0.82810758  0.37906016
   0.36089757  0.72215229  0.50071661
   0.13796497  0.90446347  0.71508906
   0.13396762  0.49986630  0.75058724
   0.43786225  0.94325303  0.25603843
   0.90941854  0.03351890  0.92346107
   0.06923529  0.85261516  0.13061998
   0.60376378  0.73632071  0.80860436
   0.79754963  0.47608959  0.31424244
unknown system                          
           1
     3.657923   -0.161682    0.165779
     0.015153    5.205108    0.179146
     0.688767    0.819478    7.818724
   Sr   Nb   H 
   1   2  14
Direct configuration=    10
   0.65829679  0.24071042  0.66974333
   0.31124599  0.61327356  0.27038069
   0.02184902  0.70071484  0.92477711
   0.14778648  0.43593734  0.09410884
   0.72849184  0.41524189  0.95230259
   0.56963904  0.77341840  0.05729307
   0.23482454  0.32941865  0.45063862
   0.57402750  0.74642888  0.45162511
   0.04830214  0.82724359  0.37850951
   0.36054570  0.72163421  0.50031550
   0.13858610  0.90512031  0.71489490
   0.13410072  0.49986858  0.75103643
   0.43764963  0.94231912  0.25563559
   0.90888028  0.03333656  0.92329366
   0.07017551  0.85182984  0.13044397
   0.60336932  0.73679217  0.80912806
   0.79735640  0.47764064  0.31391900
unknown system                          
           1
     3.642329   -0.160252    0.164966
     0.019207    5.263109    0.188868
     0.685310    0.843629    7.822499
   Sr   Nb   H 
   1   2  14
Direct configuration=    11
   0.65708448  0.24213969  0.67178064
   0.31110516  0.61319447  0.27015021
   0.02067170  0.70176528  0.92443799
   0.14823139  0.43684992  0.09416301
   0.72814255  0.41616357  0.95243905
   0.57232370  0.77013235  0.05790596
   0.23391815  0.33002452  0.45252649
   0.57431743  0.74618643  0.45019910
   0.04866093  0.82535467  0.37729907
   0.35977007  0.72050194  0.49943364
   0.13995455  0.90655902  0.71446717
   0.13439460  0.49987151  0.75202453
   0.43718134  0.94027651  0.25475036
   0.90769370  0.03293822  0.92292559
   0.07224864  0.85011135  0.13005757
   0.60249988  0.73782195  0.81027961
   0.79692872  0.48103761  0.31320600
unknown system                          
           1
     3.642300   -0.160708    0.166855
     0.018466    5.262183    0.191928
     0.688913    0.847512    7.833852
   Sr   Nb   H 
   1   2  14
Direct configuration=    12
   0.65673183  0.24228370  0.67206002
   0.30936864  0.61332546  0.26992939
   0.01980924  0.70163223  0.92418103
   0.14838666  0.43631116  0.09423032
   0.72885129  0.41696929  0.95248230
   0.57246453  0.77015608  0.05791112
   0.23389595  0.33000278  0.45277367
   0.57451173  0.74623092  0.45027846
   0.04830797  0.82553608  0.37740885
   0.35972431  0.72036381  0.49945723
   0.14028090  0.90675590  0.71396661
   0.13486985  0.49998856  0.75186989
   0.43767146  0.94015362  0.25472449
   0.90805870  0.03206387  0.92316656
   0.07277658  0.85032247  0.13023117
   0.60181226  0.73817248  0.81001065
   0.79760511  0.48066059  0.31336425
unknown system                          
           1
     3.642247   -0.161547    0.170330
     0.017103    5.260480    0.197556
     0.695539    0.854652    7.854732
   Sr   Nb   H 
   1   2  14
Direct configuration=    13
   0.65608297  0.24254826  0.67257313
   0.30617527  0.61356623  0.26952456
   0.01822329  0.70138753  0.92370962
   0.14867186  0.43532005  0.09435426
   0.73015514  0.41845156  0.95256081
   0.57272354  0.77019976  0.05792051
   0.23385479  0.32996253  0.45322764
   0.57486899  0.74631275  0.45042407
   0.04765877  0.82586960  0.37761049
   0.35964004  0.72010969  0.49950068
   0.14088187  0.90711864  0.71304705
   0.13574417  0.50020415  0.75158559
   0.43857283  0.93992770  0.25467684
   0.90872923  0.03045533  0.92360956
   0.07374740  0.85071078  0.13054958
   0.60054816  0.73881740  0.80951677
   0.79884868  0.47996705  0.31365483
unknown system                          
           1
     3.643932   -0.162490    0.173591
     0.015685    5.259972    0.202235
     0.702291    0.860821    7.868736
   Sr   Nb   H 
   1   2  14
Direct configuration=    14
   0.65544877  0.24283913  0.67309788
   0.30649134  0.61314448  0.26984738
   0.01935266  0.70189665  0.92350000
   0.14860265  0.43461273  0.09436255
   0.73034013  0.41914092  0.95268420
   0.57265264  0.77010076  0.05803956
   0.23350777  0.33004607  0.45361267
   0.57451621  0.74621951  0.45046303
   0.04657430  0.82624874  0.37769232
   0.35995574  0.71985014  0.49932980
   0.14118340  0.90733864  0.71233805
   0.13628658  0.50052041  0.75141410
   0.43915869  0.93957451  0.25447002
   0.90897535  0.02931079  0.92391411
   0.07408328  0.85124302  0.13031053
   0.59912000  0.73947503  0.80908983
   0.79887747  0.47936747  0.31387998
unknown system                          
           1
     3.645377   -0.163298    0.176385
     0.014470    5.259537    0.206244
     0.708077    0.866106    7.880735
   Sr   Nb   H 
   1   2  14
Direct configuration=    15
   0.65490502  0.24308785  0.67354680
   0.30676146  0.61278285  0.27012361
   0.02032046  0.70233336  0.92332003
   0.14854305  0.43400653  0.09437004
   0.73049872  0.41973164  0.95278931
   0.57259172  0.77001582  0.05814147
   0.23321009  0.33011729  0.45394208
   0.57421397  0.74613950  0.45049653
   0.04564553  0.82657339  0.37776249
   0.36022625  0.71962790  0.49918367
   0.14144268  0.90752781  0.71173138
   0.13675151  0.50079169  0.75126706
   0.43966059  0.93927211  0.25429309
   0.90918525  0.02832972  0.92417511
   0.07437150  0.85169941  0.13010566
   0.59789763  0.74003869  0.80872482
   0.79890157  0.47885345  0.31407286
