       N       E                     dE             d eps       ncg     rms          rms(c)
DAV:   1     0.236443246484E+03    0.23644E+03   -0.21013E+04  7296   0.876E+02
DAV:   2    -0.477477801674E+02   -0.28419E+03   -0.27025E+03  7696   0.247E+02
DAV:   3    -0.664383717970E+02   -0.18691E+02   -0.18505E+02 12640   0.571E+01
DAV:   4    -0.670161332465E+02   -0.57776E+00   -0.57615E+00  9184   0.724E+00
DAV:   5    -0.670350229213E+02   -0.18890E-01   -0.18903E-01 11328   0.114E+00    0.411E+01
RMM:   6    -0.685561865006E+02   -0.15212E+01   -0.75531E+00  7757   0.835E+00    0.214E+01
RMM:   7    -0.685684751483E+02   -0.12289E-01   -0.25231E+00  8069   0.726E+00    0.982E+00
RMM:   8    -0.686937345323E+02   -0.12526E+00   -0.43471E-01  7893   0.386E+00    0.425E+00
RMM:   9    -0.687343958927E+02   -0.40661E-01   -0.10057E-01  7843   0.144E+00    0.206E+00
RMM:  10    -0.687499588170E+02   -0.15563E-01   -0.28310E-02  7516   0.108E+00    0.982E-01
RMM:  11    -0.687528826228E+02   -0.29238E-02   -0.77819E-03  6924   0.457E-01    0.391E-01
RMM:  12    -0.687533942136E+02   -0.51159E-03   -0.16961E-03  6063   0.304E-01
   1 F= -.68753394E+02 E0= -.68753394E+02  d E =-.687534E+02  mag=     0.0129
       N       E                     dE             d eps       ncg     rms          rms(c)
DAV:   1    -0.690359752369E+02   -0.28309E+00   -0.40103E+00 10208   0.947E+00    0.464E+00
RMM:   2    -0.688842776193E+02    0.15170E+00   -0.44109E-01  8267   0.281E+00    0.114E+00
RMM:   3    -0.688534241591E+02    0.30853E-01   -0.49215E-02  8173   0.144E+00    0.983E-01
RMM:   4    -0.688466230366E+02    0.68011E-02   -0.18067E-02  7400   0.631E-01    0.940E-01
RMM:   5    -0.688468082416E+02   -0.18521E-03   -0.53879E-03  7036   0.569E-01
   2 F= -.68846808E+02 E0= -.68846808E+02  d E =-.934140E-01  mag=     0.0006
       N       E                     dE             d eps       ncg     rms          rms(c)
DAV:   1    -0.705871898377E+02   -0.17406E+01   -0.34966E+01  9296   0.278E+01    0.140E+01
RMM:   2    -0.692534993721E+02    0.13337E+01   -0.39607E+00  8122   0.828E+00    0.362E+00
RMM:   3    -0.689202307376E+02    0.33327E+00   -0.46164E-01  7961   0.458E+00    0.321E+00
RMM:   4    -0.688663485050E+02    0.53882E-01   -0.15017E-01  8258   0.182E+00    0.363E+00
RMM:   5    -0.688705637110E+02   -0.42152E-02   -0.55131E-02  8761   0.158E+00    0.934E-01
RMM:   6    -0.688574843075E+02    0.13079E-01   -0.92226E-02  9191   0.972E-01    0.769E-01
RMM:   7    -0.688598874267E+02   -0.24031E-02   -0.23795E-02  8696   0.766E-01    0.486E-01
RMM:   8    -0.688607709506E+02   -0.88352E-03   -0.63977E-03  7624   0.226E-01
   3 F= -.68860771E+02 E0= -.68860771E+02  d E =-.107377E+00  mag=     0.0001
       N       E                     dE             d eps       ncg     rms          rms(c)
DAV:   1    -0.691362661292E+02   -0.27638E+00   -0.46833E+00 10560   0.977E+00    0.475E+00
RMM:   2    -0.689482525489E+02    0.18801E+00   -0.49674E-01  8239   0.301E+00    0.128E+00
RMM:   3    -0.689082847939E+02    0.39968E-01   -0.56010E-02  8321   0.144E+00    0.955E-01
RMM:   4    -0.688973405167E+02    0.10944E-01   -0.29814E-02  7924   0.724E-01    0.819E-01
RMM:   5    -0.688982795970E+02   -0.93908E-03   -0.74667E-03  7655   0.608E-01
   4 F= -.68898280E+02 E0= -.68898280E+02  d E =-.144885E+00  mag=     0.0000
       N       E                     dE             d eps       ncg     rms          rms(c)
DAV:   1    -0.692206375224E+02   -0.32330E+00   -0.71015E+00  7328   0.123E+01    0.603E+00
RMM:   2    -0.689382548124E+02    0.28238E+00   -0.70306E-01  8218   0.367E+00    0.148E+00
RMM:   3    -0.688870597694E+02    0.51195E-01   -0.89817E-02  8124   0.185E+00    0.995E-01
RMM:   4    -0.688750512251E+02    0.12009E-01   -0.40635E-02  7968   0.880E-01    0.937E-01
RMM:   5    -0.688769937403E+02   -0.19425E-02   -0.10151E-02  7754   0.762E-01    0.480E-01
RMM:   6    -0.688776050285E+02   -0.61129E-03   -0.10632E-02  7853   0.299E-01    0.230E-01
RMM:   7    -0.688776269538E+02   -0.21925E-04   -0.22245E-03  6173   0.212E-01
   5 F= -.68877627E+02 E0= -.68877627E+02  d E =-.124233E+00  mag=    -0.0000
       N       E                     dE             d eps       ncg     rms          rms(c)
DAV:   1    -0.689946272964E+02   -0.11702E+00   -0.20308E+00 10240   0.660E+00    0.317E+00
RMM:   2    -0.689186337184E+02    0.75994E-01   -0.22068E-01  8314   0.199E+00    0.821E-01
RMM:   3    -0.689025421357E+02    0.16092E-01   -0.24638E-02  8052   0.966E-01    0.633E-01
RMM:   4    -0.688984070503E+02    0.41351E-02   -0.99978E-03  7038   0.481E-01    0.595E-01
RMM:   5    -0.688984894567E+02   -0.82406E-04   -0.27995E-03  6622   0.409E-01
   6 F= -.68898489E+02 E0= -.68898489E+02  d E =-.145095E+00  mag=     0.0000
       N       E                     dE             d eps       ncg     rms          rms(c)
DAV:   1    -0.689678991038E+02   -0.69492E-01   -0.24123E+00  7296   0.674E+00    0.197E+00
RMM:   2    -0.689267882932E+02    0.41111E-01   -0.15495E-01  7903   0.173E+00    0.720E-01
RMM:   3    -0.689195905336E+02    0.71978E-02   -0.14945E-02  7513   0.105E+00    0.533E-01
RMM:   4    -0.689181693513E+02    0.14212E-02   -0.64761E-03  7140   0.385E-01    0.474E-01
RMM:   5    -0.689184343297E+02   -0.26498E-03   -0.24114E-03  6470   0.385E-01
   7 F= -.68918434E+02 E0= -.68918434E+02  d E =-.199449E-01  mag=    -0.0000
       N       E                     dE             d eps       ncg     rms          rms(c)
DAV:   1    -0.689243918296E+02   -0.62225E-02   -0.18352E-01  9792   0.183E+00    0.484E-01
RMM:   2    -0.689217316885E+02    0.26601E-02   -0.13041E-02  7979   0.489E-01    0.202E-01
RMM:   3    -0.689212174148E+02    0.51427E-03   -0.92898E-04  4930   0.280E-01
   8 F= -.68921217E+02 E0= -.68921217E+02  d E =-.227280E-01  mag=    -0.0000
       N       E                     dE             d eps       ncg     rms          rms(c)
DAV:   1    -0.689648925201E+02   -0.43161E-01   -0.10893E+00  7424   0.446E+00    0.118E+00
RMM:   2    -0.689482779999E+02    0.16615E-01   -0.68885E-02  7929   0.118E+00    0.527E-01
RMM:   3    -0.689457400511E+02    0.25379E-02   -0.56514E-03  7089   0.669E-01    0.395E-01
RMM:   4    -0.689452151635E+02    0.52489E-03   -0.15986E-03  5933   0.236E-01
   9 F= -.68945215E+02 E0= -.68945215E+02  d E =-.239977E-01  mag=    -0.0000
       N       E                     dE             d eps       ncg     rms          rms(c)
DAV:   1    -0.690127432612E+02   -0.67003E-01   -0.32159E+00  7360   0.771E+00    0.190E+00
RMM:   2    -0.689594018345E+02    0.53341E-01   -0.20689E-01  7919   0.201E+00    0.104E+00
RMM:   3    -0.689513819704E+02    0.80199E-02   -0.17813E-02  7634   0.117E+00    0.862E-01
RMM:   4    -0.689495693577E+02    0.18126E-02   -0.51107E-03  6542   0.363E-01    0.680E-01
RMM:   5    -0.689494146900E+02    0.15467E-03   -0.27008E-03  6678   0.374E-01
  10 F= -.68949415E+02 E0= -.68949415E+02  d E =-.281973E-01  mag=    -0.0000
       N       E                     dE             d eps       ncg     rms          rms(c)
DAV:   1    -0.689582802946E+02   -0.87109E-02   -0.13408E+00  9456   0.635E+00    0.113E+00
RMM:   2    -0.689600599456E+02   -0.17797E-02   -0.10462E-01  7533   0.123E+00    0.864E-01
RMM:   3    -0.689571811712E+02    0.28788E-02   -0.99529E-03  7461   0.847E-01    0.333E-01
RMM:   4    -0.689573822425E+02   -0.20107E-03   -0.21042E-03  5935   0.218E-01
  11 F= -.68957382E+02 E0= -.68957382E+02  d E =-.796755E-02  mag=    -0.0000
       N       E                     dE             d eps       ncg     rms          rms(c)
DAV:   1    -0.689621573459E+02   -0.49762E-02   -0.17676E-01 10464   0.231E+00    0.533E-01
RMM:   2    -0.689623784971E+02   -0.22115E-03   -0.12139E-02  7383   0.422E-01    0.394E-01
RMM:   3    -0.689619303500E+02    0.44815E-03   -0.96359E-04  4369   0.263E-01
  12 F= -.68961930E+02 E0= -.68961930E+02  d E =-.125157E-01  mag=    -0.0000
