unknown system                          
           1
     4.539175   -0.175580    0.480990
    -0.246089    4.474409    0.349508
    -0.684818   -0.266093    5.904489
   H    Nb   H    Nb   H    Sr
   2   1   4   1   6   1
Direct configuration=     1
   0.17254534  0.68499668  0.08385112
   0.92126314  0.04232393  0.02924105
   0.31870242  0.08274799  0.97451390
   0.80639149  0.15014365  0.51365877
   0.81088390  0.17160981  0.38609091
   0.62342399  0.36608478  0.12688139
   0.59171410  0.84186403  0.13487028
   0.82769612  0.64831875  0.91569123
   0.82836511  0.62731314  0.61184250
   0.55431249  0.34547807  0.77492297
   0.24221739  0.11222926  0.27443951
   0.56563704  0.89040652  0.76824624
   0.08831484  0.36840345  0.81159018
   0.09781942  0.92044003  0.73393497
   0.32172820  0.57808190  0.45730098
unknown system                          
           1
     4.539399   -0.174292    0.483116
    -0.244965    4.470763    0.350985
    -0.682217   -0.264054    5.905755
   H    Nb   H    Nb   H    Sr
   2   1   4   1   6   1
Direct configuration=     2
   0.17232835  0.68488297  0.08380947
   0.92120217  0.04222598  0.02913467
   0.31842921  0.08304101  0.97455801
   0.80620408  0.15001829  0.51303626
   0.81060656  0.17156472  0.38660444
   0.62328840  0.36584855  0.12683626
   0.59173165  0.84183054  0.13489392
   0.82782410  0.64837472  0.91577298
   0.82854450  0.62744049  0.61197223
   0.55439990  0.34567681  0.77494973
   0.24214252  0.11221740  0.27440094
   0.56569624  0.89031236  0.76826349
   0.08867172  0.36837558  0.81162262
   0.09802193  0.92060916  0.73404764
   0.32192368  0.57802343  0.45717336
unknown system                          
           1
     4.539387   -0.174364    0.482998
    -0.245028    4.470966    0.350903
    -0.682361   -0.264167    5.905685
   H    Nb   H    Nb   H    Sr
   2   1   4   1   6   1
Direct configuration=     3
   0.17234038  0.68488928  0.08381177
   0.92120555  0.04223141  0.02914057
   0.31844437  0.08302473  0.97455557
   0.80621445  0.15002523  0.51307079
   0.81062196  0.17156723  0.38657594
   0.62329592  0.36586167  0.12683875
   0.59173068  0.84183240  0.13489261
   0.82781700  0.64837162  0.91576845
   0.82853456  0.62743343  0.61196504
   0.55439505  0.34566578  0.77494825
   0.24214668  0.11221806  0.27440307
   0.56569296  0.89031759  0.76826253
   0.08865192  0.36837714  0.81162083
   0.09801070  0.92059978  0.73404139
   0.32191284  0.57802668  0.45718044
