       N       E                     dE             d eps       ncg     rms          rms(c)
DAV:   1     0.175101692991E+03    0.17510E+03   -0.16701E+04  9792   0.707E+02
DAV:   2    -0.524713334706E+02   -0.22757E+03   -0.21300E+03 10352   0.207E+02
DAV:   3    -0.648957342242E+02   -0.12424E+02   -0.12302E+02 16720   0.482E+01
DAV:   4    -0.650435047025E+02   -0.14777E+00   -0.14762E+00 11776   0.358E+00
DAV:   5    -0.650460363815E+02   -0.25317E-02   -0.25315E-02 14880   0.449E-01    0.403E+01
RMM:   6    -0.687343476447E+02   -0.36883E+01   -0.35037E+00 10199   0.600E+00    0.214E+01
RMM:   7    -0.682189394013E+02    0.51541E+00   -0.18715E+00 10401   0.615E+00    0.837E+00
RMM:   8    -0.684471730566E+02   -0.22823E+00   -0.27905E-01 10037   0.310E+00    0.412E+00
RMM:   9    -0.684678926140E+02   -0.20720E-01   -0.53116E-02  9823   0.119E+00    0.179E+00
RMM:  10    -0.684746833854E+02   -0.67908E-02   -0.18015E-02  9644   0.813E-01    0.113E+00
RMM:  11    -0.684771373071E+02   -0.24539E-02   -0.47746E-03  9151   0.398E-01    0.417E-01
RMM:  12    -0.684776854913E+02   -0.54818E-03   -0.11078E-03  7817   0.245E-01
   1 F= -.68477685E+02 E0= -.68477685E+02  d E =-.684777E+02  mag=    -0.0006
       N       E                     dE             d eps       ncg     rms          rms(c)
DAV:   1    -0.687369558923E+02   -0.25982E+00   -0.27868E+00 14880   0.850E+00    0.515E+00
RMM:   2    -0.686085968151E+02    0.12836E+00   -0.27930E-01 10259   0.218E+00    0.100E+00
RMM:   3    -0.685863137271E+02    0.22283E-01   -0.23315E-02 10360   0.103E+00    0.823E-01
RMM:   4    -0.685820543715E+02    0.42594E-02   -0.73544E-03  9804   0.445E-01    0.795E-01
RMM:   5    -0.685818072992E+02    0.24707E-03   -0.49691E-03  9443   0.350E-01
   2 F= -.68581807E+02 E0= -.68581807E+02  d E =-.104122E+00  mag=    -0.0000
       N       E                     dE             d eps       ncg     rms          rms(c)
DAV:   1    -0.697553664867E+02   -0.11733E+01   -0.19223E+01 12960   0.222E+01    0.134E+01
RMM:   2    -0.688932747231E+02    0.86209E+00   -0.19739E+00 10126   0.577E+00    0.280E+00
RMM:   3    -0.686920839463E+02    0.20119E+00   -0.16528E-01 10218   0.273E+00    0.238E+00
RMM:   4    -0.686647823312E+02    0.27302E-01   -0.47560E-02 10829   0.104E+00    0.246E+00
RMM:   5    -0.686623284437E+02    0.24539E-02   -0.46714E-02 11387   0.978E-01    0.562E-01
RMM:   6    -0.686629469710E+02   -0.61853E-03   -0.20449E-02 11077   0.422E-01    0.184E-01
RMM:   7    -0.686637978594E+02   -0.85089E-03   -0.68542E-03  9857   0.315E-01
   3 F= -.68663798E+02 E0= -.68663798E+02  d E =-.186112E+00  mag=    -0.0000
       N       E                     dE             d eps       ncg     rms          rms(c)
DAV:   1    -0.687860091216E+02   -0.12306E+00   -0.31581E+00 13280   0.886E+00    0.287E+00
RMM:   2    -0.687184833336E+02    0.67526E-01   -0.21853E-01 10244   0.186E+00    0.871E-01
RMM:   3    -0.687060269210E+02    0.12456E-01   -0.17369E-02 10347   0.875E-01    0.628E-01
RMM:   4    -0.687053478073E+02    0.67911E-03   -0.79697E-03  9730   0.338E-01
   4 F= -.68705348E+02 E0= -.68705348E+02  d E =-.415499E-01  mag=    -0.0000
       N       E                     dE             d eps       ncg     rms          rms(c)
DAV:   1    -0.687112144738E+02   -0.51876E-02   -0.23859E-01 14688   0.248E+00    0.656E-01
RMM:   2    -0.687052410401E+02    0.59734E-02   -0.16738E-02 10264   0.517E-01    0.389E-01
RMM:   3    -0.687042596950E+02    0.98135E-03   -0.15579E-03  7927   0.254E-01    0.404E-01
RMM:   4    -0.687042690981E+02   -0.94031E-05   -0.10015E-03  5877   0.126E-01
   5 F= -.68704269E+02 E0= -.68704269E+02  d E =-.404712E-01  mag=    -0.0000
       N       E                     dE             d eps       ncg     rms          rms(c)
DAV:   1    -0.688082085487E+02   -0.10395E+00   -0.18570E+00  9936   0.575E+00    0.212E+00
RMM:   2    -0.687578135212E+02    0.50395E-01   -0.12133E-01 10276   0.166E+00    0.132E+00
RMM:   3    -0.687513741575E+02    0.64394E-02   -0.98724E-03  9886   0.634E-01    0.914E-01
RMM:   4    -0.687506516530E+02    0.72250E-03   -0.18871E-03  8274   0.259E-01
   6 F= -.68750652E+02 E0= -.68750652E+02  d E =-.463826E-01  mag=     0.0000
       N       E                     dE             d eps       ncg     rms          rms(c)
DAV:   1    -0.688903872777E+02   -0.13901E+00   -0.38211E+00 11264   0.826E+00    0.298E+00
RMM:   2    -0.687860285506E+02    0.10436E+00   -0.23805E-01 10245   0.222E+00    0.170E+00
RMM:   3    -0.687731148173E+02    0.12914E-01   -0.20530E-02 10075   0.990E-01    0.124E+00
RMM:   4    -0.687714440000E+02    0.16708E-02   -0.45033E-03  9116   0.356E-01    0.111E+00
RMM:   5    -0.687712087789E+02    0.23522E-03   -0.37266E-03  9239   0.299E-01
   7 F= -.68771209E+02 E0= -.68771209E+02  d E =-.669397E-01  mag=    -0.0000
       N       E                     dE             d eps       ncg     rms          rms(c)
DAV:   1    -0.687942022513E+02   -0.22758E-01   -0.17201E+00 13232   0.710E+00    0.712E-01
RMM:   2    -0.687917847722E+02    0.24175E-02   -0.10070E-01 10132   0.116E+00    0.399E-01
RMM:   3    -0.687899573393E+02    0.18274E-02   -0.44042E-03  9009   0.540E-01    0.648E-01
RMM:   4    -0.687899885185E+02   -0.31179E-04   -0.52229E-04  7610   0.132E-01
   8 F= -.68789989E+02 E0= -.68789989E+02  d E =-.187797E-01  mag=     0.0000
       N       E                     dE             d eps       ncg     rms          rms(c)
DAV:   1    -0.687913893349E+02   -0.14320E-02   -0.36920E-02 16224   0.104E+00    0.513E-01
RMM:   2    -0.687906763125E+02    0.71302E-03   -0.28706E-03  9007   0.198E-01
   9 F= -.68790676E+02 E0= -.68790676E+02  d E =-.194675E-01  mag=    -0.0000
       N       E                     dE             d eps       ncg     rms          rms(c)
DAV:   1    -0.688044317990E+02   -0.13042E-01   -0.27604E-01 10368   0.233E+00    0.345E-01
RMM:   2    -0.688044656745E+02   -0.33875E-04   -0.13085E-02  9786   0.443E-01    0.198E-01
RMM:   3    -0.688041601401E+02    0.30553E-03   -0.92380E-04  5787   0.326E-01
  10 F= -.68804160E+02 E0= -.68804160E+02  d E =-.134838E-01  mag=     0.0000
       N       E                     dE             d eps       ncg     rms          rms(c)
DAV:   1    -0.688286008632E+02   -0.24135E-01   -0.24911E+00 10304   0.702E+00    0.984E-01
RMM:   2    -0.688288414664E+02   -0.24060E-03   -0.12422E-01 10083   0.138E+00    0.657E-01
RMM:   3    -0.688262364795E+02    0.26050E-02   -0.93591E-03  9675   0.918E-01    0.576E-01
RMM:   4    -0.688257587130E+02    0.47777E-03   -0.25340E-03  9011   0.227E-01
  11 F= -.68825759E+02 E0= -.68825759E+02  d E =-.350824E-01  mag=    -0.0000
       N       E                     dE             d eps       ncg     rms          rms(c)
DAV:   1    -0.688284562087E+02   -0.22197E-02   -0.56727E-01 14304   0.414E+00    0.313E-01
RMM:   2    -0.688312960375E+02   -0.28398E-02   -0.34726E-02  9780   0.649E-01    0.212E-01
RMM:   3    -0.688304113584E+02    0.88468E-03   -0.66888E-04  7178   0.184E-01
  12 F= -.68830411E+02 E0= -.68830411E+02  d E =-.465265E-02  mag=     0.0000
       N       E                     dE             d eps       ncg     rms          rms(c)
DAV:   1    -0.688306839500E+02    0.61209E-03   -0.19822E-02 14432   0.774E-01    0.522E-02
RMM:   2    -0.688307439256E+02   -0.59976E-04   -0.88012E-04  5623   0.115E-01
  13 F= -.68830744E+02 E0= -.68830744E+02  d E =-.498521E-02  mag=     0.0000
