   22   22   60    1
  0.7593495E+01  0.5753492E-09  0.5664822E-09  0.5592891E-09  0.5000000E-15
  1.000000000000000E-004
  CAR 
 unknown system                          
     41    197     32
 
  0.3742002E-15  0.3742002E-15  0.3742002E-15  0.2551020E-02
    1      -34.790179   1.000000
    2      -30.230868   1.000000
    3      -30.175173   1.000000
    4      -30.043376   1.000000
    5      -16.981079   1.000000
    6      -16.892030   1.000000
    7      -16.758266   1.000000
    8       -9.764101   1.000000
    9       -8.085550   1.000000
   10       -7.384410   1.000000
   11       -6.542316   1.000000
   12       -6.349440   1.000000
   13       -6.279614   1.000000
   14       -5.533773   1.000000
   15       -3.698740   1.000000
   16       -2.786846   1.000000
   17       -2.645593   1.000000
   18       -2.464849   1.000000
   19       -2.202631   1.000000
   20       -2.087685   1.000000
   21        0.681869  -0.020499
   22        2.801857   0.000000
   23        3.163713   0.000000
   24        3.326060   0.000000
   25        3.577284   0.000000
   26        4.081853   0.000000
   27        4.383060   0.000000
   28        5.130812   0.000000
   29        5.677075   0.000000
   30        5.900108   0.000000
   31        6.225363   0.000000
   32        6.445500   0.000000
 
  0.1428571E+00  0.3836924E-15  0.3738329E-15  0.5102041E-02
    1      -34.790233   1.000000
    2      -30.230795   1.000000
    3      -30.175087   1.000000
    4      -30.043433   1.000000
    5      -16.980835   1.000000
    6      -16.894917   1.000000
    7      -16.760130   1.000000
    8       -9.684864   1.000000
    9       -8.117339   1.000000
   10       -7.444828   1.000000
   11       -6.688257   1.000000
   12       -6.405955   1.000000
   13       -6.171611   1.000000
   14       -5.447247   1.000000
   15       -3.686481   1.000000
   16       -2.827846   1.000000
   17       -2.656014   1.000000
   18       -2.429872   1.000000
   19       -2.225899   1.000000
   20       -1.990317   1.000000
   21        0.663557   0.052903
   22        2.786068   0.000000
   23        3.145385   0.000000
   24        3.337884   0.000000
   25        3.677431   0.000000
   26        4.076128   0.000000
   27        4.464306   0.000000
   28        5.154276   0.000000
   29        5.541458   0.000000
   30        5.865284   0.000000
   31        6.134022   0.000000
   32        6.453417   0.000000
 
  0.2857143E+00  0.3805414E-15  0.3694961E-15  0.5102041E-02
    1      -34.790357   1.000000
    2      -30.230717   1.000000
    3      -30.174775   1.000000
    4      -30.043383   1.000000
    5      -16.980248   1.000000
    6      -16.901327   1.000000
    7      -16.764036   1.000000
    8       -9.457356   1.000000
    9       -8.268586   1.000000
   10       -7.565702   1.000000
   11       -6.872460   1.000000
   12       -6.447857   1.000000
   13       -6.077480   1.000000
   14       -5.302419   1.000000
   15       -3.628875   1.000000
   16       -2.911347   1.000000
   17       -2.668190   1.000000
   18       -2.416076   1.000000
   19       -2.218929   1.000000
   20       -1.819994   1.000000
   21        0.630132   0.313433
   22        2.760665   0.000000
   23        3.140232   0.000000
   24        3.404412   0.000000
   25        3.857327   0.000000
   26        4.129422   0.000000
   27        4.649985   0.000000
   28        5.098081   0.000000
   29        5.327775   0.000000
   30        5.649403   0.000000
   31        6.292240   0.000000
   32        6.388956   0.000000
 
  0.4285714E+00  0.4053154E-15  0.3764350E-15  0.5102041E-02
    1      -34.790453   1.000000
    2      -30.230619   1.000000
    3      -30.174504   1.000000
    4      -30.043272   1.000000
    5      -16.979744   1.000000
    6      -16.906490   1.000000
    7      -16.767162   1.000000
    8       -9.154739   1.000000
    9       -8.563440   1.000000
   10       -7.618929   1.000000
   11       -6.957899   1.000000
   12       -6.472905   1.000000
   13       -6.024574   1.000000
   14       -5.226655   1.000000
   15       -3.543588   1.000000
   16       -2.991320   1.000000
   17       -2.678329   1.000000
   18       -2.431821   1.000000
   19       -2.191600   1.000000
   20       -1.709124   1.000000
   21        0.607909   0.543676
   22        2.725080   0.000000
   23        3.209234   0.000000
   24        3.504221   0.000000
   25        4.002975   0.000000
   26        4.224859   0.000000
   27        4.617732   0.000000
   28        5.107200   0.000000
   29        5.235560   0.000000
   30        5.702747   0.000000
   31        5.977835   0.000000
   32        6.363227   0.000000
 
  0.3743072E-15  0.1250000E+00  0.3781697E-15  0.5102041E-02
    1      -34.790230   1.000000
    2      -30.230723   1.000000
    3      -30.175136   1.000000
    4      -30.043441   1.000000
    5      -16.980954   1.000000
    6      -16.892276   1.000000
    7      -16.760484   1.000000
    8       -9.696281   1.000000
    9       -8.104872   1.000000
   10       -7.439019   1.000000
   11       -6.674752   1.000000
   12       -6.442908   1.000000
   13       -6.125052   1.000000
   14       -5.450201   1.000000
   15       -3.666392   1.000000
   16       -2.847957   1.000000
   17       -2.672626   1.000000
   18       -2.392596   1.000000
   19       -2.292775   1.000000
   20       -2.040282   1.000000
   21        0.649450   0.144265
   22        2.803175   0.000000
   23        3.222348   0.000000
   24        3.301460   0.000000
   25        3.663352   0.000000
   26        4.146376   0.000000
   27        4.450177   0.000000
   28        5.148613   0.000000
   29        5.613665   0.000000
   30        5.980814   0.000000
   31        6.157625   0.000000
   32        6.559979   0.000000
 
  0.1428571E+00  0.1250000E+00  0.3781697E-15  0.5102041E-02
    1      -34.790168   1.000000
    2      -30.230921   1.000000
    3      -30.175284   1.000000
    4      -30.043499   1.000000
    5      -16.980990   1.000000
    6      -16.895388   1.000000
    7      -16.759013   1.000000
    8       -9.670863   1.000000
    9       -8.073921   1.000000
   10       -7.465222   1.000000
   11       -6.745028   1.000000
   12       -6.389408   1.000000
   13       -6.135478   1.000000
   14       -5.486086   1.000000
   15       -3.729955   1.000000
   16       -2.841318   1.000000
   17       -2.699965   1.000000
   18       -2.445640   1.000000
   19       -2.110656   1.000000
   20       -2.049535   1.000000
   21        0.652667   0.120794
   22        2.862654   0.000000
   23        3.198065   0.000000
   24        3.419011   0.000000
   25        3.667269   0.000000
   26        4.097831   0.000000
   27        4.362634   0.000000
   28        5.071911   0.000000
   29        5.585845   0.000000
   30        5.867675   0.000000
   31        6.266185   0.000000
   32        6.549423   0.000000
 
  0.2857143E+00  0.1250000E+00  0.3816392E-15  0.5102041E-02
    1      -34.790224   1.000000
    2      -30.230838   1.000000
    3      -30.175139   1.000000
    4      -30.043484   1.000000
    5      -16.980450   1.000000
    6      -16.901890   1.000000
    7      -16.761139   1.000000
    8       -9.492859   1.000000
    9       -8.142249   1.000000
   10       -7.591247   1.000000
   11       -6.925145   1.000000
   12       -6.406601   1.000000
   13       -6.064684   1.000000
   14       -5.380081   1.000000
   15       -3.737937   1.000000
   16       -2.894603   1.000000
   17       -2.686858   1.000000
   18       -2.463529   1.000000
   19       -2.104837   1.000000
   20       -1.862884   1.000000
   21        0.636846   0.249770
   22        2.857948   0.000000
   23        3.297024   0.000000
   24        3.337210   0.000000
   25        3.817462   0.000000
   26        4.135929   0.000000
   27        4.494443   0.000000
   28        5.186941   0.000000
   29        5.279576   0.000000
   30        5.660554   0.000000
   31        6.290484   0.000000
   32        6.514379   0.000000
 
  0.4285714E+00  0.1250000E+00  0.3747003E-15  0.5102041E-02
    1      -34.790353   1.000000
    2      -30.230685   1.000000
    3      -30.174792   1.000000
    4      -30.043353   1.000000
    5      -16.979829   1.000000
    6      -16.906852   1.000000
    7      -16.765103   1.000000
    8       -9.208525   1.000000
    9       -8.401524   1.000000
   10       -7.675382   1.000000
   11       -7.052518   1.000000
   12       -6.400469   1.000000
   13       -6.017502   1.000000
   14       -5.258877   1.000000
   15       -3.654716   1.000000
   16       -2.943530   1.000000
   17       -2.713384   1.000000
   18       -2.473084   1.000000
   19       -2.117113   1.000000
   20       -1.731871   1.000000
   21        0.616774   0.450039
   22        2.807350   0.000000
   23        3.259117   0.000000
   24        3.509835   0.000000
   25        3.869817   0.000000
   26        4.279478   0.000000
   27        4.686124   0.000000
   28        5.110594   0.000000
   29        5.277878   0.000000
   30        5.622775   0.000000
   31        6.037603   0.000000
   32        6.409763   0.000000
 
 -0.4285714E+00  0.1250000E+00  0.3660267E-15  0.5102041E-02
    1      -34.790463   1.000000
    2      -30.230600   1.000000
    3      -30.174565   1.000000
    4      -30.043312   1.000000
    5      -16.979646   1.000000
    6      -16.906729   1.000000
    7      -16.768225   1.000000
    8       -9.039107   1.000000
    9       -8.600777   1.000000
   10       -7.689193   1.000000
   11       -7.098492   1.000000
   12       -6.369660   1.000000
   13       -6.016063   1.000000
   14       -5.193821   1.000000
   15       -3.536672   1.000000
   16       -2.999836   1.000000
   17       -2.715522   1.000000
   18       -2.498857   1.000000
   19       -2.134556   1.000000
   20       -1.724790   1.000000
   21        0.604258   0.581967
   22        2.746363   0.000000
   23        3.260054   0.000000
   24        3.475105   0.000000
   25        4.033360   0.000000
   26        4.350821   0.000000
   27        4.614495   0.000000
   28        5.187104   0.000000
   29        5.268770   0.000000
   30        5.733366   0.000000
   31        6.005481   0.000000
   32        6.291823   0.000000
 
 -0.2857143E+00  0.1250000E+00  0.3764350E-15  0.5102041E-02
    1      -34.790467   1.000000
    2      -30.230527   1.000000
    3      -30.174583   1.000000
    4      -30.043366   1.000000
    5      -16.979890   1.000000
    6      -16.901297   1.000000
    7      -16.768130   1.000000
    8       -9.303284   1.000000
    9       -8.372212   1.000000
   10       -7.639104   1.000000
   11       -7.054650   1.000000
   12       -6.353126   1.000000
   13       -6.049807   1.000000
   14       -5.202749   1.000000
   15       -3.513241   1.000000
   16       -2.998918   1.000000
   17       -2.647403   1.000000
   18       -2.530756   1.000000
   19       -2.172777   1.000000
   20       -1.827576   1.000000
   21        0.609488   0.527015
   22        2.733791   0.000000
   23        3.141726   0.000000
   24        3.391408   0.000000
   25        3.990550   0.000000
   26        4.285593   0.000000
   27        4.710902   0.000000
   28        5.168743   0.000000
   29        5.341090   0.000000
   30        5.839418   0.000000
   31        6.078548   0.000000
   32        6.282996   0.000000
 
 -0.1428571E+00  0.1250000E+00  0.3712308E-15  0.5102041E-02
    1      -34.790362   1.000000
    2      -30.230624   1.000000
    3      -30.174848   1.000000
    4      -30.043405   1.000000
    5      -16.980499   1.000000
    6      -16.894936   1.000000
    7      -16.764648   1.000000
    8       -9.566646   1.000000
    9       -8.188114   1.000000
   10       -7.519479   1.000000
   11       -6.889296   1.000000
   12       -6.385126   1.000000
   13       -6.087442   1.000000
   14       -5.304406   1.000000
   15       -3.586308   1.000000
   16       -2.923571   1.000000
   17       -2.630100   1.000000
   18       -2.460704   1.000000
   19       -2.260792   1.000000
   20       -1.967392   1.000000
   21        0.628456   0.329960
   22        2.756204   0.000000
   23        3.091039   0.000000
   24        3.362314   0.000000
   25        3.788269   0.000000
   26        4.233300   0.000000
   27        4.599867   0.000000
   28        5.215781   0.000000
   29        5.585597   0.000000
   30        5.911343   0.000000
   31        5.978333   0.000000
   32        6.455663   0.000000
 
  0.3740904E-15  0.2500000E+00  0.3816392E-15  0.5102041E-02
    1      -34.790357   1.000000
    2      -30.230712   1.000000
    3      -30.174982   1.000000
    4      -30.043519   1.000000
    5      -16.980541   1.000000
    6      -16.892962   1.000000
    7      -16.766071   1.000000
    8       -9.498744   1.000000
    9       -8.186982   1.000000
   10       -7.611658   1.000000
   11       -6.894607   1.000000
   12       -6.420564   1.000000
   13       -6.023482   1.000000
   14       -5.288745   1.000000
   15       -3.583657   1.000000
   16       -2.986151   1.000000
   17       -2.679566   1.000000
   18       -2.476675   1.000000
   19       -2.236585   1.000000
   20       -2.025005   1.000000
   21        0.582707   0.790502
   22        2.849440   0.000000
   23        3.188187   0.000000
   24        3.360048   0.000000
   25        3.877277   0.000000
   26        4.419699   0.000000
   27        4.599300   0.000000
   28        5.282105   0.000000
   29        5.530929   0.000000
   30        5.968888   0.000000
   31        6.161611   0.000000
   32        6.612398   0.000000
 
  0.1428571E+00  0.2500000E+00  0.3677614E-15  0.5102041E-02
    1      -34.790203   1.000000
    2      -30.230908   1.000000
    3      -30.175240   1.000000
    4      -30.043575   1.000000
    5      -16.980673   1.000000
    6      -16.896265   1.000000
    7      -16.761818   1.000000
    8       -9.523345   1.000000
    9       -8.100113   1.000000
   10       -7.577908   1.000000
   11       -6.930380   1.000000
   12       -6.418865   1.000000
   13       -6.035530   1.000000
   14       -5.371831   1.000000
   15       -3.700767   1.000000
   16       -2.934516   1.000000
   17       -2.762012   1.000000
   18       -2.410436   1.000000
   19       -2.152210   1.000000
   20       -2.008712   1.000000
   21        0.596357   0.662803
   22        2.957958   0.000000
   23        3.301879   0.000000
   24        3.385340   0.000000
   25        3.842792   0.000000
   26        4.276703   0.000000
   27        4.449880   0.000000
   28        5.035379   0.000000
   29        5.607566   0.000000
   30        5.934311   0.000000
   31        6.261572   0.000000
   32        6.574326   0.000000
 
  0.2857143E+00  0.2500000E+00  0.3677614E-15  0.5102041E-02
    1      -34.790143   1.000000
    2      -30.231052   1.000000
    3      -30.175372   1.000000
    4      -30.043579   1.000000
    5      -16.980477   1.000000
    6      -16.902753   1.000000
    7      -16.760837   1.000000
    8       -9.400682   1.000000
    9       -8.070262   1.000000
   10       -7.666051   1.000000
   11       -7.093882   1.000000
   12       -6.424443   1.000000
   13       -5.999092   1.000000
   14       -5.347228   1.000000
   15       -3.777436   1.000000
   16       -2.965805   1.000000
   17       -2.743037   1.000000
   18       -2.427687   1.000000
   19       -2.037058   1.000000
   20       -1.936657   1.000000
   21        0.614976   0.468995
   22        2.974262   0.000000
   23        3.319663   0.000000
   24        3.500501   0.000000
   25        3.887592   0.000000
   26        4.166757   0.000000
   27        4.529660   0.000000
   28        5.076897   0.000000
   29        5.393455   0.000000
   30        5.759906   0.000000
   31        6.242788   0.000000
   32        6.480033   0.000000
 
  0.4285714E+00  0.2500000E+00  0.3677614E-15  0.5102041E-02
    1      -34.790217   1.000000
    2      -30.230999   1.000000
    3      -30.175198   1.000000
    4      -30.043491   1.000000
    5      -16.980038   1.000000
    6      -16.907708   1.000000
    7      -16.763403   1.000000
    8       -9.163813   1.000000
    9       -8.200110   1.000000
   10       -7.833607   1.000000
   11       -7.207763   1.000000
   12       -6.377974   1.000000
   13       -5.972832   1.000000
   14       -5.256940   1.000000
   15       -3.757857   1.000000
   16       -2.993261   1.000000
   17       -2.718687   1.000000
   18       -2.496141   1.000000
   19       -2.044688   1.000000
   20       -1.798801   1.000000
   21        0.619958   0.416679
   22        2.938485   0.000000
   23        3.256528   0.000000
   24        3.608259   0.000000
   25        3.937329   0.000000
   26        4.268028   0.000000
   27        4.760447   0.000000
   28        5.182112   0.000000
   29        5.321234   0.000000
   30        5.686748   0.000000
   31        5.992614   0.000000
   32        6.387488   0.000000
 
 -0.4285714E+00  0.2500000E+00  0.3677614E-15  0.5102041E-02
    1      -34.790371   1.000000
    2      -30.230772   1.000000
    3      -30.174878   1.000000
    4      -30.043384   1.000000
    5      -16.979664   1.000000
    6      -16.907409   1.000000
    7      -16.767753   1.000000
    8       -8.927464   1.000000
    9       -8.461353   1.000000
   10       -7.917407   1.000000
   11       -7.234112   1.000000
   12       -6.287753   1.000000
   13       -5.990192   1.000000
   14       -5.174416   1.000000
   15       -3.634912   1.000000
   16       -2.995095   1.000000
   17       -2.765491   1.000000
   18       -2.560054   1.000000
   19       -2.064505   1.000000
   20       -1.762812   1.000000
   21        0.600755   0.618239
   22        2.864748   0.000000
   23        3.299198   0.000000
   24        3.509873   0.000000
   25        4.121220   0.000000
   26        4.350303   0.000000
   27        4.847130   0.000000
   28        5.179023   0.000000
   29        5.397449   0.000000
   30        5.706716   0.000000
   31        6.039862   0.000000
   32        6.139174   0.000000
 
 -0.2857143E+00  0.2500000E+00  0.3677614E-15  0.5102041E-02
    1      -34.790487   1.000000
    2      -30.230589   1.000000
    3      -30.174636   1.000000
    4      -30.043417   1.000000
    5      -16.979661   1.000000
    6      -16.901892   1.000000
    7      -16.770844   1.000000
    8       -9.059294   1.000000
    9       -8.422995   1.000000
   10       -7.876239   1.000000
   11       -7.191269   1.000000
   12       -6.253399   1.000000
   13       -6.016715   1.000000
   14       -5.136774   1.000000
   15       -3.501667   1.000000
   16       -3.027468   1.000000
   17       -2.764928   1.000000
   18       -2.592521   1.000000
   19       -2.092136   1.000000
   20       -1.852370   1.000000
   21        0.583115   0.786973
   22        2.791253   0.000000
   23        3.265810   0.000000
   24        3.386265   0.000000
   25        4.128345   0.000000
   26        4.511642   0.000000
   27        4.767403   0.000000
   28        5.230913   0.000000
   29        5.476348   0.000000
   30        5.778931   0.000000
   31        6.083489   0.000000
   32        6.361199   0.000000
 
 -0.1428571E+00  0.2500000E+00  0.3816392E-15  0.5102041E-02
    1      -34.790477   1.000000
    2      -30.230555   1.000000
    3      -30.174680   1.000000
    4      -30.043384   1.000000
    5      -16.980076   1.000000
    6      -16.895275   1.000000
    7      -16.770074   1.000000
    8       -9.329176   1.000000
    9       -8.288155   1.000000
   10       -7.725770   1.000000
   11       -7.058020   1.000000
   12       -6.324519   1.000000
   13       -6.014979   1.000000
   14       -5.176863   1.000000
   15       -3.487661   1.000000
   16       -3.039041   1.000000
   17       -2.666213   1.000000
   18       -2.584047   1.000000
   19       -2.148828   1.000000
   20       -1.991577   1.000000
   21        0.578700   0.823977
   22        2.767856   0.000000
   23        3.150084   0.000000
   24        3.387691   0.000000
   25        3.983745   0.000000
   26        4.565130   0.000000
   27        4.698384   0.000000
   28        5.340124   0.000000
   29        5.587447   0.000000
   30        5.809558   0.000000
   31        6.135146   0.000000
   32        6.395617   0.000000
 
  0.3744021E-15  0.3750000E+00  0.3747003E-15  0.5102041E-02
    1      -34.790486   1.000000
    2      -30.230677   1.000000
    3      -30.174898   1.000000
    4      -30.043648   1.000000
    5      -16.980211   1.000000
    6      -16.893742   1.000000
    7      -16.771611   1.000000
    8       -9.202934   1.000000
    9       -8.401718   1.000000
   10       -7.793552   1.000000
   11       -6.994397   1.000000
   12       -6.387419   1.000000
   13       -5.968544   1.000000
   14       -5.168293   1.000000
   15       -3.504649   1.000000
   16       -3.090716   1.000000
   17       -2.740567   1.000000
   18       -2.544063   1.000000
   19       -2.154227   1.000000
   20       -2.049913   1.000000
   21        0.528975   1.045085
   22        2.779321   0.000000
   23        3.278803   0.000000
   24        3.457509   0.000000
   25        4.112352   0.000000
   26        4.772726   0.000000
   27        4.908456   0.000000
   28        5.349613   0.000000
   29        5.561628   0.000000
   30        5.898889   0.000000
   31        5.995286   0.000000
   32        6.365820   0.000000
 
  0.1428571E+00  0.3750000E+00  0.3747003E-15  0.5102041E-02
    1      -34.790326   1.000000
    2      -30.230868   1.000000
    3      -30.175160   1.000000
    4      -30.043649   1.000000
    5      -16.980313   1.000000
    6      -16.897008   1.000000
    7      -16.767208   1.000000
    8       -9.265900   1.000000
    9       -8.256115   1.000000
   10       -7.762040   1.000000
   11       -7.070257   1.000000
   12       -6.379318   1.000000
   13       -5.984542   1.000000
   14       -5.229083   1.000000
   15       -3.626062   1.000000
   16       -3.043364   1.000000
   17       -2.780881   1.000000
   18       -2.505622   1.000000
   19       -2.112676   1.000000
   20       -1.999074   1.000000
   21        0.538812   1.028875
   22        2.958386   0.000000
   23        3.303791   0.000000
   24        3.451144   0.000000
   25        4.073169   0.000000
   26        4.570534   0.000000
   27        4.751071   0.000000
   28        5.212217   0.000000
   29        5.641290   0.000000
   30        5.839314   0.000000
   31        6.004610   0.000000
   32        6.387131   0.000000
 
  0.2857143E+00  0.3750000E+00  0.3608225E-15  0.5102041E-02
    1      -34.790164   1.000000
    2      -30.231092   1.000000
    3      -30.175398   1.000000
    4      -30.043656   1.000000
    5      -16.980217   1.000000
    6      -16.903544   1.000000
    7      -16.763281   1.000000
    8       -9.196909   1.000000
    9       -8.156574   1.000000
   10       -7.776516   1.000000
   11       -7.236537   1.000000
   12       -6.422334   1.000000
   13       -5.962818   1.000000
   14       -5.241014   1.000000
   15       -3.749645   1.000000
   16       -3.044064   1.000000
   17       -2.794751   1.000000
   18       -2.427574   1.000000
   19       -2.069556   1.000000
   20       -1.923556   1.000000
   21        0.576328   0.842796
   22        3.059319   0.000000
   23        3.319937   0.000000
   24        3.552562   0.000000
   25        4.070895   0.000000
   26        4.354079   0.000000
   27        4.728483   0.000000
   28        5.073977   0.000000
   29        5.477884   0.000000
   30        5.799656   0.000000
   31        6.214691   0.000000
   32        6.309936   0.000000
 
  0.4285714E+00  0.3750000E+00  0.3747003E-15  0.5102041E-02
    1      -34.790123   1.000000
    2      -30.231130   1.000000
    3      -30.175457   1.000000
    4      -30.043604   1.000000
    5      -16.979997   1.000000
    6      -16.908552   1.000000
    7      -16.762700   1.000000
    8       -9.019294   1.000000
    9       -8.202079   1.000000
   10       -7.880928   1.000000
   11       -7.327683   1.000000
   12       -6.446463   1.000000
   13       -5.929444   1.000000
   14       -5.203089   1.000000
   15       -3.797386   1.000000
   16       -3.069156   1.000000
   17       -2.761668   1.000000
   18       -2.423062   1.000000
   19       -2.059878   1.000000
   20       -1.847168   1.000000
   21        0.612609   0.494019
   22        3.024479   0.000000
   23        3.263366   0.000000
   24        3.703533   0.000000
   25        4.101629   0.000000
   26        4.335607   0.000000
   27        4.831416   0.000000
   28        5.156967   0.000000
   29        5.313114   0.000000
   30        5.795465   0.000000
   31        6.032851   0.000000
   32        6.400156   0.000000
 
 -0.4285714E+00  0.3750000E+00  0.3677614E-15  0.5102041E-02
    1      -34.790228   1.000000
    2      -30.230978   1.000000
    3      -30.175169   1.000000
    4      -30.043468   1.000000
    5      -16.979706   1.000000
    6      -16.908205   1.000000
    7      -16.765813   1.000000
    8       -8.826606   1.000000
    9       -8.298467   1.000000
   10       -8.107627   1.000000
   11       -7.309383   1.000000
   12       -6.347146   1.000000
   13       -5.943219   1.000000
   14       -5.157583   1.000000
   15       -3.729068   1.000000
   16       -3.065888   1.000000
   17       -2.758295   1.000000
   18       -2.527848   1.000000
   19       -2.059723   1.000000
   20       -1.803919   1.000000
   21        0.597501   0.651333
   22        3.003246   0.000000
   23        3.248645   0.000000
   24        3.636780   0.000000
   25        4.276638   0.000000
   26        4.371841   0.000000
   27        4.902795   0.000000
   28        5.133153   0.000000
   29        5.466512   0.000000
   30        5.784502   0.000000
   31        5.931336   0.000000
   32        6.409417   0.000000
 
 -0.2857143E+00  0.3750000E+00  0.3538836E-15  0.5102041E-02
    1      -34.790409   1.000000
    2      -30.230804   1.000000
    3      -30.174882   1.000000
    4      -30.043504   1.000000
    5      -16.979745   1.000000
    6      -16.902806   1.000000
    7      -16.770500   1.000000
    8       -8.821944   1.000000
    9       -8.456139   1.000000
   10       -8.080693   1.000000
   11       -7.240249   1.000000
   12       -6.252184   1.000000
   13       -5.980239   1.000000
   14       -5.121807   1.000000
   15       -3.588034   1.000000
   16       -3.048822   1.000000
   17       -2.808961   1.000000
   18       -2.609168   1.000000
   19       -2.063516   1.000000
   20       -1.865599   1.000000
   21        0.557363   0.963405
   22        2.888864   0.000000
   23        3.352287   0.000000
   24        3.459479   0.000000
   25        4.270239   0.000000
   26        4.603164   0.000000
   27        4.953226   0.000000
   28        5.289593   0.000000
   29        5.451834   0.000000
   30        5.637611   0.000000
   31        6.085710   0.000000
   32        6.356609   0.000000
 
 -0.1428571E+00  0.3750000E+00  0.3816392E-15  0.5102041E-02
    1      -34.790520   1.000000
    2      -30.230644   1.000000
    3      -30.174772   1.000000
    4      -30.043518   1.000000
    5      -16.979908   1.000000
    6      -16.896221   1.000000
    7      -16.773163   1.000000
    8       -9.022953   1.000000
    9       -8.490076   1.000000
   10       -7.898170   1.000000
   11       -7.111976   1.000000
   12       -6.300135   1.000000
   13       -5.973472   1.000000
   14       -5.119093   1.000000
   15       -3.479983   1.000000
   16       -3.085351   1.000000
   17       -2.791245   1.000000
   18       -2.588132   1.000000
   19       -2.075020   1.000000
   20       -2.022845   1.000000
   21        0.535607   1.035403
   22        2.763320   0.000000
   23        3.275756   0.000000
   24        3.487260   0.000000
   25        4.184145   0.000000
   26        4.851931   0.000000
   27        4.902469   0.000000
   28        5.375721   0.000000
   29        5.550684   0.000000
   30        5.731437   0.000000
   31        6.122392   0.000000
   32        6.254265   0.000000
 
  0.3749442E-15  0.5000000E+00  0.3608225E-15  0.2551020E-02
    1      -34.790544   1.000000
    2      -30.230745   1.000000
    3      -30.174903   1.000000
    4      -30.043720   1.000000
    5      -16.980118   1.000000
    6      -16.894153   1.000000
    7      -16.774038   1.000000
    8       -8.951839   1.000000
    9       -8.641431   1.000000
   10       -7.853959   1.000000
   11       -7.018228   1.000000
   12       -6.375616   1.000000
   13       -5.950039   1.000000
   14       -5.124485   1.000000
   15       -3.481270   1.000000
   16       -3.119170   1.000000
   17       -2.791004   1.000000
   18       -2.551538   1.000000
   19       -2.125185   1.000000
   20       -2.067396   1.000000
   21        0.509785   1.050345
   22        2.722700   0.000000
   23        3.309644   0.000000
   24        3.553052   0.000000
   25        4.227860   0.000000
   26        5.040933   0.000000
   27        5.198659   0.000000
   28        5.344809   0.000000
   29        5.351678   0.000000
   30        5.734191   0.000000
   31        5.994550   0.000000
   32        6.309260   0.000000
 
  0.1428571E+00  0.5000000E+00  0.3747003E-15  0.5102041E-02
    1      -34.790459   1.000000
    2      -30.230782   1.000000
    3      -30.174955   1.000000
    4      -30.043676   1.000000
    5      -16.980027   1.000000
    6      -16.897013   1.000000
    7      -16.771945   1.000000
    8       -8.961483   1.000000
    9       -8.533019   1.000000
   10       -7.894362   1.000000
   11       -7.115561   1.000000
   12       -6.323593   1.000000
   13       -5.964050   1.000000
   14       -5.138736   1.000000
   15       -3.543959   1.000000
   16       -3.089657   1.000000
   17       -2.803564   1.000000
   18       -2.582927   1.000000
   19       -2.075372   1.000000