       N       E                     dE             d eps       ncg     rms          rms(c)
DAV:   1     0.112737956203E+03    0.11274E+03   -0.12841E+04 13592   0.643E+02
DAV:   2    -0.701811792589E+02   -0.18292E+03   -0.17776E+03 16208   0.242E+02
DAV:   3    -0.814352537492E+02   -0.11254E+02   -0.11183E+02 19320   0.498E+01
DAV:   4    -0.818995720358E+02   -0.46432E+00   -0.46213E+00 20480   0.894E+00
DAV:   5    -0.819096336262E+02   -0.10062E-01   -0.10057E-01 18832   0.988E-01    0.360E+01
DAV:   6    -0.786766672945E+02    0.32330E+01   -0.47943E+00 18968   0.123E+01    0.164E+01
DAV:   7    -0.775551656717E+02    0.11215E+01   -0.20925E+00 18904   0.601E+00    0.676E+00
DAV:   8    -0.775083600502E+02    0.46806E-01   -0.39734E-01 19008   0.333E+00    0.193E+00
DAV:   9    -0.775138279484E+02   -0.54679E-02   -0.31461E-02 16280   0.100E+00    0.490E-01
DAV:  10    -0.775161018145E+02   -0.22739E-02   -0.65590E-03 17968   0.416E-01    0.138E-01
DAV:  11    -0.775167251189E+02   -0.62330E-03   -0.74366E-04 15720   0.172E-01    0.491E-02
DAV:  12    -0.775169266477E+02   -0.20153E-03   -0.25293E-04 15704   0.870E-02    0.444E-02
DAV:  13    -0.775169371397E+02   -0.10492E-04   -0.19256E-05 10640   0.272E-02
   1 F= -.77516937E+02 E0= -.77515453E+02  d E =-.775169E+02
       N       E                     dE             d eps       ncg     rms          rms(c)
DAV:   1    -0.775170250529E+02   -0.98405E-04   -0.69709E-02 15632   0.165E+00    0.139E-01
DAV:   2    -0.775172882160E+02   -0.26316E-03   -0.55228E-03 16912   0.411E-01    0.892E-02
DAV:   3    -0.775172057081E+02    0.82508E-04   -0.11916E-04 13152   0.738E-02
   2 F= -.77517206E+02 E0= -.77515708E+02  d E =-.268568E-03
       N       E                     dE             d eps       ncg     rms          rms(c)
DAV:   1    -0.775176559803E+02   -0.36776E-03   -0.13817E-02 14936   0.735E-01    0.683E-02
DAV:   2    -0.775177376384E+02   -0.81658E-04   -0.13459E-03 16368   0.202E-01    0.445E-02
DAV:   3    -0.775177167983E+02    0.20840E-04   -0.22763E-05  8104   0.344E-02
   3 F= -.77517717E+02 E0= -.77516226E+02  d E =-.779659E-03
