 running on   32 total cores
 distrk:  each k-point on   32 cores,    1 groups
 distr:  one band on    8 cores,    4 groups
 using from now: INCAR     
 vasp.5.4.4.18Apr17-6-g9f103f2a35 (build Nov 01 2019 12:17:22) complex          
  
 POSCAR found type information on POSCAR  H  Sr H  Nb H 
 POSCAR found :  5 types and      21 ions

 ----------------------------------------------------------------------------- 
|                                                                             |
|  ADVICE TO THIS USER RUNNING 'VASP/VAMP'   (HEAR YOUR MASTER'S VOICE ...):  |
|                                                                             |
|      You have a (more or less) 'large supercell' and for larger cells       |
|      it might be more efficient to use real space projection opertators     |
|      So try LREAL= Auto  in the INCAR   file.                               |
|      Mind:          For very  accurate calculation you might also keep the  |
|      reciprocal projection scheme          (i.e. LREAL=.FALSE.)             |
|                                                                             |
 ----------------------------------------------------------------------------- 

 LDA part: xc-table for Pade appr. of Perdew
 generate k-points for:    8    8    7
 POSCAR, INCAR and KPOINTS ok, starting setup
 FFT: planning ...
 WAVECAR not read
 entering main loop
       N       E                     dE             d eps       ncg     rms          rms(c)
DAV:   1     0.112667471110E+03    0.11267E+03   -0.12707E+04 15512   0.643E+02
DAV:   2    -0.678337663203E+02   -0.18050E+03   -0.17510E+03 18376   0.240E+02
DAV:   3    -0.787014567579E+02   -0.10868E+02   -0.10814E+02 22456   0.486E+01
DAV:   4    -0.791286904142E+02   -0.42723E+00   -0.42604E+00 23104   0.837E+00
DAV:   5    -0.791385664323E+02   -0.98760E-02   -0.98753E-02 21464   0.977E-01    0.391E+01
DAV:   6    -0.762443840034E+02    0.28942E+01   -0.36141E+00 21808   0.115E+01    0.180E+01
DAV:   7    -0.751613085967E+02    0.10831E+01   -0.18195E+00 21688   0.568E+00    0.652E+00
DAV:   8    -0.751372674525E+02    0.24041E-01   -0.35114E-01 21696   0.318E+00    0.213E+00
DAV:   9    -0.751420865160E+02   -0.48191E-02   -0.18123E-02 19512   0.712E-01    0.955E-01
DAV:  10    -0.751459735576E+02   -0.38870E-02   -0.71172E-03 20912   0.441E-01    0.134E-01
DAV:  11    -0.751465080209E+02   -0.53446E-03   -0.73509E-04 18800   0.144E-01    0.527E-02
DAV:  12    -0.751466950253E+02   -0.18700E-03   -0.22753E-04 17672   0.732E-02    0.362E-02
DAV:  13    -0.751467033747E+02   -0.83494E-05   -0.14568E-05 11480   0.229E-02
   1 F= -.75146703E+02 E0= -.75147025E+02  d E =-.751467E+02
 curvature:   0.00 expect dE= 0.000E+00 dE for cont linesearch  0.000E+00
 trial: gam= 0.00000 g(F)=  0.439E-02 g(S)=  0.165E-02 ort = 0.000E+00 (trialstep = 0.100E+01)
 search vector abs. value=  0.604E-02
 bond charge predicted
       N       E                     dE             d eps       ncg     rms          rms(c)
DAV:   1    -0.751467421639E+02   -0.47139E-04   -0.14019E-01 16240   0.218E+00    0.211E-01
DAV:   2    -0.751470330990E+02   -0.29094E-03   -0.92870E-03 19392   0.524E-01    0.134E-01
DAV:   3    -0.751467540585E+02    0.27904E-03   -0.41763E-04 18120   0.136E-01    0.546E-02
DAV:   4    -0.751467459482E+02    0.81103E-05   -0.35953E-04 16208   0.964E-02
   2 F= -.75146746E+02 E0= -.75147073E+02  d E =-.425735E-04
 trial-energy change:   -0.000043  1 .order    0.000034   -0.006037    0.006105
 step:   0.4972(harm=  0.4972)  dis= 0.00369  next Energy=   -75.148204 (dE=-0.150E-02)
 bond charge predicted
       N       E                     dE             d eps       ncg     rms          rms(c)
DAV:   1    -0.751482642422E+02   -0.15102E-02   -0.35653E-02 16112   0.110E+00    0.108E-01
DAV:   2    -0.751483171754E+02   -0.52933E-04   -0.22342E-03 19608   0.260E-01    0.671E-02
DAV:   3    -0.751482422471E+02    0.74928E-04   -0.10341E-04 13192   0.695E-02
   3 F= -.75148242E+02 E0= -.75148567E+02  d E =-.153887E-02
 curvature:  -0.25 expect dE=-0.687E-03 dE for cont linesearch -0.346E-05
 trial: gam= 0.50584 g(F)=  0.221E-02 g(S)=  0.551E-03 ort =-0.290E-03 (trialstep = 0.899E+00)
 search vector abs. value=  0.402E-02
 bond charge predicted
       N       E                     dE             d eps       ncg     rms          rms(c)
DAV:   1    -0.751508021158E+02   -0.24849E-02   -0.56447E-02 14496   0.132E+00    0.171E-01
DAV:   2    -0.751505806185E+02    0.22150E-03   -0.19094E-03 19880   0.273E-01    0.818E-02
DAV:   3    -0.751504593289E+02    0.12129E-03   -0.21305E-04 14536   0.818E-02    0.379E-02
DAV:   4    -0.751504488663E+02    0.10463E-04   -0.75102E-05 10592   0.565E-02
   4 F= -.75150449E+02 E0= -.75150778E+02  d E =-.220662E-02
 ZBRENT: can't locate minimum, use default step
 trial-energy change:   -0.002207  1 .order   -0.002164   -0.002354   -0.001974
 step:   3.5978(harm=  5.5784)  dis= 0.01046  next Energy=   -75.155542 (dE=-0.730E-02)
 bond charge predicted
       N       E                     dE             d eps       ncg     rms          rms(c)
DAV:   1    -0.751570227955E+02   -0.65635E-02   -0.49915E-01 14480   0.392E+00    0.489E-01
DAV:   2    -0.751551487893E+02    0.18740E-02   -0.16876E-02 19896   0.808E-01    0.237E-01
DAV:   3    -0.751541397155E+02    0.10091E-02   -0.19456E-03 19992   0.240E-01    0.103E-01
DAV:   4    -0.751540513116E+02    0.88404E-04   -0.55487E-04 19808   0.128E-01
   5 F= -.75154051E+02 E0= -.75154394E+02  d E =-.580906E-02
 curvature:  -3.51 expect dE=-0.198E-01 dE for cont linesearch -0.209E-03
 trial: gam= 1.85699 g(F)=  0.528E-02 g(S)=  0.353E-03 ort = 0.488E-03 (trialstep = 0.271E+00)
 search vector abs. value=  0.213E-01
 bond charge predicted
       N       E                     dE             d eps       ncg     rms          rms(c)
DAV:   1    -0.751555792053E+02   -0.14395E-02   -0.32376E-02 15856   0.114E+00    0.968E-02
DAV:   2    -0.751556498628E+02   -0.70658E-04   -0.21669E-03 18120   0.245E-01    0.566E-02
DAV:   3    -0.751556074679E+02    0.42395E-04   -0.74162E-05 12384   0.530E-02
   6 F= -.75155607E+02 E0= -.75155950E+02  d E =-.155616E-02
 ZBRENT: can't locate minimum, use default step
 trial-energy change:   -0.001556  1 .order   -0.001581   -0.001776   -0.001386
 step:   1.0852(harm=  1.2359)  dis= 0.00799  next Energy=   -75.158096 (dE=-0.404E-02)
 bond charge predicted
       N       E                     dE             d eps       ncg     rms          rms(c)
DAV:   1    -0.751568890686E+02   -0.12392E-02   -0.28562E-01 15616   0.340E+00    0.272E-01
DAV:   2    -0.751577060370E+02   -0.81697E-03   -0.19234E-02 18128   0.727E-01    0.147E-01
DAV:   3    -0.751574141873E+02    0.29185E-03   -0.59116E-04 21120   0.141E-01    0.728E-02
DAV:   4    -0.751573627587E+02    0.51429E-04   -0.20307E-04 14008   0.862E-02
   7 F= -.75157363E+02 E0= -.75157705E+02  d E =-.331145E-02
 curvature:  -1.96 expect dE=-0.918E-02 dE for cont linesearch -0.205E-04
 trial: gam= 1.19282 g(F)=  0.436E-02 g(S)=  0.319E-03 ort =-0.472E-03 (trialstep = 0.273E+00)
 search vector abs. value=  0.339E-01
 bond charge predicted
       N       E                     dE             d eps       ncg     rms          rms(c)
DAV:   1    -0.751584526436E+02   -0.10385E-02   -0.41801E-02 14528   0.110E+00    0.912E-02
DAV:   2    -0.751584184192E+02    0.34224E-04   -0.12317E-03 18880   0.211E-01    0.598E-02
DAV:   3    -0.751583678889E+02    0.50530E-04   -0.89010E-05 12224   0.547E-02
   8 F= -.75158368E+02 E0= -.75158713E+02  d E =-.100513E-02
 ZBRENT: can't locate minimum, use default step
 trial-energy change:   -0.001005  1 .order   -0.001037   -0.001124   -0.000951
 step:   1.0924(harm=  1.7811)  dis= 0.01055  next Energy=   -75.161027 (dE=-0.366E-02)
 bond charge predicted
       N       E                     dE             d eps       ncg     rms          rms(c)
DAV:   1    -0.751607489915E+02   -0.23306E-02   -0.37497E-01 14464   0.331E+00    0.273E-01
DAV:   2    -0.751603898071E+02    0.35918E-03   -0.10914E-02 19072   0.631E-01    0.175E-01
DAV:   3    -0.751599318574E+02    0.45795E-03   -0.90606E-04 20568   0.164E-01    0.656E-02
DAV:   4    -0.751599111459E+02    0.20712E-04   -0.20611E-04 15424   0.799E-02
   9 F= -.75159911E+02 E0= -.75160264E+02  d E =-.254839E-02
 curvature:  -5.80 expect dE=-0.432E-01 dE for cont linesearch -0.411E-04
 trial: gam= 0.87549 g(F)=  0.676E-02 g(S)=  0.692E-03 ort = 0.490E-03 (trialstep = 0.432E+00)
 search vector abs. value=  0.343E-01
 bond charge predicted
       N       E                     dE             d eps       ncg     rms          rms(c)
DAV:   1    -0.751624824578E+02   -0.25506E-02   -0.12687E-01 16264   0.223E+00    0.170E-01
DAV:   2    -0.751627073760E+02   -0.22492E-03   -0.74666E-03 18456   0.485E-01    0.106E-01
DAV:   3    -0.751626087588E+02    0.98617E-04   -0.22907E-04 16432   0.864E-02
  10 F= -.75162609E+02 E0= -.75162968E+02  d E =-.269761E-02
 trial-energy change:   -0.002698  1 .order   -0.002807   -0.003401   -0.002212
 step:   1.2349(harm=  1.2349)  dis= 0.01238  next Energy=   -75.164775 (dE=-0.486E-02)
 bond charge predicted
       N       E                     dE             d eps       ncg     rms          rms(c)
DAV:   1    -0.751632756079E+02   -0.56823E-03   -0.43176E-01 16256   0.411E+00    0.310E-01
DAV:   2    -0.751639796998E+02   -0.70409E-03   -0.25159E-02 18520   0.890E-01    0.201E-01
DAV:   3    -0.751636596318E+02    0.32007E-03   -0.86734E-04 20344   0.159E-01    0.109E-01
DAV:   4    -0.751635604859E+02    0.99146E-04   -0.39479E-04 18200   0.112E-01
  11 F= -.75163560E+02 E0= -.75163931E+02  d E =-.364934E-02
 curvature:  -2.69 expect dE=-0.222E-01 dE for cont linesearch -0.270E-03
 trial: gam= 0.00000 g(F)=  0.751E-02 g(S)=  0.763E-03 ort =-0.186E-02 (trialstep = 0.592E+00)
 search vector abs. value=  0.828E-02
 bond charge predicted
       N       E                     dE             d eps       ncg     rms          rms(c)
DAV:   1    -0.751640600794E+02   -0.40045E-03   -0.17864E-01 16280   0.307E+00    0.175E-01
DAV:   2    -0.751659343762E+02   -0.18743E-02   -0.22308E-02 16488   0.704E-01    0.918E-02
DAV:   3    -0.751658958144E+02    0.38562E-04   -0.29098E-04 19392   0.956E-02
  12 F= -.75165896E+02 E0= -.75166252E+02  d E =-.233533E-02
 trial-energy change:   -0.002335  1 .order   -0.002357   -0.004904    0.000190
 step:   0.5703(harm=  0.5703)  dis= 0.00343  next Energy=   -75.165921 (dE=-0.236E-02)
 bond charge predicted
       N       E                     dE             d eps       ncg     rms          rms(c)
DAV:   1    -0.751658804309E+02    0.53945E-04   -0.45313E-04 16928   0.162E-01    0.169E-02
DAV:   2    -0.751658891394E+02   -0.87085E-05   -0.90866E-05  8912   0.526E-02
  13 F= -.75165889E+02 E0= -.75166245E+02  d E =-.232865E-02
 curvature:  -0.29 expect dE=-0.599E-03 dE for cont linesearch -0.165E-05
 trial: gam= 0.28019 g(F)=  0.161E-02 g(S)=  0.495E-03 ort =-0.219E-03 (trialstep = 0.588E+00)
 search vector abs. value=  0.263E-02
 bond charge predicted
       N       E                     dE             d eps       ncg     rms          rms(c)
DAV:   1    -0.751669011408E+02   -0.10207E-02   -0.18639E-02 15088   0.873E-01    0.826E-02
DAV:   2    -0.751669465608E+02   -0.45420E-04   -0.13033E-03 19304   0.207E-01    0.441E-02
DAV:   3    -0.751669240230E+02    0.22538E-04   -0.37758E-05 11040   0.396E-02
  14 F= -.75166924E+02 E0= -.75167279E+02  d E =-.103488E-02
 ZBRENT: can't locate minimum, use default step
 trial-energy change:   -0.001035  1 .order   -0.001062   -0.001199   -0.000925
 step:   2.3521(harm=  2.5719)  dis= 0.00489  next Energy=   -75.168511 (dE=-0.262E-02)
 bond charge predicted
       N       E                     dE             d eps       ncg     rms          rms(c)
DAV:   1    -0.751678281716E+02   -0.88161E-03   -0.16604E-01 15160   0.261E+00    0.244E-01
DAV:   2    -0.751681971909E+02   -0.36902E-03   -0.11466E-02 19488   0.611E-01    0.134E-01
DAV:   3    -0.751680039549E+02    0.19324E-03   -0.39383E-04 19128   0.118E-01    0.703E-02
DAV:   4    -0.751679565527E+02    0.47402E-04   -0.18617E-04 13456   0.873E-02
  15 F= -.75167957E+02 E0= -.75168307E+02  d E =-.206741E-02
 curvature:  -1.64 expect dE=-0.110E-01 dE for cont linesearch -0.331E-04
 trial: gam= 3.23588 g(F)=  0.657E-02 g(S)=  0.165E-03 ort =-0.230E-03 (trialstep = 0.755E-01)
 search vector abs. value=  0.328E-01
 bond charge predicted
       N       E                     dE             d eps       ncg     rms          rms(c)
DAV:   1    -0.751683976135E+02   -0.39366E-03   -0.34129E-03 14840   0.338E-01    0.380E-02
DAV:   2    -0.751683962812E+02    0.13324E-05   -0.12009E-04 11536   0.702E-02
  16 F= -.75168396E+02 E0= -.75168746E+02  d E =-.439728E-03
 ZBRENT: can't locate minimum, use default step
 trial-energy change:   -0.000440  1 .order   -0.000438   -0.000452   -0.000423
 step:   0.3019(harm=  1.1813)  dis= 0.00297  next Energy=   -75.171494 (dE=-0.354E-02)
 bond charge predicted
       N       E                     dE             d eps       ncg     rms          rms(c)
DAV:   1    -0.751695530524E+02   -0.11554E-02   -0.30402E-02 14464   0.982E-01    0.110E-01
DAV:   2    -0.751695192051E+02    0.33847E-04   -0.11886E-03 20056   0.211E-01    0.609E-02
DAV:   3    -0.751694809050E+02    0.38300E-04   -0.63515E-05 11552   0.474E-02
  17 F= -.75169481E+02 E0= -.75169828E+02  d E =-.152435E-02
 curvature:  -1.19 expect dE=-0.500E-02 dE for cont linesearch -0.718E-03
 trial: gam=-0.14980 g(F)=  0.407E-02 g(S)=  0.145E-03 ort = 0.445E-02 (trialstep = 0.121E+00)
 search vector abs. value=  0.361E-02
 bond charge predicted
       N       E                     dE             d eps       ncg     rms          rms(c)
DAV:   1    -0.751698376921E+02   -0.31849E-03   -0.20344E-03 17048   0.318E-01    0.262E-02
DAV:   2    -0.751698547100E+02   -0.17018E-04   -0.22319E-04 13176   0.768E-02
  18 F= -.75169855E+02 E0= -.75170202E+02  d E =-.373805E-03
 ZBRENT: can't locate minimum, use default step
 trial-energy change:   -0.000374  1 .order   -0.000378   -0.000428   -0.000327
 step:   0.4830(harm=  0.5133)  dis= 0.00201  next Energy=   -75.170391 (dE=-0.910E-03)
 bond charge predicted
       N       E                     dE             d eps       ncg     rms          rms(c)
DAV:   1    -0.751701913500E+02   -0.35366E-03   -0.17319E-02 16600   0.921E-01    0.654E-02
DAV:   2    -0.751703374284E+02   -0.14608E-03   -0.19712E-03 18072   0.224E-01    0.423E-02
DAV:   3    -0.751703219915E+02    0.15437E-04   -0.29764E-05 10968   0.375E-02
  19 F= -.75170322E+02 E0= -.75170669E+02  d E =-.841086E-03
 curvature:  -0.26 expect dE=-0.183E-03 dE for cont linesearch -0.312E-06
 trial: gam= 0.05556 g(F)=  0.671E-03 g(S)=  0.339E-04 ort = 0.658E-04 (trialstep = 0.193E+00)
 search vector abs. value=  0.724E-03
 reached required accuracy - stopping structural energy minimisation
