       N       E                     dE             d eps       ncg     rms          rms(c)
DAV:   1     0.170747090248E+03    0.17075E+03   -0.14381E+04 21200   0.676E+02
DAV:   2    -0.568590755089E+02   -0.22761E+03   -0.21885E+03 27380   0.261E+02
DAV:   3    -0.719618596151E+02   -0.15103E+02   -0.15001E+02 32400   0.531E+01
DAV:   4    -0.728415509495E+02   -0.87969E+00   -0.87747E+00 35616   0.113E+01
DAV:   5    -0.728568189463E+02   -0.15268E-01   -0.15266E-01 31628   0.126E+00    0.401E+01
DAV:   6    -0.699147213987E+02    0.29421E+01   -0.45149E+00 31120   0.127E+01    0.182E+01
DAV:   7    -0.690813417444E+02    0.83338E+00   -0.18497E+00 30768   0.574E+00    0.902E+00
DAV:   8    -0.690428401411E+02    0.38502E-01   -0.53032E-01 32984   0.382E+00    0.296E+00
DAV:   9    -0.690426241172E+02    0.21602E-03   -0.50789E-02 27528   0.102E+00    0.436E-01
DAV:  10    -0.690434077345E+02   -0.78362E-03   -0.65094E-03 31068   0.415E-01    0.256E-01
DAV:  11    -0.690437764507E+02   -0.36872E-03   -0.69077E-04 26980   0.156E-01    0.604E-02
DAV:  12    -0.690438344167E+02   -0.57966E-04   -0.13402E-04 17696   0.841E-02
   1 F= -.69043834E+02 E0= -.69043829E+02  d E =-.690438E+02
       N       E                     dE             d eps       ncg     rms          rms(c)
DAV:   1    -0.690415004581E+02    0.22760E-02   -0.26273E-01 24724   0.342E+00    0.253E-01
DAV:   2    -0.690441866487E+02   -0.26862E-02   -0.34999E-02 23368   0.830E-01    0.126E-01
DAV:   3    -0.690440609844E+02    0.12566E-03   -0.61635E-04 30740   0.131E-01    0.751E-02
DAV:   4    -0.690440023496E+02    0.58635E-04   -0.24898E-04 22252   0.990E-02
   2 F= -.69044002E+02 E0= -.69043994E+02  d E =-.167933E-03
       N       E                     dE             d eps       ncg     rms          rms(c)
DAV:   1    -0.690444187836E+02   -0.35780E-03   -0.57870E-02 24600   0.159E+00    0.133E-01
DAV:   2    -0.690450135681E+02   -0.59478E-03   -0.77611E-03 23344   0.392E-01    0.612E-02
DAV:   3    -0.690449827112E+02    0.30857E-04   -0.12266E-04 23232   0.625E-02
   3 F= -.69044983E+02 E0= -.69044976E+02  d E =-.114829E-02
