       N       E                     dE             d eps       ncg     rms          rms(c)
DAV:   1    -0.124778084093E+02   -0.12478E+02   -0.68623E+03  8576   0.435E+02
DAV:   2    -0.481535119083E+02   -0.35676E+02   -0.34508E+02 11856   0.810E+01
DAV:   3    -0.492482782742E+02   -0.10948E+01   -0.10943E+01 10368   0.117E+01
DAV:   4    -0.492496013080E+02   -0.13230E-02   -0.13247E-02 11440   0.512E-01
DAV:   5    -0.492496034192E+02   -0.21111E-05   -0.21128E-05  8352   0.210E-02    0.176E+01
RMM:   6    -0.524357424479E+02   -0.31861E+01   -0.21720E+00  8576   0.448E+00    0.772E+00
RMM:   7    -0.536057771831E+02   -0.11700E+01   -0.13188E+00  8576   0.386E+00    0.339E+00
RMM:   8    -0.535868551122E+02    0.18922E-01   -0.25141E-01  8576   0.170E+00    0.990E-01
RMM:   9    -0.536115562286E+02   -0.24701E-01   -0.20621E-02  8576   0.516E-01    0.444E-01
RMM:  10    -0.536182426027E+02   -0.66864E-02   -0.30878E-03  8576   0.214E-01    0.157E-01
RMM:  11    -0.536192685740E+02   -0.10260E-02   -0.67713E-04  6749   0.108E-01    0.773E-02
RMM:  12    -0.536196300227E+02   -0.36145E-03   -0.24445E-04  6200   0.649E-02
   1 F= -.53619630E+02 E0= -.53619630E+02  d E =-.536196E+02  mag=     0.0004
       N       E                     dE             d eps       ncg     rms          rms(c)
DAV:   1    -0.537522040274E+02   -0.13294E+00   -0.34122E-01 12080   0.229E+00    0.490E-01
RMM:   2    -0.537497486034E+02    0.24554E-02   -0.45920E-03  8506   0.255E-01    0.281E-01
RMM:   3    -0.537485503565E+02    0.11982E-02   -0.11465E-03  5692   0.104E-01    0.177E-02
RMM:   4    -0.537485521029E+02   -0.17464E-05   -0.21871E-05  3782   0.195E-02
   2 F= -.53748552E+02 E0= -.53748552E+02  d E =-.128922E+00  mag=     0.0000
       N       E                     dE             d eps       ncg     rms          rms(c)
DAV:   1    -0.540428661061E+02   -0.29432E+00   -0.29279E+00  8816   0.649E+00    0.142E+00
RMM:   2    -0.540206591539E+02    0.22207E-01   -0.41102E-02  8576   0.735E-01    0.813E-01
RMM:   3    -0.540096664360E+02    0.10993E-01   -0.10736E-02  8576   0.304E-01    0.526E-02
RMM:   4    -0.540096728960E+02   -0.64600E-05   -0.59016E-05  4849   0.327E-02
   3 F= -.54009673E+02 E0= -.54009673E+02  d E =-.390043E+00  mag=     0.0000
       N       E                     dE             d eps       ncg     rms          rms(c)
DAV:   1    -0.542072511884E+02   -0.19758E+00   -0.10627E+01  9008   0.116E+01    0.265E+00
RMM:   2    -0.541206234442E+02    0.86628E-01   -0.16888E-01  8576   0.139E+00    0.151E+00
RMM:   3    -0.540775013811E+02    0.43122E-01   -0.45435E-02  8576   0.594E-01    0.106E-01
RMM:   4    -0.540775960216E+02   -0.94641E-04   -0.29697E-04  5701   0.700E-02
   4 F= -.54077596E+02 E0= -.54077596E+02  d E =-.457966E+00  mag=     0.0000
       N       E                     dE             d eps       ncg     rms          rms(c)
DAV:   1    -0.543429880122E+02   -0.26549E+00   -0.24231E+00 10624   0.540E+00    0.713E-01
RMM:   2    -0.543406127333E+02    0.23753E-02   -0.43686E-02  8576   0.803E-01    0.439E-01
RMM:   3    -0.543376023368E+02    0.30104E-02   -0.39656E-03  8398   0.167E-01    0.301E-02
RMM:   4    -0.543375989072E+02    0.34297E-05   -0.25580E-05  4890   0.218E-02
   5 F= -.54337599E+02 E0= -.54337599E+02  d E =-.260003E+00  mag=     0.0000
       N       E                     dE             d eps       ncg     rms          rms(c)
DAV:   1    -0.543566826658E+02   -0.19080E-01   -0.28151E-01 11920   0.190E+00    0.257E-01
RMM:   2    -0.543563521081E+02    0.33056E-03   -0.51165E-03  8536   0.278E-01
   6 F= -.54356352E+02 E0= -.54356352E+02  d E =-.278756E+00  mag=     0.0000
