Automatically generated mesh
      68
Reciprocal lattice
    0.00000000000000    0.00000000000000    0.00000000000000             1
    0.11111111111111    0.00000000000000    0.00000000000000             2
    0.22222222222222    0.00000000000000    0.00000000000000             2
    0.33333333333333    0.00000000000000    0.00000000000000             2
    0.44444444444444    0.00000000000000    0.00000000000000             2
    0.00000000000000    0.20000000000000    0.00000000000000             2
    0.11111111111111    0.20000000000000    0.00000000000000             2
    0.22222222222222    0.20000000000000    0.00000000000000             2
    0.33333333333333    0.20000000000000    0.00000000000000             2
    0.44444444444444    0.20000000000000    0.00000000000000             2
   -0.44444444444444    0.20000000000000    0.00000000000000             2
   -0.33333333333333    0.20000000000000    0.00000000000000             2
   -0.22222222222222    0.20000000000000    0.00000000000000             2
   -0.11111111111111    0.20000000000000    0.00000000000000             2
    0.00000000000000    0.40000000000000    0.00000000000000             2
    0.11111111111111    0.40000000000000    0.00000000000000             2
    0.22222222222222    0.40000000000000    0.00000000000000             2
    0.33333333333333    0.40000000000000    0.00000000000000             2
    0.44444444444445    0.40000000000000    0.00000000000000             2
   -0.44444444444444    0.40000000000000    0.00000000000000             2
   -0.33333333333333    0.40000000000000    0.00000000000000             2
   -0.22222222222222    0.40000000000000    0.00000000000000             2
   -0.11111111111111    0.40000000000000    0.00000000000000             2
    0.00000000000000    0.00000000000000    0.33333333333333             2
    0.11111111111111    0.00000000000000    0.33333333333333             2
    0.22222222222222    0.00000000000000    0.33333333333333             2
    0.33333333333333    0.00000000000000    0.33333333333333             2
    0.44444444444444    0.00000000000000    0.33333333333333             2
   -0.44444444444444    0.00000000000000    0.33333333333333             2
   -0.33333333333333    0.00000000000000    0.33333333333333             2
   -0.22222222222222    0.00000000000000    0.33333333333333             2
   -0.11111111111111    0.00000000000000    0.33333333333333             2
    0.00000000000000    0.20000000000000    0.33333333333333             2
    0.11111111111111    0.20000000000000    0.33333333333333             2
    0.22222222222222    0.20000000000000    0.33333333333333             2
    0.33333333333333    0.20000000000000    0.33333333333333             2
    0.44444444444445    0.20000000000000    0.33333333333333             2
   -0.44444444444444    0.20000000000000    0.33333333333333             2
   -0.33333333333333    0.20000000000000    0.33333333333333             2
   -0.22222222222222    0.20000000000000    0.33333333333333             2
   -0.11111111111111    0.20000000000000    0.33333333333333             2
    0.00000000000000    0.40000000000000    0.33333333333333             2
    0.11111111111111    0.40000000000000    0.33333333333333             2
    0.22222222222222    0.40000000000000    0.33333333333333             2
    0.33333333333333    0.40000000000000    0.33333333333333             2
    0.44444444444444    0.40000000000000    0.33333333333333             2
   -0.44444444444444    0.40000000000000    0.33333333333333             2
   -0.33333333333333    0.40000000000000    0.33333333333333             2
   -0.22222222222222    0.40000000000000    0.33333333333333             2
   -0.11111111111111    0.40000000000000    0.33333333333333             2
    0.00000000000000   -0.40000000000000    0.33333333333333             2
    0.11111111111111   -0.40000000000000    0.33333333333333             2
    0.22222222222222   -0.40000000000000    0.33333333333333             2
    0.33333333333333   -0.40000000000000    0.33333333333333             2
    0.44444444444444   -0.40000000000000    0.33333333333333             2
   -0.44444444444444   -0.40000000000000    0.33333333333333             2
   -0.33333333333333   -0.40000000000000    0.33333333333333             2
   -0.22222222222222   -0.40000000000000    0.33333333333333             2
   -0.11111111111111   -0.40000000000000    0.33333333333333             2
    0.00000000000000   -0.20000000000000    0.33333333333333             2
    0.11111111111111   -0.20000000000000    0.33333333333333             2
    0.22222222222222   -0.20000000000000    0.33333333333333             2
    0.33333333333333   -0.20000000000000    0.33333333333333             2
    0.44444444444444   -0.20000000000000    0.33333333333333             2
   -0.44444444444444   -0.20000000000000    0.33333333333333             2
   -0.33333333333333   -0.20000000000000    0.33333333333333             2
   -0.22222222222222   -0.20000000000000    0.33333333333333             2
   -0.11111111111111   -0.20000000000000    0.33333333333333             2
Tetrahedra
       402    0.00123456790123
         2         2         6         7        33
         2         1         2         6        33
         2         1         2        24        33
         2         2         7        33        34
         2         2        25        33        34
         2         2        24        25        33
         2         3         7         8        34
         2         2         3         7        34
         2         2         3        25        34
         2         3         8        34        35
         2         3        26        34        35
         2         3        25        26        34
         2         4         8         9        35
         2         3         4         8        35
         2         3         4        26        35
         2         4         9        35        36
         2         4        27        35        36
         2         4        26        27        35
         2         5         9        10        36
         2         4         5         9        36
         2         4         5        27        36
         2         5        10        36        37
         2         5        28        36        37
         2         5        27        28        36
         2         5        10        11        37
         2         5         5        10        37
         2         5         5        28        37
         2         5        11        37        38
         2         5        29        37        38
         2         5        28        29        37
         2         4        11        12        38
         2         4         5        11        38
         2         4         5        29        38
         2         4        12        38        39
         2         4        30        38        39
         2         4        29        30        38
         2         3        12        13        39
         2         3         4        12        39
         2         3         4        30        39
         2         3        13        39        40
         2         3        31        39        40
         2         3        30        31        39
         2         2        13        14        40
         2         2         3        13        40
         2         2         3        31        40
         2         2        14        40        41
         2         2        32        40        41
         2         2        31        32        40
         2         1         6        14        41
         2         1         2        14        41
         2         1         2        32        41
         2         1         6        33        41
         2         1        24        33        41
         2         1        24        32        41
         2         7        15        16        42
         2         6         7        15        42
         2         6         7        33        42
         2         7        16        42        43
         2         7        34        42        43
         2         7        33        34        42
         2         8        16        17        43
         2         7         8        16        43
         2         7         8        34        43
         2         8        17        43        44
         2         8        35        43        44
         2         8        34        35        43
         2         9        17        18        44
         2         8         9        17        44
         2         8         9        35        44
         2         9        18        44        45
         2         9        36        44        45
         2         9        35        36        44
         2        10        18        19        45
         2         9        10        18        45
         2         9        10        36        45
         2        10        19        45        46
         2        10        37        45        46
         2        10        36        37        45
         2        11        19        20        46
         2        10        11        19        46
         2        10        11        37        46
         2        11        20        46        47
         2        11        38        46        47
         2        11        37        38        46
         2        12        20        21        47
         2        11        12        20        47
         2        11        12        38        47
         2        12        21        47        48
         2        12        39        47        48
         2        12        38        39        47
         2        13        21        22        48
         2        12        13        21        48
         2        12        13        39        48
         2        13        22        48        49
         2        13        40        48        49
         2        13        39        40        48
         2        14        22        23        49
         2        13        14        22        49
         2        13        14        40        49
         2        14        23        49        50
         2        14        41        49        50
         2        14        40        41        49
         2         6        15        23        50
         2         6        14        23        50
         2         6        14        41        50
         2         6        15        42        50
         2         6        33        42        50
         2         6        33        41        50
         2        15        16        23        51
         2        15        15        16        51
         2        15        16        42        51
         2        16        23        51        52
         2        16        43        51        52
         2        16        42        43        51
         2        17        22        23        52
         2        16        17        23        52
         2        16        17        43        52
         2        17        22        52        53
         2        17        44        52        53
         2        17        43        44        52
         2        18        21        22        53
         2        17        18        22        53
         2        17        18        44        53
         2        18        21        53        54
         2        18        45        53        54
         2        18        44        45        53
         2        19        20        21        54
         2        18        19        21        54
         2        18        19        45        54
         2        19        20        54        55
         2        19        46        54        55
         2        19        45        46        54
         4        19        20        20        55
         2        19        20        46        55
         2        19        20        55        56
         2        20        47        55        56
         2        20        46        47        55
         2        18        19        21        56
         2        19        20        21        56
         2        20        21        47        56
         2        18        21        56        57
         2        21        48        56        57
         2        21        47        48        56
         2        17        18        22        57
         2        18        21        22        57
         2        21        22        48        57
         2        17        22        57        58
         2        22        49        57        58
         2        22        48        49        57
         2        16        17        23        58
         2        17        22        23        58
         2        22        23        49        58
         2        16        23        58        59
         2        23        50        58        59
         2        23        49        50        58
         2        15        15        16        59
         2        15        16        23        59
         2        15        23        50        59
         2        15        15        51        59
         2        15        42        51        59
         2        15        42        50        59
         2         6        14        23        60
         2         6        15        23        60
         2        15        23        51        60
         2        14        23        60        61
         2        23        52        60        61
         2        23        51        52        60
         2        13        14        22        61
         2        14        22        23        61
         2        22        23        52        61
         2        13        22        61        62
         2        22        53        61        62
         2        22        52        53        61
         2        12        13        21        62
         2        13        21        22        62
         2        21        22        53        62
         2        12        21        62        63
         2        21        54        62        63
         2        21        53        54        62
         2        11        12        20        63
         2        12        20        21        63
         2        20        21        54        63
         2        11        20        63        64
         2        20        55        63        64
         2        20        54        55        63
         2        10        11        19        64
         2        11        19        20        64
         2        19        20        55        64
         2        10        19        64        65
         2        19        56        64        65
         2        19        55        56        64
         2         9        10        18        65
         2        10        18        19        65
         2        18        19        56        65
         2         9        18        65        66
         2        18        57        65        66
         2        18        56        57        65
         2         8         9        17        66
         2         9        17        18        66
         2        17        18        57        66
         2         8        17        66        67
         2        17        58        66        67
         2        17        57        58        66
         2         7         8        16        67
         2         8        16        17        67
         2        16        17        58        67
         2         7        16        67        68
         2        16        59        67        68
         2        16        58        59        67
         2         6         7        15        68
         2         7        15        16        68
         2        15        16        59        68
         2         6        15        60        68
         2        15        51        60        68
         2        15        51        59        68
         2         1         2        14        24
         2         1         6        14        24
         2         6        14        24        60
         2         2        14        24        25
         2        14        24        25        61
         2        14        24        60        61
         2         2         3        13        25
         2         2        13        14        25
         2        13        14        25        61
         2         3        13        25        26
         2        13        25        26        62
         2        13        25        61        62
         2         3         4        12        26
         2         3        12        13        26
         2        12        13        26        62
         2         4        12        26        27
         2        12        26        27        63
         2        12        26        62        63
         2         4         5        11        27
         2         4        11        12        27
         2        11        12        27        63
         2         5        11        27        28
         2        11        27        28        64
         2        11        27        63        64
         2         5         5        10        28
         2         5        10        11        28
         2        10        11        28        64
         2         5        10        28        29
         2        10        28        29        65
         2        10        28        64        65
         2         4         5         9        29
         2         5         9        10        29
         2         9        10        29        65
         2         4         9        29        30
         2         9        29        30        66
         2         9        29        65        66
         2         3         4         8        30
         2         4         8         9        30
         2         8         9        30        66
         2         3         8        30        31
         2         8        30        31        67
         2         8        30        66        67
         2         2         3         7        31
         2         3         7         8        31
         2         7         8        31        67
         2         2         7        31        32
         2         7        31        32        68
         2         7        31        67        68
         2         1         2         6        32
         2         2         6         7        32
         2         6         7        32        68
         2         1         6        24        32
         2         6        24        32        60
         2         6        32        60        68
         2        25        33        34        60
         2        24        25        33        60
         2        24        24        25        60
         2        25        34        60        68
         2        25        32        60        68
         2        24        25        32        60
         2        26        34        35        68
         2        25        26        34        68
         2        25        26        32        68
         2        26        35        67        68
         2        26        31        67        68
         2        26        31        32        68
         2        27        35        36        67
         2        26        27        35        67
         2        26        27        31        67
         2        27        36        66        67
         2        27        30        66        67
         2        27        30        31        67
         2        28        36        37        66
         2        27        28        36        66
         2        27        28        30        66
         2        28        37        65        66
         2        28        29        65        66
         2        28        29        30        66
         2        29        37        38        65
         2        28        29        37        65
         4        28        29        29        65
         2        29        38        64        65
         2        28        29        64        65
         2        30        38        39        64
         2        29        30        38        64
         2        28        29        30        64
         2        30        39        63        64
         2        27        30        63        64
         2        27        28        30        64
         2        31        39        40        63
         2        30        31        39        63
         2        27        30        31        63
         2        31        40        62        63
         2        26        31        62        63
         2        26        27        31        63
         2        32        40        41        62
         2        31        32        40        62
         2        26        31        32        62
         2        32        41        61        62
         2        25        32        61        62
         2        25        26        32        62
         2        24        33        41        61
         2        24        32        41        61
         2        24        25        32        61
         2        24        33        60        61
         2        24        24        60        61
         2        24        24        25        61
         2        34        42        43        51
         2        33        34        42        51
         2        33        34        51        60
         2        34        43        51        59
         2        34        51        59        68
         2        34        51        60        68
         2        35        43        44        59
         2        34        35        43        59
         2        34        35        59        68
         2        35        44        58        59
         2        35        58        59        67
         2        35        59        67        68
         2        36        44        45        58
         2        35        36        44        58
         2        35        36        58        67
         2        36        45        57        58
         2        36        57        58        66
         2        36        58        66        67
         2        37        45        46        57
         2        36        37        45        57
         2        36        37        57        66
         2        37        46        56        57
         2        37        56        57        65
         2        37        57        65        66
         2        38        46        47        56
         2        37        38        46        56
         2        37        38        56        65
         2        38        47        55        56
         2        38        55        56        64
         2        38        56        64        65
         2        39        47        48        55
         2        38        39        47        55
         2        38        39        55        64
         2        39        48        54        55
         2        39        54        55        63
         2        39        55        63        64
         2        40        48        49        54
         2        39        40        48        54
         2        39        40        54        63
         2        40        49        53        54
         2        40        53        54        62
         2        40        54        62        63
         2        41        49        50        53
         2        40        41        49        53
         2        40        41        53        62
         2        41        50        52        53
         2        41        52        53        61
         2        41        53        61        62
         2        33        42        50        52
         2        33        41        50        52
         2        33        41        52        61
         2        33        42        51        52
         2        33        51        52        60
         2        33        52        60        61
         2        42        43        51        52
         4        42        42        43        51
         2        42        43        50        52
         2        42        43        50        59
         2        42        43        51        59
         2        44        50        52        53
         2        43        44        50        52
         2        43        44        50        59
         2        44        49        50        53
         2        44        49        50        58
         2        44        50        58        59
         2        45        49        53        54
         2        44        45        49        53
         2        44        45        49        58
         2        45        48        49        54
         2        45        48        49        57
         2        45        49        57        58
         2        46        48        54        55
         2        45        46        48        54
         2        45        46        48        57
         2        46        47        48        55
         2        46        47        48        56
         2        46        48        56        57
         2        47        47        55        56
         2        46        47        47        55
         2        46        47        47        56
