  14  14   1   0
  0.8032664E+01  0.3355832E-09  0.5763021E-09  0.6783891E-09  0.5000000E-15
  1.000000000000000E-004
  CAR 
 unknown system                          
     12.15847225    -36.84940087  301      0.66618406      1.00000000
    -36.849  0.0000E+00  0.0000E+00  0.0000E+00  0.0000E+00
    -36.686  0.0000E+00  0.0000E+00  0.0000E+00  0.0000E+00
    -36.523  0.0000E+00  0.0000E+00  0.0000E+00  0.0000E+00
    -36.359  0.0000E+00  0.0000E+00  0.0000E+00  0.0000E+00
    -36.196  0.0000E+00  0.0000E+00  0.0000E+00  0.0000E+00
    -36.033  0.0000E+00  0.0000E+00  0.0000E+00  0.0000E+00
    -35.869  0.0000E+00  0.0000E+00  0.0000E+00  0.0000E+00
    -35.706  0.0000E+00  0.0000E+00  0.0000E+00  0.0000E+00
    -35.543  0.0000E+00  0.0000E+00  0.0000E+00  0.0000E+00
    -35.379  0.0000E+00  0.0000E+00  0.0000E+00  0.0000E+00
    -35.216  0.0000E+00  0.0000E+00  0.0000E+00  0.0000E+00
    -35.052  0.0000E+00  0.0000E+00  0.0000E+00  0.0000E+00
    -34.889  0.0000E+00  0.0000E+00  0.0000E+00  0.0000E+00
    -34.726  0.0000E+00  0.0000E+00  0.0000E+00  0.0000E+00
    -34.562  0.1306E+00  0.1306E+00  0.8358E-02  0.8358E-02
    -34.399  0.0000E+00  0.0000E+00  0.1010E-01  0.1010E-01
    -34.236  0.0000E+00  0.0000E+00  0.1010E-01  0.1010E-01
    -34.072  0.0000E+00  0.0000E+00  0.1010E-01  0.1010E-01
    -33.909  0.0000E+00  0.0000E+00  0.1010E-01  0.1010E-01
    -33.746  0.0000E+00  0.0000E+00  0.1010E-01  0.1010E-01
    -33.582  0.0000E+00  0.0000E+00  0.1010E-01  0.1010E-01
    -33.419  0.0000E+00  0.0000E+00  0.1010E-01  0.1010E-01
    -33.255  0.0000E+00  0.0000E+00  0.1010E-01  0.1010E-01
    -33.092  0.0000E+00  0.0000E+00  0.1010E-01  0.1010E-01
    -32.929  0.0000E+00  0.0000E+00  0.1010E-01  0.1010E-01
    -32.765  0.0000E+00  0.0000E+00  0.1010E-01  0.1010E-01
    -32.602  0.0000E+00  0.0000E+00  0.1010E-01  0.1010E-01
    -32.439  0.0000E+00  0.0000E+00  0.1010E-01  0.1010E-01
    -32.275  0.0000E+00  0.0000E+00  0.1010E-01  0.1010E-01
    -32.112  0.0000E+00  0.0000E+00  0.1010E-01  0.1010E-01
    -31.949  0.0000E+00  0.0000E+00  0.1010E-01  0.1010E-01
    -31.785  0.0000E+00  0.0000E+00  0.1010E-01  0.1010E-01
    -31.622  0.0000E+00  0.0000E+00  0.1010E-01  0.1010E-01
    -31.459  0.0000E+00  0.0000E+00  0.1010E-01  0.1010E-01
    -31.295  0.0000E+00  0.0000E+00  0.1010E-01  0.1010E-01
    -31.132  0.0000E+00  0.0000E+00  0.1010E-01  0.1010E-01
    -30.968  0.0000E+00  0.0000E+00  0.1010E-01  0.1010E-01
    -30.805  0.0000E+00  0.0000E+00  0.1010E-01  0.1010E-01
    -30.642  0.0000E+00  0.0000E+00  0.1010E-01  0.1010E-01
    -30.478  0.0000E+00  0.0000E+00  0.1010E-01  0.1010E-01
    -30.315  0.0000E+00  0.0000E+00  0.2020E-01  0.2020E-01
    -30.152  0.0000E+00  0.0000E+00  0.3030E-01  0.3030E-01
    -29.988  0.0000E+00  0.0000E+00  0.4040E-01  0.4040E-01
    -29.825  0.0000E+00  0.0000E+00  0.4040E-01  0.4040E-01
    -29.662  0.0000E+00  0.0000E+00  0.4040E-01  0.4040E-01
    -29.498  0.0000E+00  0.0000E+00  0.4040E-01  0.4040E-01
    -29.335  0.0000E+00  0.0000E+00  0.4040E-01  0.4040E-01
    -29.172  0.0000E+00  0.0000E+00  0.4040E-01  0.4040E-01
    -29.008  0.0000E+00  0.0000E+00  0.4040E-01  0.4040E-01
    -28.845  0.0000E+00  0.0000E+00  0.4040E-01  0.4040E-01
    -28.681  0.0000E+00  0.0000E+00  0.4040E-01  0.4040E-01
    -28.518  0.0000E+00  0.0000E+00  0.4040E-01  0.4040E-01
    -28.355  0.0000E+00  0.0000E+00  0.4040E-01  0.4040E-01
    -28.191  0.0000E+00  0.0000E+00  0.4040E-01  0.4040E-01
    -28.028  0.0000E+00  0.0000E+00  0.4040E-01  0.4040E-01
    -27.865  0.0000E+00  0.0000E+00  0.4040E-01  0.4040E-01
    -27.701  0.0000E+00  0.0000E+00  0.4040E-01  0.4040E-01
    -27.538  0.0000E+00  0.0000E+00  0.4040E-01  0.4040E-01
    -27.375  0.0000E+00  0.0000E+00  0.4040E-01  0.4040E-01
    -27.211  0.0000E+00  0.0000E+00  0.4040E-01  0.4040E-01
    -27.048  0.0000E+00  0.0000E+00  0.4040E-01  0.4040E-01
    -26.884  0.0000E+00  0.0000E+00  0.4040E-01  0.4040E-01
    -26.721  0.0000E+00  0.0000E+00  0.4040E-01  0.4040E-01
    -26.558  0.0000E+00  0.0000E+00  0.4040E-01  0.4040E-01
    -26.394  0.0000E+00  0.0000E+00  0.4040E-01  0.4040E-01
    -26.231  0.0000E+00  0.0000E+00  0.4040E-01  0.4040E-01
    -26.068  0.0000E+00  0.0000E+00  0.4040E-01  0.4040E-01
    -25.904  0.0000E+00  0.0000E+00  0.4040E-01  0.4040E-01
    -25.741  0.0000E+00  0.0000E+00  0.4040E-01  0.4040E-01
    -25.578  0.0000E+00  0.0000E+00  0.4040E-01  0.4040E-01
    -25.414  0.0000E+00  0.0000E+00  0.4040E-01  0.4040E-01
    -25.251  0.0000E+00  0.0000E+00  0.4040E-01  0.4040E-01
    -25.088  0.0000E+00  0.0000E+00  0.4040E-01  0.4040E-01
    -24.924  0.0000E+00  0.0000E+00  0.4040E-01  0.4040E-01
    -24.761  0.0000E+00  0.0000E+00  0.4040E-01  0.4040E-01
    -24.597  0.0000E+00  0.0000E+00  0.4040E-01  0.4040E-01
    -24.434  0.0000E+00  0.0000E+00  0.4040E-01  0.4040E-01
    -24.271  0.0000E+00  0.0000E+00  0.4040E-01  0.4040E-01
    -24.107  0.0000E+00  0.0000E+00  0.4040E-01  0.4040E-01
    -23.944  0.0000E+00  0.0000E+00  0.4040E-01  0.4040E-01
    -23.781  0.0000E+00  0.0000E+00  0.4040E-01  0.4040E-01
    -23.617  0.0000E+00  0.0000E+00  0.4040E-01  0.4040E-01
    -23.454  0.0000E+00  0.0000E+00  0.4040E-01  0.4040E-01
    -23.291  0.0000E+00  0.0000E+00  0.4040E-01  0.4040E-01
    -23.127  0.0000E+00  0.0000E+00  0.4040E-01  0.4040E-01
    -22.964  0.0000E+00  0.0000E+00  0.4040E-01  0.4040E-01
    -22.800  0.0000E+00  0.0000E+00  0.4040E-01  0.4040E-01
    -22.637  0.0000E+00  0.0000E+00  0.4040E-01  0.4040E-01
    -22.474  0.0000E+00  0.0000E+00  0.4040E-01  0.4040E-01
    -22.310  0.0000E+00  0.0000E+00  0.4040E-01  0.4040E-01
    -22.147  0.0000E+00  0.0000E+00  0.4040E-01  0.4040E-01
    -21.984  0.0000E+00  0.0000E+00  0.4040E-01  0.4040E-01
    -21.820  0.0000E+00  0.0000E+00  0.4040E-01  0.4040E-01
    -21.657  0.0000E+00  0.0000E+00  0.4040E-01  0.4040E-01
    -21.494  0.0000E+00  0.0000E+00  0.4040E-01  0.4040E-01
    -21.330  0.0000E+00  0.0000E+00  0.4040E-01  0.4040E-01
    -21.167  0.0000E+00  0.0000E+00  0.4040E-01  0.4040E-01
    -21.004  0.0000E+00  0.0000E+00  0.4040E-01  0.4040E-01
    -20.840  0.0000E+00  0.0000E+00  0.4040E-01  0.4040E-01
    -20.677  0.0000E+00  0.0000E+00  0.4040E-01  0.4040E-01
    -20.513  0.0000E+00  0.0000E+00  0.4040E-01  0.4040E-01
    -20.350  0.0000E+00  0.0000E+00  0.4040E-01  0.4040E-01
    -20.187  0.0000E+00  0.0000E+00  0.4040E-01  0.4040E-01
    -20.023  0.0000E+00  0.0000E+00  0.4040E-01  0.4040E-01
    -19.860  0.0000E+00  0.0000E+00  0.4040E-01  0.4040E-01
    -19.697  0.0000E+00  0.0000E+00  0.4040E-01  0.4040E-01
    -19.533  0.0000E+00  0.0000E+00  0.4040E-01  0.4040E-01
    -19.370  0.0000E+00  0.0000E+00  0.4040E-01  0.4040E-01
    -19.207  0.0000E+00  0.0000E+00  0.4040E-01  0.4040E-01
    -19.043  0.0000E+00  0.0000E+00  0.4040E-01  0.4040E-01
    -18.880  0.0000E+00  0.0000E+00  0.4040E-01  0.4040E-01
    -18.716  0.0000E+00  0.0000E+00  0.4040E-01  0.4040E-01
    -18.553  0.0000E+00  0.0000E+00  0.4040E-01  0.4040E-01
    -18.390  0.0000E+00  0.0000E+00  0.4040E-01  0.4040E-01
    -18.226  0.0000E+00  0.0000E+00  0.4040E-01  0.4040E-01
    -18.063  0.0000E+00  0.0000E+00  0.4040E-01  0.4040E-01
    -17.900  0.0000E+00  0.0000E+00  0.4040E-01  0.4040E-01
    -17.736  0.0000E+00  0.0000E+00  0.4040E-01  0.4040E-01
    -17.573  0.0000E+00  0.0000E+00  0.4040E-01  0.4040E-01
    -17.410  0.0000E+00  0.0000E+00  0.4040E-01  0.4040E-01
    -17.246  0.0000E+00  0.0000E+00  0.4040E-01  0.4040E-01
    -17.083  0.0000E+00  0.0000E+00  0.4040E-01  0.4040E-01
    -16.920  0.1194E-01  0.1194E-01  0.4372E-01  0.4372E-01
    -16.756  0.0000E+00  0.0000E+00  0.5051E-01  0.5051E-01
    -16.593  0.4965E-01  0.4965E-01  0.6057E-01  0.6057E-01
    -16.429  0.1904E-01  0.1904E-01  0.6934E-01  0.6934E-01
    -16.266  0.0000E+00  0.0000E+00  0.7071E-01  0.7071E-01
    -16.103  0.0000E+00  0.0000E+00  0.7071E-01  0.7071E-01
    -15.939  0.0000E+00  0.0000E+00  0.7071E-01  0.7071E-01
    -15.776  0.0000E+00  0.0000E+00  0.7071E-01  0.7071E-01
    -15.613  0.0000E+00  0.0000E+00  0.7071E-01  0.7071E-01
    -15.449  0.0000E+00  0.0000E+00  0.7071E-01  0.7071E-01
    -15.286  0.0000E+00  0.0000E+00  0.7071E-01  0.7071E-01
    -15.123  0.0000E+00  0.0000E+00  0.7071E-01  0.7071E-01
    -14.959  0.0000E+00  0.0000E+00  0.7071E-01  0.7071E-01
    -14.796  0.0000E+00  0.0000E+00  0.7071E-01  0.7071E-01
    -14.632  0.0000E+00  0.0000E+00  0.7071E-01  0.7071E-01
    -14.469  0.0000E+00  0.0000E+00  0.7071E-01  0.7071E-01
    -14.306  0.0000E+00  0.0000E+00  0.7071E-01  0.7071E-01
    -14.142  0.0000E+00  0.0000E+00  0.7071E-01  0.7071E-01
    -13.979  0.0000E+00  0.0000E+00  0.7071E-01  0.7071E-01
    -13.816  0.0000E+00  0.0000E+00  0.7071E-01  0.7071E-01
    -13.652  0.0000E+00  0.0000E+00  0.7071E-01  0.7071E-01
    -13.489  0.0000E+00  0.0000E+00  0.7071E-01  0.7071E-01
    -13.326  0.0000E+00  0.0000E+00  0.7071E-01  0.7071E-01
    -13.162  0.0000E+00  0.0000E+00  0.7071E-01  0.7071E-01
    -12.999  0.0000E+00  0.0000E+00  0.7071E-01  0.7071E-01
    -12.836  0.0000E+00  0.0000E+00  0.7071E-01  0.7071E-01
    -12.672  0.0000E+00  0.0000E+00  0.7071E-01  0.7071E-01
    -12.509  0.0000E+00  0.0000E+00  0.7071E-01  0.7071E-01
    -12.345  0.0000E+00  0.0000E+00  0.7071E-01  0.7071E-01
    -12.182  0.0000E+00  0.0000E+00  0.7071E-01  0.7071E-01
    -12.019  0.0000E+00  0.0000E+00  0.7071E-01  0.7071E-01
    -11.855  0.0000E+00  0.0000E+00  0.7071E-01  0.7071E-01
    -11.692  0.0000E+00  0.0000E+00  0.7071E-01  0.7071E-01
    -11.529  0.0000E+00  0.0000E+00  0.7071E-01  0.7071E-01
    -11.365  0.0000E+00  0.0000E+00  0.7071E-01  0.7071E-01
    -11.202  0.0000E+00  0.0000E+00  0.7071E-01  0.7071E-01
    -11.039  0.0000E+00  0.0000E+00  0.7071E-01  0.7071E-01
    -10.875  0.0000E+00  0.0000E+00  0.7071E-01  0.7071E-01
    -10.712  0.0000E+00  0.0000E+00  0.7071E-01  0.7071E-01
    -10.549  0.0000E+00  0.0000E+00  0.7071E-01  0.7071E-01
    -10.385  0.0000E+00  0.0000E+00  0.7071E-01  0.7071E-01
    -10.222  0.0000E+00  0.0000E+00  0.7071E-01  0.7071E-01
    -10.058  0.0000E+00  0.0000E+00  0.7071E-01  0.7071E-01
     -9.895  0.0000E+00  0.0000E+00  0.7071E-01  0.7071E-01
     -9.732  0.0000E+00  0.0000E+00  0.7071E-01  0.7071E-01
     -9.568  0.0000E+00  0.0000E+00  0.7071E-01  0.7071E-01
     -9.405  0.0000E+00  0.0000E+00  0.7071E-01  0.7071E-01
     -9.242  0.0000E+00  0.0000E+00  0.7071E-01  0.7071E-01
     -9.078  0.0000E+00  0.0000E+00  0.7071E-01  0.7071E-01
     -8.915  0.0000E+00  0.0000E+00  0.7071E-01  0.7071E-01
     -8.752  0.4687E-04  0.4687E-04  0.7071E-01  0.7071E-01
     -8.588  0.3403E-02  0.3403E-02  0.7091E-01  0.7091E-01
     -8.425  0.9474E-02  0.9474E-02  0.7198E-01  0.7198E-01
     -8.261  0.1093E-01  0.1093E-01  0.7378E-01  0.7378E-01
     -8.098  0.8740E-02  0.8740E-02  0.7535E-01  0.7535E-01
     -7.935  0.9472E-02  0.9472E-02  0.7688E-01  0.7688E-01
     -7.771  0.1663E-01  0.1663E-01  0.7857E-01  0.7857E-01
     -7.608  0.1590E-01  0.1590E-01  0.8211E-01  0.8211E-01
     -7.445  0.1059E-01  0.1059E-01  0.8373E-01  0.8373E-01
     -7.281  0.9551E-02  0.9551E-02  0.8578E-01  0.8578E-01
     -7.118  0.9311E-02  0.9311E-02  0.8739E-01  0.8739E-01
     -6.955  0.3579E-01  0.3579E-01  0.8916E-01  0.8916E-01
     -6.791  0.1636E-02  0.1636E-02  0.9090E-01  0.9090E-01
     -6.628  0.0000E+00  0.0000E+00  0.9091E-01  0.9091E-01
     -6.465  0.0000E+00  0.0000E+00  0.9091E-01  0.9091E-01
     -6.301  0.1711E-01  0.1711E-01  0.9382E-01  0.9382E-01
     -6.138  0.2561E-01  0.2561E-01  0.9785E-01  0.9785E-01
     -5.974  0.7643E-02  0.7643E-02  0.1007E+00  0.1007E+00
     -5.811  0.9395E-03  0.9395E-03  0.1010E+00  0.1010E+00
     -5.648  0.7174E-02  0.7174E-02  0.1017E+00  0.1017E+00
     -5.484  0.9725E-02  0.9725E-02  0.1033E+00  0.1033E+00
     -5.321  0.5379E-02  0.5379E-02  0.1046E+00  0.1046E+00
     -5.158  0.4641E-02  0.4641E-02  0.1053E+00  0.1053E+00
     -4.994  0.4678E-02  0.4678E-02  0.1061E+00  0.1061E+00
     -4.831  0.4595E-02  0.4595E-02  0.1069E+00  0.1069E+00
     -4.668  0.4481E-02  0.4481E-02  0.1076E+00  0.1076E+00
     -4.504  0.4503E-02  0.4503E-02  0.1083E+00  0.1083E+00
     -4.341  0.4525E-02  0.4525E-02  0.1091E+00  0.1091E+00
     -4.177  0.1236E-01  0.1236E-01  0.1106E+00  0.1106E+00
     -4.014  0.0000E+00  0.0000E+00  0.1111E+00  0.1111E+00
     -3.851  0.1144E-01  0.1144E-01  0.1116E+00  0.1116E+00
     -3.687  0.3840E-01  0.3840E-01  0.1153E+00  0.1153E+00
     -3.524  0.2440E-01  0.2440E-01  0.1200E+00  0.1200E+00
     -3.361  0.8582E-02  0.8582E-02  0.1213E+00  0.1213E+00
     -3.197  0.1584E-01  0.1584E-01  0.1306E+00  0.1306E+00
     -3.034  0.0000E+00  0.0000E+00  0.1313E+00  0.1313E+00
     -2.871  0.0000E+00  0.0000E+00  0.1313E+00  0.1313E+00
     -2.707  0.1185E-01  0.1185E-01  0.1318E+00  0.1318E+00
     -2.544  0.3005E-01  0.3005E-01  0.1381E+00  0.1381E+00
     -2.381  0.2998E-02  0.2998E-02  0.1414E+00  0.1414E+00
     -2.217  0.1186E-01  0.1186E-01  0.1415E+00  0.1415E+00
     -2.054  0.4478E-01  0.4478E-01  0.1479E+00  0.1479E+00
     -1.890  0.0000E+00  0.0000E+00  0.1515E+00  0.1515E+00
     -1.727  0.1854E-01  0.1854E-01  0.1538E+00  0.1538E+00
     -1.564  0.8367E-02  0.8367E-02  0.1556E+00  0.1556E+00
     -1.400  0.2915E-02  0.2915E-02  0.1563E+00  0.1563E+00
     -1.237  0.2904E-02  0.2904E-02  0.1568E+00  0.1568E+00
     -1.074  0.2893E-02  0.2893E-02  0.1573E+00  0.1573E+00
     -0.910  0.2882E-02  0.2882E-02  0.1577E+00  0.1577E+00
     -0.747  0.2882E-02  0.2882E-02  0.1582E+00  0.1582E+00
     -0.584  0.3112E-02  0.3112E-02  0.1587E+00  0.1587E+00
     -0.420  0.3188E-02  0.3188E-02  0.1592E+00  0.1592E+00
     -0.257  0.9290E-02  0.9290E-02  0.1600E+00  0.1600E+00
     -0.093  0.1257E-01  0.1257E-01  0.1620E+00  0.1620E+00
      0.070  0.7658E-02  0.7658E-02  0.1634E+00  0.1634E+00
      0.233  0.6615E-02  0.6615E-02  0.1646E+00  0.1646E+00
      0.397  0.5594E-02  0.5594E-02  0.1656E+00  0.1656E+00
      0.560  0.3613E-02  0.3613E-02  0.1663E+00  0.1663E+00
      0.723  0.3226E-02  0.3226E-02  0.1669E+00  0.1669E+00
      0.887  0.3229E-02  0.3229E-02  0.1674E+00  0.1674E+00
      1.050  0.3232E-02  0.3232E-02  0.1679E+00  0.1679E+00
      1.213  0.3234E-02  0.3234E-02  0.1684E+00  0.1684E+00
      1.377  0.5961E-02  0.5961E-02  0.1691E+00  0.1691E+00
      1.540  0.5962E-02  0.5962E-02  0.1700E+00  0.1700E+00
      1.703  0.5964E-02  0.5964E-02  0.1710E+00  0.1710E+00
      1.867  0.0000E+00  0.0000E+00  0.1717E+00  0.1717E+00
      2.030  0.1366E-02  0.1366E-02  0.1717E+00  0.1717E+00
      2.194  0.2680E-02  0.2680E-02  0.1721E+00  0.1721E+00
      2.357  0.3990E-02  0.3990E-02  0.1726E+00  0.1726E+00
      2.520  0.4673E-02  0.4673E-02  0.1733E+00  0.1733E+00
      2.684  0.5446E-02  0.5446E-02  0.1741E+00  0.1741E+00
      2.847  0.1841E-01  0.1841E-01  0.1759E+00  0.1759E+00
      3.010  0.2521E-01  0.2521E-01  0.1797E+00  0.1797E+00
      3.174  0.2120E-01  0.2120E-01  0.1835E+00  0.1835E+00
      3.337  0.3055E-01  0.3055E-01  0.1871E+00  0.1871E+00
      3.500  0.2026E-01  0.2026E-01  0.1923E+00  0.1923E+00
      3.664  0.3040E-01  0.3040E-01  0.1965E+00  0.1965E+00
      3.827  0.2164E-01  0.2164E-01  0.2007E+00  0.2007E+00
      3.990  0.4311E-02  0.4311E-02  0.2025E+00  0.2025E+00
      4.154  0.1435E-01  0.1435E-01  0.2041E+00  0.2041E+00
      4.317  0.3657E-01  0.3657E-01  0.2084E+00  0.2084E+00
      4.481  0.1674E-01  0.1674E-01  0.2133E+00  0.2133E+00
      4.644  0.1690E-01  0.1690E-01  0.2158E+00  0.2158E+00
      4.807  0.3206E-01  0.3206E-01  0.2198E+00  0.2198E+00
      4.971  0.3109E-02  0.3109E-02  0.2221E+00  0.2221E+00
      5.134  0.2719E-01  0.2719E-01  0.2244E+00  0.2244E+00
      5.297  0.2065E-01  0.2065E-01  0.2293E+00  0.2293E+00
      5.461  0.6840E-02  0.6840E-02  0.2307E+00  0.2307E+00
      5.624  0.3798E-01  0.3798E-01  0.2332E+00  0.2332E+00
      5.787  0.1259E-01  0.1259E-01  0.2402E+00  0.2402E+00
      5.951  0.2323E-01  0.2323E-01  0.2426E+00  0.2426E+00
      6.114  0.2948E-01  0.2948E-01  0.2479E+00  0.2479E+00
      6.278  0.1022E-01  0.1022E-01  0.2512E+00  0.2512E+00
      6.441  0.2921E-01  0.2921E-01  0.2545E+00  0.2545E+00
      6.604  0.2722E-01  0.2722E-01  0.2596E+00  0.2596E+00
      6.768  0.2599E-01  0.2599E-01  0.2627E+00  0.2627E+00
      6.931  0.3859E-01  0.3859E-01  0.2693E+00  0.2693E+00
      7.094  0.2929E-01  0.2929E-01  0.2740E+00  0.2740E+00
      7.258  0.2456E-01  0.2456E-01  0.2789E+00  0.2789E+00
      7.421  0.1427E-01  0.1427E-01  0.2813E+00  0.2813E+00
      7.584  0.2410E-01  0.2410E-01  0.2846E+00  0.2846E+00
      7.748  0.2124E-01  0.2124E-01  0.2889E+00  0.2889E+00
      7.911  0.2068E-01  0.2068E-01  0.2924E+00  0.2924E+00
      8.074  0.1911E-01  0.1911E-01  0.2952E+00  0.2952E+00
      8.238  0.2170E-01  0.2170E-01  0.2993E+00  0.2993E+00
      8.401  0.1470E-01  0.1470E-01  0.3024E+00  0.3024E+00
      8.565  0.1994E-01  0.1994E-01  0.3046E+00  0.3046E+00
      8.728  0.2584E-01  0.2584E-01  0.3084E+00  0.3084E+00
      8.891  0.1433E-01  0.1433E-01  0.3123E+00  0.3123E+00
      9.055  0.9792E-02  0.9792E-02  0.3141E+00  0.3141E+00
      9.218  0.1551E-01  0.1551E-01  0.3164E+00  0.3164E+00
      9.381  0.2248E-01  0.2248E-01  0.3196E+00  0.3196E+00
      9.545  0.7589E-02  0.7589E-02  0.3225E+00  0.3225E+00
      9.708  0.1555E-02  0.1555E-02  0.3231E+00  0.3231E+00
      9.871  0.1106E-03  0.1106E-03  0.3232E+00  0.3232E+00
     10.035  0.0000E+00  0.0000E+00  0.3232E+00  0.3232E+00
     10.198  0.0000E+00  0.0000E+00  0.3232E+00  0.3232E+00
     10.362  0.0000E+00  0.0000E+00  0.3232E+00  0.3232E+00
     10.525  0.0000E+00  0.0000E+00  0.3232E+00  0.3232E+00
     10.688  0.0000E+00  0.0000E+00  0.3232E+00  0.3232E+00
     10.852  0.0000E+00  0.0000E+00  0.3232E+00  0.3232E+00
     11.015  0.0000E+00  0.0000E+00  0.3232E+00  0.3232E+00
     11.178  0.0000E+00  0.0000E+00  0.3232E+00  0.3232E+00
     11.342  0.0000E+00  0.0000E+00  0.3232E+00  0.3232E+00
     11.505  0.0000E+00  0.0000E+00  0.3232E+00  0.3232E+00
     11.668  0.0000E+00  0.0000E+00  0.3232E+00  0.3232E+00
     11.832  0.0000E+00  0.0000E+00  0.3232E+00  0.3232E+00
     11.995  0.0000E+00  0.0000E+00  0.3232E+00  0.3232E+00
     12.158  0.0000E+00  0.0000E+00  0.3232E+00  0.3232E+00
     12.15847225    -36.84940087  301      0.66618406      1.00000000
    -36.849  0.0000E+00  0.0000E+00  0.0000E+00  0.0000E+00  0.0000E+00  0.0000E+00  0.0000E+00  0.0000E+00  0.0000E+00  0.0000E+00  0.0000E+00  0.0000E+00  0.0000E+00  0.0000E+00  0.0000E+00  0.0000E+00  0.0000E+00  0.0000E+00
    -36.686  0.0000E+00  0.0000E+00  0.0000E+00  0.0000E+00  0.0000E+00  0.0000E+00  0.0000E+00  0.0000E+00  0.0000E+00  0.0000E+00  0.0000E+00  0.0000E+00  0.0000E+00  0.0000E+00  0.0000E+00  0.0000E+00  0.0000E+00  0.0000E+00
    -36.523  0.0000E+00  0.0000E+00  0.0000E+00  0.0000E+00  0.0000E+00  0.0000E+00  0.0000E+00  0.0000E+00  0.0000E+00  0.0000E+00  0.0000E+00  0.0000E+00  0.0000E+00  0.0000E+00  0.0000E+00  0.0000E+00  0.0000E+00  0.0000E+00
    -36.359  0.0000E+00  0.0000E+00  0.0000E+00  0.0000E+00  0.0000E+00  0.0000E+00  0.0000E+00  0.0000E+00  0.0000E+00  0.0000E+00  0.0000E+00  0.0000E+00  0.0000E+00  0.0000E+00  0.0000E+00  0.0000E+00  0.0000E+00  0.0000E+00
    -36.196  0.0000E+00  0.0000E+00  0.0000E+00  0.0000E+00  0.0000E+00  0.0000E+00  0.0000E+00  0.0000E+00  0.0000E+00  0.0000E+00  0.0000E+00  0.0000E+00  0.0000E+00  0.0000E+00  0.0000E+00  0.0000E+00  0.0000E+00  0.0000E+00
    -36.033  0.0000E+00  0.0000E+00  0.0000E+00  0.0000E+00  0.0000E+00  0.0000E+00  0.0000E+00  0.0000E+00  0.0000E+00  0.0000E+00  0.0000E+00  0.0000E+00  0.0000E+00  0.0000E+00  0.0000E+00  0.0000E+00  0.0000E+00  0.0000E+00
    -35.869  0.0000E+00  0.0000E+00  0.0000E+00  0.0000E+00  0.0000E+00  0.0000E+00  0.0000E+00  0.0000E+00  0.0000E+00  0.0000E+00  0.0000E+00  0.0000E+00  0.0000E+00  0.0000E+00  0.0000E+00  0.0000E+00  0.0000E+00  0.0000E+00
    -35.706  0.0000E+00  0.0000E+00  0.0000E+00  0.0000E+00  0.0000E+00  0.0000E+00  0.0000E+00  0.0000E+00  0.0000E+00  0.0000E+00  0.0000E+00  0.0000E+00  0.0000E+00  0.0000E+00  0.0000E+00  0.0000E+00  0.0000E+00  0.0000E+00
    -35.543  0.0000E+00  0.0000E+00  0.0000E+00  0.0000E+00  0.0000E+00  0.0000E+00  0.0000E+00  0.0000E+00  0.0000E+00  0.0000E+00  0.0000E+00  0.0000E+00  0.0000E+00  0.0000E+00  0.0000E+00  0.0000E+00  0.0000E+00  0.0000E+00
    -35.379  0.0000E+00  0.0000E+00  0.0000E+00  0.0000E+00  0.0000E+00  0.0000E+00  0.0000E+00  0.0000E+00  0.0000E+00  0.0000E+00  0.0000E+00  0.0000E+00  0.0000E+00  0.0000E+00  0.0000E+00  0.0000E+00  0.0000E+00  0.0000E+00
    -35.216  0.0000E+00  0.0000E+00  0.0000E+00  0.0000E+00  0.0000E+00  0.0000E+00  0.0000E+00  0.0000E+00  0.0000E+00  0.0000E+00  0.0000E+00  0.0000E+00  0.0000E+00  0.0000E+00  0.0000E+00  0.0000E+00  0.0000E+00  0.0000E+00
    -35.052  0.0000E+00  0.0000E+00  0.0000E+00  0.0000E+00  0.0000E+00  0.0000E+00  0.0000E+00  0.0000E+00  0.0000E+00  0.0000E+00  0.0000E+00  0.0000E+00  0.0000E+00  0.0000E+00  0.0000E+00  0.0000E+00  0.0000E+00  0.0000E+00
    -34.889  0.0000E+00  0.0000E+00  0.0000E+00  0.0000E+00  0.0000E+00  0.0000E+00  0.0000E+00  0.0000E+00  0.0000E+00  0.0000E+00  0.0000E+00  0.0000E+00  0.0000E+00  0.0000E+00  0.0000E+00  0.0000E+00  0.0000E+00  0.0000E+00
    -34.726  0.0000E+00  0.0000E+00  0.0000E+00  0.0000E+00  0.0000E+00  0.0000E+00  0.0000E+00  0.0000E+00  0.0000E+00  0.0000E+00  0.0000E+00  0.0000E+00  0.0000E+00  0.0000E+00  0.0000E+00  0.0000E+00  0.0000E+00  0.0000E+00
    -34.562  0.1266E+02  0.1266E+02  0.1075E-02  0.1075E-02  0.1356E-04  0.1356E-04  0.7362E-04  0.7362E-04  0.3252E-07  0.3252E-07  0.5568E-05  0.5568E-05  0.7578E-04  0.7578E-04  0.2123E-05  0.2123E-05  0.5439E-04  0.5439E-04
    -34.399  0.0000E+00  0.0000E+00  0.0000E+00  0.0000E+00  0.0000E+00  0.0000E+00  0.0000E+00  0.0000E+00  0.0000E+00  0.0000E+00  0.0000E+00  0.0000E+00  0.0000E+00  0.0000E+00  0.0000E+00  0.0000E+00  0.0000E+00  0.0000E+00
    -34.236  0.0000E+00  0.0000E+00  0.0000E+00  0.0000E+00  0.0000E+00  0.0000E+00  0.0000E+00  0.0000E+00  0.0000E+00  0.0000E+00  0.0000E+00  0.0000E+00  0.0000E+00  0.0000E+00  0.0000E+00  0.0000E+00  0.0000E+00  0.0000E+00
    -34.072  0.0000E+00  0.0000E+00  0.0000E+00  0.0000E+00  0.0000E+00  0.0000E+00  0.0000E+00  0.0000E+00  0.0000E+00  0.0000E+00  0.0000E+00  0.0000E+00  0.0000E+00  0.0000E+00  0.0000E+00  0.0000E+00  0.0000E+00  0.0000E+00
    -33.909  0.0000E+00  0.0000E+00  0.0000E+00  0.0000E+00  0.0000E+00  0.0000E+00  0.0000E+00  0.0000E+00  0.0000E+00  0.0000E+00  0.0000E+00  0.0000E+00  0.0000E+00  0.0000E+00  0.0000E+00  0.0000E+00  0.0000E+00  0.0000E+00
    -33.746  0.0000E+00  0.0000E+00  0.0000E+00  0.0000E+00  0.0000E+00  0.0000E+00  0.0000E+00  0.0000E+00  0.0000E+00  0.0000E+00  0.0000E+00  0.0000E+00  0.0000E+00  0.0000E+00  0.0000E+00  0.0000E+00  0.0000E+00  0.0000E+00
    -33.582  0.0000E+00  0.0000E+00  0.0000E+00  0.0000E+00  0.0000E+00  0.0000E+00  0.0000E+00  0.0000E+00  0.0000E+00  0.0000E+00  0.0000E+00  0.0000E+00  0.0000E+00  0.0000E+00  0.0000E+00  0.0000E+00  0.0000E+00  0.0000E+00
    -33.419  0.0000E+00  0.0000E+00  0.0000E+00  0.0000E+00  0.0000E+00  0.0000E+00  0.0000E+00  0.0000E+00  0.0000E+00  0.0000E+00  0.0000E+00  0.0000E+00  0.0000E+00  0.0000E+00  0.0000E+00  0.0000E+00  0.0000E+00  0.0000E+00
    -33.255  0.0000E+00  0.0000E+00  0.0000E+00  0.0000E+00  0.0000E+00  0.0000E+00  0.0000E+00  0.0000E+00  0.0000E+00  0.0000E+00  0.0000E+00  0.0000E+00  0.0000E+00  0.0000E+00  0.0000E+00  0.0000E+00  0.0000E+00  0.0000E+00
    -33.092  0.0000E+00  0.0000E+00  0.0000E+00  0.0000E+00  0.0000E+00  0.0000E+00  0.0000E+00  0.0000E+00  0.0000E+00  0.0000E+00  0.0000E+00  0.0000E+00  0.0000E+00  0.0000E+00  0.0000E+00  0.0000E+00  0.0000E+00  0.0000E+00
    -32.929  0.0000E+00  0.0000E+00  0.0000E+00  0.0000E+00  0.0000E+00  0.0000E+00  0.0000E+00  0.0000E+00  0.0000E+00  0.0000E+00  0.0000E+00  0.0000E+00  0.0000E+00  0.0000E+00  0.0000E+00  0.0000E+00  0.0000E+00  0.0000E+00
    -32.765  0.0000E+00  0.0000E+00  0.0000E+00  0.0000E+00  0.0000E+00  0.0000E+00  0.0000E+00  0.0000E+00  0.0000E+00  0.0000E+00  0.0000E+00  0.0000E+00  0.0000E+00  0.0000E+00  0.0000E+00  0.0000E+00  0.0000E+00  0.0000E+00
    -32.602  0.0000E+00  0.0000E+00  0.0000E+00  0.0000E+00  0.0000E+00  0.0000E+00  0.0000E+00  0.0000E+00  0.0000E+00  0.0000E+00  0.0000E+00  0.0000E+00  0.0000E+00  0.0000E+00  0.0000E+00  0.0000E+00  0.0000E+00  0.0000E+00
    -32.439  0.0000E+00  0.0000E+00  0.0000E+00  0.0000E+00  0.0000E+00  0.0000E+00  0.0000E+00  0.0000E+00  0.0000E+00  0.0000E+00  0.0000E+00  0.0000E+00  0.0000E+00  0.0000E+00  0.0000E+00  0.0000E+00  0.0000E+00  0.0000E+00
    -32.275  0.0000E+00  0.0000E+00  0.0000E+00  0.0000E+00  0.0000E+00  0.0000E+00  0.0000E+00  0.0000E+00  0.0000E+00  0.0000E+00  0.0000E+00  0.0000E+00  0.0000E+00  0.0000E+00  0.0000E+00  0.0000E+00  0.0000E+00  0.0000E+00
    -32.112  0.0000E+00  0.0000E+00  0.0000E+00  0.0000E+00  0.0000E+00  0.0000E+00  0.0000E+00  0.0000E+00  0.0000E+00  0.0000E+00  0.0000E+00  0.0000E+00  0.0000E+00  0.0000E+00  0.0000E+00  0.0000E+00  0.0000E+00  0.0000E+00
    -31.949  0.0000E+00  0.0000E+00  0.0000E+00  0.0000E+00  0.0000E+00  0.0000E+00  0.0000E+00  0.0000E+00  0.0000E+00  0.0000E+00  0.0000E+00  0.0000E+00  0.0000E+00  0.0000E+00  0.0000E+00  0.0000E+00  0.0000E+00  0.0000E+00
    -31.785  0.0000E+00  0.0000E+00  0.0000E+00  0.0000E+00  0.0000E+00  0.0000E+00  0.0000E+00  0.0000E+00  0.0000E+00  0.0000E+00  0.0000E+00  0.0000E+00  0.0000E+00  0.0000E+00  0.0000E+00  0.0000E+00  0.0000E+00  0.0000E+00
    -31.622  0.0000E+00  0.0000E+00  0.0000E+00  0.0000E+00  0.0000E+00  0.0000E+00  0.0000E+00  0.0000E+00  0.0000E+00  0.0000E+00  0.0000E+00  0.0000E+00  0.0000E+00  0.0000E+00  0.0000E+00  0.0000E+00  0.0000E+00  0.0000E+00
    -31.459  0.0000E+00  0.0000E+00  0.0000E+00  0.0000E+00  0.0000E+00  0.0000E+00  0.0000E+00  0.0000E+00  0.0000E+00  0.0000E+00  0.0000E+00  0.0000E+00  0.0000E+00  0.0000E+00  0.0000E+00  0.0000E+00  0.0000E+00  0.0000E+00
    -31.295  0.0000E+00  0.0000E+00  0.0000E+00  0.0000E+00  0.0000E+00  0.0000E+00  0.0000E+00  0.0000E+00  0.0000E+00  0.0000E+00  0.0000E+00  0.0000E+00  0.0000E+00  0.0000E+00  0.0000E+00  0.0000E+00  0.0000E+00  0.0000E+00
    -31.132  0.0000E+00  0.0000E+00  0.0000E+00  0.0000E+00  0.0000E+00  0.0000E+00  0.0000E+00  0.0000E+00  0.0000E+00  0.0000E+00  0.0000E+00  0.0000E+00  0.0000E+00  0.0000E+00  0.0000E+00  0.0000E+00  0.0000E+00  0.0000E+00
    -30.968  0.0000E+00  0.0000E+00  0.0000E+00  0.0000E+00  0.0000E+00  0.0000E+00  0.0000E+00  0.0000E+00  0.0000E+00  0.0000E+00  0.0000E+00  0.0000E+00  0.0000E+00  0.0000E+00  0.0000E+00  0.0000E+00  0.0000E+00  0.0000E+00
    -30.805  0.0000E+00  0.0000E+00  0.0000E+00  0.0000E+00  0.0000E+00  0.0000E+00  0.0000E+00  0.0000E+00  0.0000E+00  0.0000E+00  0.0000E+00  0.0000E+00  0.0000E+00  0.0000E+00  0.0000E+00  0.0000E+00  0.0000E+00  0.0000E+00
    -30.642  0.0000E+00  0.0000E+00  0.0000E+00  0.0000E+00  0.0000E+00  0.0000E+00  0.0000E+00  0.0000E+00  0.0000E+00  0.0000E+00  0.0000E+00  0.0000E+00  0.0000E+00  0.0000E+00  0.0000E+00  0.0000E+00  0.0000E+00  0.0000E+00
    -30.478  0.0000E+00  0.0000E+00  0.0000E+00  0.0000E+00  0.0000E+00  0.0000E+00  0.0000E+00  0.0000E+00  0.0000E+00  0.0000E+00  0.0000E+00  0.0000E+00  0.0000E+00  0.0000E+00  0.0000E+00  0.0000E+00  0.0000E+00  0.0000E+00
    -30.315  0.0000E+00  0.0000E+00  0.0000E+00  0.0000E+00  0.0000E+00  0.0000E+00  0.0000E+00  0.0000E+00  0.0000E+00  0.0000E+00  0.0000E+00  0.0000E+00  0.0000E+00  0.0000E+00  0.0000E+00  0.0000E+00  0.0000E+00  0.0000E+00
    -30.152  0.0000E+00  0.0000E+00  0.0000E+00  0.0000E+00  0.0000E+00  0.0000E+00  0.0000E+00  0.0000E+00  0.0000E+00  0.0000E+00  0.0000E+00  0.0000E+00  0.0000E+00  0.0000E+00  0.0000E+00  0.0000E+00  0.0000E+00  0.0000E+00
    -29.988  0.0000E+00  0.0000E+00  0.0000E+00  0.0000E+00  0.0000E+00  0.0000E+00  0.0000E+00  0.0000E+00  0.0000E+00  0.0000E+00  0.0000E+00  0.0000E+00  0.0000E+00  0.0000E+00  0.0000E+00  0.0000E+00  0.0000E+00  0.0000E+00
    -29.825  0.0000E+00  0.0000E+00  0.0000E+00  0.0000E+00  0.0000E+00  0.0000E+00  0.0000E+00  0.0000E+00  0.0000E+00  0.0000E+00  0.0000E+00  0.0000E+00  0.0000E+00  0.0000E+00  0.0000E+00  0.0000E+00  0.0000E+00  0.0000E+00
    -29.662  0.0000E+00  0.0000E+00  0.0000E+00  0.0000E+00  0.0000E+00  0.0000E+00  0.0000E+00  0.0000E+00  0.0000E+00  0.0000E+00  0.0000E+00  0.0000E+00  0.0000E+00  0.0000E+00  0.0000E+00  0.0000E+00  0.0000E+00  0.0000E+00
    -29.498  0.0000E+00  0.0000E+00  0.0000E+00  0.0000E+00  0.0000E+00  0.0000E+00  0.0000E+00  0.0000E+00  0.0000E+00  0.0000E+00  0.0000E+00  0.0000E+00  0.0000E+00  0.0000E+00  0.0000E+00  0.0000E+00  0.0000E+00  0.0000E+00
    -29.335  0.0000E+00  0.0000E+00  0.0000E+00  0.0000E+00  0.0000E+00  0.0000E+00  0.0000E+00  0.0000E+00  0.0000E+00  0.0000E+00  0.0000E+00  0.0000E+00  0.0000E+00  0.0000E+00  0.0000E+00  0.0000E+00  0.0000E+00  0.0000E+00
    -29.172  0.0000E+00  0.0000E+00  0.0000E+00  0.0000E+00  0.0000E+00  0.0000E+00  0.0000E+00  0.0000E+00  0.0000E+00  0.0000E+00  0.0000E+00  0.0000E+00  0.0000E+00  0.0000E+00  0.0000E+00  0.0000E+00  0.0000E+00  0.0000E+00
    -29.008  0.0000E+00  0.0000E+00  0.0000E+00  0.0000E+00  0.0000E+00  0.0000E+00  0.0000E+00  0.0000E+00  0.0000E+00  0.0000E+00  0.0000E+00  0.0000E+00  0.0000E+00  0.0000E+00  0.0000E+00  0.0000E+00  0.0000E+00  0.0000E+00
    -28.845  0.0000E+00  0.0000E+00  0.0000E+00  0.0000E+00  0.0000E+00  0.0000E+00  0.0000E+00  0.0000E+00  0.0000E+00  0.0000E+00  0.0000E+00  0.0000E+00  0.0000E+00  0.0000E+00  0.0000E+00  0.0000E+00  0.0000E+00  0.0000E+00
    -28.681  0.0000E+00  0.0000E+00  0.0000E+00  0.0000E+00  0.0000E+00  0.0000E+00  0.0000E+00  0.0000E+00  0.0000E+00  0.0000E+00  0.0000E+00  0.0000E+00  0.0000E+00  0.0000E+00  0.0000E+00  0.0000E+00  0.0000E+00  0.0000E+00