  20  20   1   0
  0.8265125E+01  0.5144349E-09  0.5594282E-09  0.5834900E-09  0.5000000E-15
  1.000000000000000E-004
  CAR 
 unknown system                          
     15.30239835    -34.56558611  301      2.76902804      1.00000000
    -34.566  0.0000E+00  0.0000E+00  0.0000E+00  0.0000E+00
    -34.399  0.0000E+00  0.0000E+00  0.0000E+00  0.0000E+00
    -34.233  0.0000E+00  0.0000E+00  0.0000E+00  0.0000E+00
    -34.067  0.0000E+00  0.0000E+00  0.0000E+00  0.0000E+00
    -33.901  0.0000E+00  0.0000E+00  0.0000E+00  0.0000E+00
    -33.734  0.0000E+00  0.0000E+00  0.0000E+00  0.0000E+00
    -33.568  0.0000E+00  0.0000E+00  0.0000E+00  0.0000E+00
    -33.402  0.0000E+00  0.0000E+00  0.0000E+00  0.0000E+00
    -33.236  0.0000E+00  0.0000E+00  0.0000E+00  0.0000E+00
    -33.070  0.0000E+00  0.0000E+00  0.0000E+00  0.0000E+00
    -32.903  0.0000E+00  0.0000E+00  0.0000E+00  0.0000E+00
    -32.737  0.0000E+00  0.0000E+00  0.0000E+00  0.0000E+00
    -32.571  0.0000E+00  0.0000E+00  0.0000E+00  0.0000E+00
    -32.405  0.0000E+00  0.0000E+00  0.0000E+00  0.0000E+00
    -32.238  0.0000E+00  0.0000E+00  0.1010E-01  0.1010E-01
    -32.072  0.0000E+00  0.0000E+00  0.1010E-01  0.1010E-01
    -31.906  0.0000E+00  0.0000E+00  0.1010E-01  0.1010E-01
    -31.740  0.0000E+00  0.0000E+00  0.1010E-01  0.1010E-01
    -31.574  0.0000E+00  0.0000E+00  0.1010E-01  0.1010E-01
    -31.407  0.0000E+00  0.0000E+00  0.1010E-01  0.1010E-01
    -31.241  0.0000E+00  0.0000E+00  0.1010E-01  0.1010E-01
    -31.075  0.0000E+00  0.0000E+00  0.1010E-01  0.1010E-01
    -30.909  0.0000E+00  0.0000E+00  0.1010E-01  0.1010E-01
    -30.742  0.0000E+00  0.0000E+00  0.1010E-01  0.1010E-01
    -30.576  0.0000E+00  0.0000E+00  0.1010E-01  0.1010E-01
    -30.410  0.0000E+00  0.0000E+00  0.1010E-01  0.1010E-01
    -30.244  0.0000E+00  0.0000E+00  0.1010E-01  0.1010E-01
    -30.077  0.0000E+00  0.0000E+00  0.1010E-01  0.1010E-01
    -29.911  0.0000E+00  0.0000E+00  0.1010E-01  0.1010E-01
    -29.745  0.0000E+00  0.0000E+00  0.1010E-01  0.1010E-01
    -29.579  0.0000E+00  0.0000E+00  0.1010E-01  0.1010E-01
    -29.413  0.0000E+00  0.0000E+00  0.1010E-01  0.1010E-01
    -29.246  0.0000E+00  0.0000E+00  0.1010E-01  0.1010E-01
    -29.080  0.0000E+00  0.0000E+00  0.1010E-01  0.1010E-01
    -28.914  0.8127E-01  0.1692E+00  0.1978E-01  0.1107E-01
    -28.748  0.0000E+00  0.9559E+00  0.4040E-01  0.3346E-01
    -28.581  0.6463E-02  0.9057E-01  0.7071E-01  0.6034E-01
    -28.415  0.2003E+00  0.3137E+00  0.1073E+00  0.8904E-01
    -28.249  0.0000E+00  0.2737E+00  0.1313E+00  0.1232E+00
    -28.083  0.0000E+00  0.0000E+00  0.1313E+00  0.1313E+00
    -27.917  0.0000E+00  0.0000E+00  0.1313E+00  0.1313E+00
    -27.750  0.0000E+00  0.0000E+00  0.1313E+00  0.1313E+00
    -27.584  0.0000E+00  0.0000E+00  0.1313E+00  0.1313E+00
    -27.418  0.0000E+00  0.0000E+00  0.1313E+00  0.1313E+00
    -27.252  0.0000E+00  0.0000E+00  0.1313E+00  0.1313E+00
    -27.085  0.0000E+00  0.0000E+00  0.1313E+00  0.1313E+00
    -26.919  0.0000E+00  0.0000E+00  0.1313E+00  0.1313E+00
    -26.753  0.0000E+00  0.0000E+00  0.1313E+00  0.1313E+00
    -26.587  0.0000E+00  0.0000E+00  0.1313E+00  0.1313E+00
    -26.420  0.0000E+00  0.0000E+00  0.1313E+00  0.1313E+00
    -26.254  0.0000E+00  0.0000E+00  0.1313E+00  0.1313E+00
    -26.088  0.0000E+00  0.0000E+00  0.1313E+00  0.1313E+00
    -25.922  0.0000E+00  0.0000E+00  0.1313E+00  0.1313E+00
    -25.756  0.0000E+00  0.0000E+00  0.1313E+00  0.1313E+00
    -25.589  0.0000E+00  0.0000E+00  0.1313E+00  0.1313E+00
    -25.423  0.0000E+00  0.0000E+00  0.1313E+00  0.1313E+00
    -25.257  0.0000E+00  0.0000E+00  0.1313E+00  0.1313E+00
    -25.091  0.0000E+00  0.0000E+00  0.1313E+00  0.1313E+00
    -24.924  0.0000E+00  0.0000E+00  0.1313E+00  0.1313E+00
    -24.758  0.0000E+00  0.0000E+00  0.1313E+00  0.1313E+00
    -24.592  0.0000E+00  0.0000E+00  0.1313E+00  0.1313E+00
    -24.426  0.0000E+00  0.0000E+00  0.1313E+00  0.1313E+00
    -24.260  0.0000E+00  0.0000E+00  0.1313E+00  0.1313E+00
    -24.093  0.0000E+00  0.0000E+00  0.1313E+00  0.1313E+00
    -23.927  0.0000E+00  0.0000E+00  0.1313E+00  0.1313E+00
    -23.761  0.0000E+00  0.0000E+00  0.1313E+00  0.1313E+00
    -23.595  0.0000E+00  0.0000E+00  0.1313E+00  0.1313E+00
    -23.428  0.0000E+00  0.0000E+00  0.1313E+00  0.1313E+00
    -23.262  0.0000E+00  0.0000E+00  0.1313E+00  0.1313E+00
    -23.096  0.0000E+00  0.0000E+00  0.1313E+00  0.1313E+00
    -22.930  0.0000E+00  0.0000E+00  0.1313E+00  0.1313E+00
    -22.763  0.0000E+00  0.0000E+00  0.1313E+00  0.1313E+00
    -22.597  0.0000E+00  0.0000E+00  0.1313E+00  0.1313E+00
    -22.431  0.0000E+00  0.0000E+00  0.1313E+00  0.1313E+00
    -22.265  0.0000E+00  0.0000E+00  0.1313E+00  0.1313E+00
    -22.099  0.0000E+00  0.0000E+00  0.1313E+00  0.1313E+00
    -21.932  0.0000E+00  0.0000E+00  0.1313E+00  0.1313E+00
    -21.766  0.0000E+00  0.0000E+00  0.1313E+00  0.1313E+00
    -21.600  0.0000E+00  0.0000E+00  0.1313E+00  0.1313E+00
    -21.434  0.0000E+00  0.0000E+00  0.1313E+00  0.1313E+00
    -21.267  0.0000E+00  0.0000E+00  0.1313E+00  0.1313E+00
    -21.101  0.0000E+00  0.0000E+00  0.1313E+00  0.1313E+00
    -20.935  0.0000E+00  0.0000E+00  0.1313E+00  0.1313E+00
    -20.769  0.0000E+00  0.0000E+00  0.1313E+00  0.1313E+00
    -20.603  0.0000E+00  0.0000E+00  0.1313E+00  0.1313E+00
    -20.436  0.0000E+00  0.0000E+00  0.1313E+00  0.1313E+00
    -20.270  0.0000E+00  0.0000E+00  0.1313E+00  0.1313E+00
    -20.104  0.0000E+00  0.0000E+00  0.1313E+00  0.1313E+00
    -19.938  0.0000E+00  0.0000E+00  0.1313E+00  0.1313E+00
    -19.771  0.0000E+00  0.0000E+00  0.1313E+00  0.1313E+00
    -19.605  0.0000E+00  0.0000E+00  0.1313E+00  0.1313E+00
    -19.439  0.0000E+00  0.0000E+00  0.1313E+00  0.1313E+00
    -19.273  0.0000E+00  0.0000E+00  0.1313E+00  0.1313E+00
    -19.107  0.0000E+00  0.0000E+00  0.1313E+00  0.1313E+00
    -18.940  0.0000E+00  0.0000E+00  0.1313E+00  0.1313E+00
    -18.774  0.0000E+00  0.0000E+00  0.1313E+00  0.1313E+00
    -18.608  0.0000E+00  0.0000E+00  0.1313E+00  0.1313E+00
    -18.442  0.0000E+00  0.0000E+00  0.1313E+00  0.1313E+00
    -18.275  0.0000E+00  0.0000E+00  0.1313E+00  0.1313E+00
    -18.109  0.0000E+00  0.0000E+00  0.1313E+00  0.1313E+00
    -17.943  0.0000E+00  0.0000E+00  0.1313E+00  0.1313E+00
    -17.777  0.0000E+00  0.0000E+00  0.1313E+00  0.1313E+00
    -17.610  0.0000E+00  0.0000E+00  0.1313E+00  0.1313E+00
    -17.444  0.0000E+00  0.0000E+00  0.1313E+00  0.1313E+00
    -17.278  0.0000E+00  0.0000E+00  0.1313E+00  0.1313E+00
    -17.112  0.0000E+00  0.0000E+00  0.1313E+00  0.1313E+00
    -16.946  0.0000E+00  0.0000E+00  0.1313E+00  0.1313E+00
    -16.779  0.0000E+00  0.0000E+00  0.1313E+00  0.1313E+00
    -16.613  0.0000E+00  0.0000E+00  0.1313E+00  0.1313E+00
    -16.447  0.0000E+00  0.0000E+00  0.1313E+00  0.1313E+00
    -16.281  0.0000E+00  0.0000E+00  0.1313E+00  0.1313E+00
    -16.114  0.0000E+00  0.0000E+00  0.1313E+00  0.1313E+00
    -15.948  0.0000E+00  0.0000E+00  0.1313E+00  0.1313E+00
    -15.782  0.0000E+00  0.0000E+00  0.1313E+00  0.1313E+00
    -15.616  0.0000E+00  0.0000E+00  0.1313E+00  0.1313E+00
    -15.450  0.0000E+00  0.0000E+00  0.1313E+00  0.1313E+00
    -15.283  0.0000E+00  0.0000E+00  0.1313E+00  0.1313E+00
    -15.117  0.0000E+00  0.0000E+00  0.1313E+00  0.1313E+00
    -14.951  0.0000E+00  0.0000E+00  0.1313E+00  0.1313E+00
    -14.785  0.0000E+00  0.0000E+00  0.1313E+00  0.1313E+00
    -14.618  0.0000E+00  0.0000E+00  0.1313E+00  0.1313E+00
    -14.452  0.0000E+00  0.0000E+00  0.1313E+00  0.1313E+00
    -14.286  0.0000E+00  0.0000E+00  0.1616E+00  0.1616E+00
    -14.120  0.0000E+00  0.0000E+00  0.1616E+00  0.1616E+00
    -13.953  0.0000E+00  0.0000E+00  0.1616E+00  0.1616E+00
    -13.787  0.0000E+00  0.0000E+00  0.1616E+00  0.1616E+00
    -13.621  0.0000E+00  0.0000E+00  0.1616E+00  0.1616E+00
    -13.455  0.0000E+00  0.0000E+00  0.1616E+00  0.1616E+00
    -13.289  0.0000E+00  0.0000E+00  0.1616E+00  0.1616E+00
    -13.122  0.0000E+00  0.0000E+00  0.1616E+00  0.1616E+00
    -12.956  0.0000E+00  0.0000E+00  0.1616E+00  0.1616E+00
    -12.790  0.0000E+00  0.0000E+00  0.1616E+00  0.1616E+00
    -12.624  0.0000E+00  0.0000E+00  0.1616E+00  0.1616E+00
    -12.457  0.0000E+00  0.0000E+00  0.1616E+00  0.1616E+00
    -12.291  0.0000E+00  0.0000E+00  0.1616E+00  0.1616E+00
    -12.125  0.0000E+00  0.0000E+00  0.1616E+00  0.1616E+00
    -11.959  0.0000E+00  0.0000E+00  0.1616E+00  0.1616E+00
    -11.793  0.0000E+00  0.0000E+00  0.1616E+00  0.1616E+00
    -11.626  0.0000E+00  0.0000E+00  0.1616E+00  0.1616E+00
    -11.460  0.0000E+00  0.0000E+00  0.1616E+00  0.1616E+00
    -11.294  0.0000E+00  0.0000E+00  0.1616E+00  0.1616E+00
    -11.128  0.0000E+00  0.0000E+00  0.1616E+00  0.1616E+00
    -10.961  0.0000E+00  0.0000E+00  0.1616E+00  0.1616E+00
    -10.795  0.0000E+00  0.0000E+00  0.1616E+00  0.1616E+00
    -10.629  0.0000E+00  0.0000E+00  0.1616E+00  0.1616E+00
    -10.463  0.0000E+00  0.0000E+00  0.1616E+00  0.1616E+00
    -10.297  0.0000E+00  0.0000E+00  0.1616E+00  0.1616E+00
    -10.130  0.0000E+00  0.0000E+00  0.1616E+00  0.1616E+00
     -9.964  0.0000E+00  0.0000E+00  0.1616E+00  0.1616E+00
     -9.798  0.0000E+00  0.0000E+00  0.1616E+00  0.1616E+00
     -9.632  0.0000E+00  0.0000E+00  0.1616E+00  0.1616E+00
     -9.465  0.0000E+00  0.0000E+00  0.1616E+00  0.1616E+00
     -9.299  0.0000E+00  0.0000E+00  0.1616E+00  0.1616E+00
     -9.133  0.0000E+00  0.0000E+00  0.1616E+00  0.1616E+00
     -8.967  0.0000E+00  0.0000E+00  0.1616E+00  0.1616E+00
     -8.800  0.0000E+00  0.0000E+00  0.1616E+00  0.1616E+00
     -8.634  0.0000E+00  0.0000E+00  0.1616E+00  0.1616E+00
     -8.468  0.0000E+00  0.0000E+00  0.1616E+00  0.1616E+00
     -8.302  0.0000E+00  0.0000E+00  0.1616E+00  0.1616E+00
     -8.136  0.0000E+00  0.0000E+00  0.1616E+00  0.1616E+00
     -7.969  0.0000E+00  0.0000E+00  0.1616E+00  0.1616E+00
     -7.803  0.0000E+00  0.0000E+00  0.1616E+00  0.1616E+00
     -7.637  0.0000E+00  0.0000E+00  0.1616E+00  0.1616E+00
     -7.471  0.0000E+00  0.0000E+00  0.1616E+00  0.1616E+00
     -7.304  0.0000E+00  0.0000E+00  0.1616E+00  0.1616E+00
     -7.138  0.0000E+00  0.0000E+00  0.1616E+00  0.1616E+00
     -6.972  0.0000E+00  0.0000E+00  0.1616E+00  0.1616E+00
     -6.806  0.0000E+00  0.0000E+00  0.1616E+00  0.1616E+00
     -6.640  0.0000E+00  0.0000E+00  0.1616E+00  0.1616E+00
     -6.473  0.0000E+00  0.0000E+00  0.1616E+00  0.1616E+00
     -6.307  0.4216E-02  0.0000E+00  0.1616E+00  0.1616E+00
     -6.141  0.2786E-02  0.2633E-02  0.1621E+00  0.1620E+00
     -5.975  0.4129E-02  0.3955E-02  0.1627E+00  0.1626E+00
     -5.808  0.7444E-02  0.6293E-02  0.1635E+00  0.1634E+00
     -5.642  0.9162E-02  0.8433E-02  0.1650E+00  0.1648E+00
     -5.476  0.9676E-02  0.9672E-02  0.1667E+00  0.1665E+00
     -5.310  0.1176E-01  0.1087E-01  0.1684E+00  0.1681E+00
     -5.143  0.9691E-02  0.8904E-02  0.1701E+00  0.1699E+00
     -4.977  0.4873E-02  0.4818E-02  0.1711E+00  0.1710E+00
     -4.811  0.1269E-02  0.2034E-02  0.1717E+00  0.1717E+00
     -4.645  0.0000E+00  0.0000E+00  0.1717E+00  0.1717E+00
     -4.479  0.7659E-02  0.5967E-02  0.1723E+00  0.1721E+00
     -4.312  0.2485E-01  0.2277E-01  0.1751E+00  0.1746E+00
     -4.146  0.1953E-01  0.2003E-01  0.1787E+00  0.1783E+00
     -3.980  0.8461E-02  0.7686E-02  0.1809E+00  0.1808E+00
     -3.814  0.2406E-01  0.2313E-01  0.1842E+00  0.1838E+00
     -3.647  0.1698E-01  0.1893E-01  0.1882E+00  0.1879E+00
     -3.481  0.1112E-01  0.1336E-01  0.1906E+00  0.1903E+00
     -3.315  0.2234E-01  0.1986E-01  0.1927E+00  0.1923E+00
     -3.149  0.3857E-01  0.3382E-01  0.1979E+00  0.1972E+00
     -2.983  0.5261E-01  0.4809E-01  0.2054E+00  0.2044E+00
     -2.816  0.1360E-01  0.1709E-01  0.2109E+00  0.2106E+00
     -2.650  0.3208E-01  0.2886E-01  0.2145E+00  0.2139E+00
     -2.484  0.1224E-01  0.1934E-01  0.2219E+00  0.2215E+00
     -2.318  0.4791E-01  0.4468E-01  0.2255E+00  0.2246E+00
     -2.151  0.3209E-01  0.4679E-01  0.2331E+00  0.2324E+00
     -1.985  0.4975E-01  0.4566E-01  0.2396E+00  0.2386E+00
     -1.819  0.5126E-01  0.4411E-01  0.2460E+00  0.2449E+00
     -1.653  0.2132E-02  0.7909E-02  0.2525E+00  0.2525E+00
     -1.486  0.4424E-01  0.4348E-01  0.2579E+00  0.2569E+00
     -1.320  0.5017E-01  0.3256E-02  0.2633E+00  0.2626E+00
     -1.154  0.8178E-02  0.1305E-01  0.2725E+00  0.2723E+00
     -0.988  0.2365E-01  0.1569E-01  0.2738E+00  0.2733E+00
     -0.822  0.2369E-01  0.5694E-01  0.2824E+00  0.2813E+00
     -0.655  0.0000E+00  0.0000E+00  0.2828E+00  0.2828E+00
     -0.489  0.4323E-01  0.6100E-01  0.2904E+00  0.2892E+00
     -0.323  0.2755E-01  0.2017E-01  0.2939E+00  0.2934E+00
     -0.157  0.5533E-01  0.4029E-01  0.2985E+00  0.2974E+00
      0.010  0.8174E-03  0.2406E-02  0.3030E+00  0.3030E+00
      0.176  0.2803E-01  0.1328E-01  0.3036E+00  0.3031E+00
      0.342  0.2159E-01  0.4160E-01  0.3104E+00  0.3095E+00
      0.508  0.1915E-01  0.9566E-02  0.3130E+00  0.3127E+00
      0.674  0.0000E+00  0.0000E+00  0.3131E+00  0.3131E+00
      0.841  0.0000E+00  0.0000E+00  0.3131E+00  0.3131E+00
      1.007  0.0000E+00  0.0000E+00  0.3131E+00  0.3131E+00
      1.173  0.0000E+00  0.0000E+00  0.3131E+00  0.3131E+00
      1.339  0.1863E-01  0.0000E+00  0.3135E+00  0.3131E+00
      1.506  0.5328E-01  0.4836E-01  0.3206E+00  0.3173E+00
      1.672  0.2396E-02  0.8726E-02  0.3232E+00  0.3229E+00
      1.838  0.5149E-01  0.2602E-01  0.3266E+00  0.3240E+00
      2.004  0.1037E-01  0.4295E-01  0.3331E+00  0.3310E+00
      2.170  0.7817E-02  0.4636E-02  0.3340E+00  0.3335E+00
      2.337  0.5386E-01  0.1805E-01  0.3380E+00  0.3349E+00
      2.503  0.8760E-02  0.3264E-01  0.3433E+00  0.3419E+00
      2.669  0.3839E-01  0.1472E-01  0.3462E+00  0.3441E+00
      2.835  0.1464E-01  0.4736E-01  0.3525E+00  0.3491E+00
      3.002  0.3279E-02  0.5854E-02  0.3536E+00  0.3532E+00
      3.168  0.1522E-01  0.5117E-02  0.3546E+00  0.3539E+00
      3.334  0.4095E-01  0.4267E-01  0.3609E+00  0.3570E+00
      3.500  0.3036E-01  0.1438E-01  0.3641E+00  0.3627E+00
      3.667  0.3917E-01  0.4701E-01  0.3717E+00  0.3687E+00
      3.833  0.3695E-02  0.4651E-02  0.3738E+00  0.3736E+00
      3.999  0.2886E-01  0.6859E-01  0.3810E+00  0.3781E+00
      4.165  0.5803E-01  0.2281E-01  0.3862E+00  0.3831E+00
      4.331  0.2582E-01  0.3241E-01  0.3926E+00  0.3909E+00
      4.498  0.4038E-01  0.4445E-01  0.3984E+00  0.3958E+00
      4.664  0.2723E-01  0.2469E-01  0.4035E+00  0.4022E+00
      4.830  0.3790E-01  0.3276E-01  0.4085E+00  0.4068E+00
      4.996  0.2629E-01  0.3296E-01  0.4142E+00  0.4126E+00
      5.163  0.2923E-01  0.4711E-01  0.4195E+00  0.4177E+00
      5.329  0.2428E-01  0.2769E-01  0.4243E+00  0.4229E+00
      5.495  0.1620E-01  0.1945E-01  0.4287E+00  0.4277E+00
      5.661  0.2982E-01  0.1818E-01  0.4317E+00  0.4305E+00
      5.827  0.1167E-01  0.4332E-02  0.4347E+00  0.4344E+00
      5.994  0.4782E-01  0.6167E-01  0.4412E+00  0.4390E+00
      6.160  0.6994E-02  0.4086E-02  0.4447E+00  0.4445E+00
      6.326  0.3043E-01  0.4436E-01  0.4514E+00  0.4500E+00
      6.492  0.3148E-01  0.3037E-01  0.4563E+00  0.4550E+00
      6.659  0.2918E-01  0.3258E-01  0.4614E+00  0.4602E+00
      6.825  0.2534E-01  0.1910E-01  0.4657E+00  0.4650E+00
      6.991  0.3146E-01  0.3478E-01  0.4717E+00  0.4705E+00
      7.157  0.4537E-01  0.3581E-01  0.4767E+00  0.4752E+00
      7.324  0.2677E-01  0.2935E-01  0.4824E+00  0.4811E+00
      7.490  0.4129E-01  0.3470E-01  0.4871E+00  0.4858E+00
      7.656  0.2612E-01  0.2999E-01  0.4934E+00  0.4924E+00
      7.822  0.3439E-01  0.2869E-01  0.4982E+00  0.4971E+00
      7.988  0.2965E-01  0.3053E-01  0.5036E+00  0.5027E+00
      8.155  0.2396E-01  0.2035E-01  0.5074E+00  0.5067E+00
      8.321  0.2423E-01  0.4761E-01  0.5139E+00  0.5129E+00
      8.487  0.6076E-01  0.4086E-01  0.5189E+00  0.5174E+00
      8.653  0.1097E-01  0.2288E-01  0.5254E+00  0.5250E+00
      8.820  0.5607E-01  0.6049E-01  0.5314E+00  0.5298E+00
      8.986  0.2090E-01  0.2395E-01  0.5374E+00  0.5367E+00
      9.152  0.3928E-01  0.5491E-01  0.5436E+00  0.5423E+00
      9.318  0.2241E-01  0.1839E-01  0.5471E+00  0.5465E+00
      9.484  0.3201E-01  0.3157E-01  0.5526E+00  0.5517E+00
      9.651  0.1517E-01  0.1420E-01  0.5561E+00  0.5557E+00
      9.817  0.5616E-01  0.5359E-01  0.5619E+00  0.5605E+00
      9.983  0.7360E-02  0.9896E-02  0.5658E+00  0.5656E+00
     10.149  0.3783E-01  0.3492E-01  0.5693E+00  0.5683E+00
     10.316  0.1433E-01  0.1696E-01  0.5744E+00  0.5740E+00
     10.482  0.3356E-01  0.2541E-01  0.5774E+00  0.5765E+00
     10.648  0.2332E-01  0.2966E-01  0.5833E+00  0.5823E+00
     10.814  0.7997E-02  0.7831E-02  0.5853E+00  0.5851E+00
     10.981  0.4791E-01  0.5264E-01  0.5906E+00  0.5889E+00
     11.147  0.2451E-01  0.2089E-01  0.5950E+00  0.5942E+00
     11.313  0.3702E-01  0.4239E-01  0.6014E+00  0.6001E+00
     11.479  0.1020E-01  0.1356E-01  0.6050E+00  0.6046E+00
     11.645  0.2877E-01  0.1790E-01  0.6072E+00  0.6064E+00
     11.812  0.2398E-01  0.3781E-01  0.6141E+00  0.6130E+00
     11.978  0.5001E-02  0.7476E-02  0.6161E+00  0.6159E+00
     12.144  0.4904E-01  0.4786E-01  0.6212E+00  0.6195E+00
     12.310  0.6299E-02  0.1391E-01  0.6263E+00  0.6259E+00
     12.477  0.4424E-01  0.3505E-01  0.6298E+00  0.6285E+00
     12.643  0.8980E-02  0.1750E-01  0.6363E+00  0.6358E+00
     12.809  0.4362E-01  0.2875E-01  0.6390E+00  0.6378E+00
     12.975  0.1223E-01  0.3226E-01  0.6464E+00  0.6455E+00
     13.141  0.0000E+00  0.0000E+00  0.6465E+00  0.6465E+00
     13.308  0.0000E+00  0.0000E+00  0.6465E+00  0.6465E+00
     13.474  0.0000E+00  0.0000E+00  0.6465E+00  0.6465E+00
     13.640  0.0000E+00  0.0000E+00  0.6465E+00  0.6465E+00
     13.806  0.0000E+00  0.0000E+00  0.6465E+00  0.6465E+00
     13.973  0.0000E+00  0.0000E+00  0.6465E+00  0.6465E+00
     14.139  0.0000E+00  0.0000E+00  0.6465E+00  0.6465E+00
     14.305  0.0000E+00  0.0000E+00  0.6465E+00  0.6465E+00
     14.471  0.0000E+00  0.0000E+00  0.6465E+00  0.6465E+00
     14.637  0.0000E+00  0.0000E+00  0.6465E+00  0.6465E+00
     14.804  0.0000E+00  0.0000E+00  0.6465E+00  0.6465E+00
     14.970  0.0000E+00  0.0000E+00  0.6465E+00  0.6465E+00
     15.136  0.0000E+00  0.0000E+00  0.6465E+00  0.6465E+00
     15.302  0.0000E+00  0.0000E+00  0.6465E+00  0.6465E+00
     15.30239835    -34.56558611  301      2.76902804      1.00000000
    -34.566  0.0000E+00  0.0000E+00  0.0000E+00  0.0000E+00  0.0000E+00  0.0000E+00  0.0000E+00  0.0000E+00  0.0000E+00  0.0000E+00  0.0000E+00  0.0000E+00  0.0000E+00  0.0000E+00  0.0000E+00  0.0000E+00  0.0000E+00  0.0000E+00
    -34.399  0.0000E+00  0.0000E+00  0.0000E+00  0.0000E+00  0.0000E+00  0.0000E+00  0.0000E+00  0.0000E+00  0.0000E+00  0.0000E+00  0.0000E+00  0.0000E+00  0.0000E+00  0.0000E+00  0.0000E+00  0.0000E+00  0.0000E+00  0.0000E+00
    -34.233  0.0000E+00  0.0000E+00  0.0000E+00  0.0000E+00  0.0000E+00  0.0000E+00  0.0000E+00  0.0000E+00  0.0000E+00  0.0000E+00  0.0000E+00  0.0000E+00  0.0000E+00  0.0000E+00  0.0000E+00  0.0000E+00  0.0000E+00  0.0000E+00
    -34.067  0.0000E+00  0.0000E+00  0.0000E+00  0.0000E+00  0.0000E+00  0.0000E+00  0.0000E+00  0.0000E+00  0.0000E+00  0.0000E+00  0.0000E+00  0.0000E+00  0.0000E+00  0.0000E+00  0.0000E+00  0.0000E+00  0.0000E+00  0.0000E+00
    -33.901  0.0000E+00  0.0000E+00  0.0000E+00  0.0000E+00  0.0000E+00  0.0000E+00  0.0000E+00  0.0000E+00  0.0000E+00  0.0000E+00  0.0000E+00  0.0000E+00  0.0000E+00  0.0000E+00  0.0000E+00  0.0000E+00  0.0000E+00  0.0000E+00
    -33.734  0.0000E+00  0.0000E+00  0.0000E+00  0.0000E+00  0.0000E+00  0.0000E+00  0.0000E+00  0.0000E+00  0.0000E+00  0.0000E+00  0.0000E+00  0.0000E+00  0.0000E+00  0.0000E+00  0.0000E+00  0.0000E+00  0.0000E+00  0.0000E+00
    -33.568  0.0000E+00  0.0000E+00  0.0000E+00  0.0000E+00  0.0000E+00  0.0000E+00  0.0000E+00  0.0000E+00  0.0000E+00  0.0000E+00  0.0000E+00  0.0000E+00  0.0000E+00  0.0000E+00  0.0000E+00  0.0000E+00  0.0000E+00  0.0000E+00
    -33.402  0.0000E+00  0.0000E+00  0.0000E+00  0.0000E+00  0.0000E+00  0.0000E+00  0.0000E+00  0.0000E+00  0.0000E+00  0.0000E+00  0.0000E+00  0.0000E+00  0.0000E+00  0.0000E+00  0.0000E+00  0.0000E+00  0.0000E+00  0.0000E+00
    -33.236  0.0000E+00  0.0000E+00  0.0000E+00  0.0000E+00  0.0000E+00  0.0000E+00  0.0000E+00  0.0000E+00  0.0000E+00  0.0000E+00  0.0000E+00  0.0000E+00  0.0000E+00  0.0000E+00  0.0000E+00  0.0000E+00  0.0000E+00  0.0000E+00
    -33.070  0.0000E+00  0.0000E+00  0.0000E+00  0.0000E+00  0.0000E+00  0.0000E+00  0.0000E+00  0.0000E+00  0.0000E+00  0.0000E+00  0.0000E+00  0.0000E+00  0.0000E+00  0.0000E+00  0.0000E+00  0.0000E+00  0.0000E+00  0.0000E+00
    -32.903  0.0000E+00  0.0000E+00  0.0000E+00  0.0000E+00  0.0000E+00  0.0000E+00  0.0000E+00  0.0000E+00  0.0000E+00  0.0000E+00  0.0000E+00  0.0000E+00  0.0000E+00  0.0000E+00  0.0000E+00  0.0000E+00  0.0000E+00  0.0000E+00
    -32.737  0.0000E+00  0.0000E+00  0.0000E+00  0.0000E+00  0.0000E+00  0.0000E+00  0.0000E+00  0.0000E+00  0.0000E+00  0.0000E+00  0.0000E+00  0.0000E+00  0.0000E+00  0.0000E+00  0.0000E+00  0.0000E+00  0.0000E+00  0.0000E+00
    -32.571  0.0000E+00  0.0000E+00  0.0000E+00  0.0000E+00  0.0000E+00  0.0000E+00  0.0000E+00  0.0000E+00  0.0000E+00  0.0000E+00  0.0000E+00  0.0000E+00  0.0000E+00  0.0000E+00  0.0000E+00  0.0000E+00  0.0000E+00  0.0000E+00
    -32.405  0.0000E+00  0.0000E+00  0.0000E+00  0.0000E+00  0.0000E+00  0.0000E+00  0.0000E+00  0.0000E+00  0.0000E+00  0.0000E+00  0.0000E+00  0.0000E+00  0.0000E+00  0.0000E+00  0.0000E+00  0.0000E+00  0.0000E+00  0.0000E+00
    -32.238  0.0000E+00  0.0000E+00  0.0000E+00  0.0000E+00  0.0000E+00  0.0000E+00  0.0000E+00  0.0000E+00  0.0000E+00  0.0000E+00  0.0000E+00  0.0000E+00  0.0000E+00  0.0000E+00  0.0000E+00  0.0000E+00  0.0000E+00  0.0000E+00
    -32.072  0.0000E+00  0.0000E+00  0.0000E+00  0.0000E+00  0.0000E+00  0.0000E+00  0.0000E+00  0.0000E+00  0.0000E+00  0.0000E+00  0.0000E+00  0.0000E+00  0.0000E+00  0.0000E+00  0.0000E+00  0.0000E+00  0.0000E+00  0.0000E+00
    -31.906  0.0000E+00  0.0000E+00  0.0000E+00  0.0000E+00  0.0000E+00  0.0000E+00  0.0000E+00  0.0000E+00  0.0000E+00  0.0000E+00  0.0000E+00  0.0000E+00  0.0000E+00  0.0000E+00  0.0000E+00  0.0000E+00  0.0000E+00  0.0000E+00
    -31.740  0.0000E+00  0.0000E+00  0.0000E+00  0.0000E+00  0.0000E+00  0.0000E+00  0.0000E+00  0.0000E+00  0.0000E+00  0.0000E+00  0.0000E+00  0.0000E+00  0.0000E+00  0.0000E+00  0.0000E+00  0.0000E+00  0.0000E+00  0.0000E+00
    -31.574  0.0000E+00  0.0000E+00  0.0000E+00  0.0000E+00  0.0000E+00  0.0000E+00  0.0000E+00  0.0000E+00  0.0000E+00  0.0000E+00  0.0000E+00  0.0000E+00  0.0000E+00  0.0000E+00  0.0000E+00  0.0000E+00  0.0000E+00  0.0000E+00
    -31.407  0.0000E+00  0.0000E+00  0.0000E+00  0.0000E+00  0.0000E+00  0.0000E+00  0.0000E+00  0.0000E+00  0.0000E+00  0.0000E+00  0.0000E+00  0.0000E+00  0.0000E+00  0.0000E+00  0.0000E+00  0.0000E+00  0.0000E+00  0.0000E+00
    -31.241  0.0000E+00  0.0000E+00  0.0000E+00  0.0000E+00  0.0000E+00  0.0000E+00  0.0000E+00  0.0000E+00  0.0000E+00  0.0000E+00  0.0000E+00  0.0000E+00  0.0000E+00  0.0000E+00  0.0000E+00  0.0000E+00  0.0000E+00  0.0000E+00
    -31.075  0.0000E+00  0.0000E+00  0.0000E+00  0.0000E+00  0.0000E+00  0.0000E+00  0.0000E+00  0.0000E+00  0.0000E+00  0.0000E+00  0.0000E+00  0.0000E+00  0.0000E+00  0.0000E+00  0.0000E+00  0.0000E+00  0.0000E+00  0.0000E+00
    -30.909  0.0000E+00  0.0000E+00  0.0000E+00  0.0000E+00  0.0000E+00  0.0000E+00  0.0000E+00  0.0000E+00  0.0000E+00  0.0000E+00  0.0000E+00  0.0000E+00  0.0000E+00  0.0000E+00  0.0000E+00  0.0000E+00  0.0000E+00  0.0000E+00
    -30.742  0.0000E+00  0.0000E+00  0.0000E+00  0.0000E+00  0.0000E+00  0.0000E+00  0.0000E+00  0.0000E+00  0.0000E+00  0.0000E+00  0.0000E+00  0.0000E+00  0.0000E+00  0.0000E+00  0.0000E+00  0.0000E+00  0.0000E+00  0.0000E+00
    -30.576  0.0000E+00  0.0000E+00  0.0000E+00  0.0000E+00  0.0000E+00  0.0000E+00  0.0000E+00  0.0000E+00  0.0000E+00  0.0000E+00  0.0000E+00  0.0000E+00  0.0000E+00  0.0000E+00  0.0000E+00  0.0000E+00  0.0000E+00  0.0000E+00
    -30.410  0.0000E+00  0.0000E+00  0.0000E+00  0.0000E+00  0.0000E+00  0.0000E+00  0.0000E+00  0.0000E+00  0.0000E+00  0.0000E+00  0.0000E+00  0.0000E+00  0.0000E+00  0.0000E+00  0.0000E+00  0.0000E+00  0.0000E+00  0.0000E+00
    -30.244  0.0000E+00  0.0000E+00  0.0000E+00  0.0000E+00  0.0000E+00  0.0000E+00  0.0000E+00  0.0000E+00  0.0000E+00  0.0000E+00  0.0000E+00  0.0000E+00  0.0000E+00  0.0000E+00  0.0000E+00  0.0000E+00  0.0000E+00  0.0000E+00
    -30.077  0.0000E+00  0.0000E+00  0.0000E+00  0.0000E+00  0.0000E+00  0.0000E+00  0.0000E+00  0.0000E+00  0.0000E+00  0.0000E+00  0.0000E+00  0.0000E+00  0.0000E+00  0.0000E+00  0.0000E+00  0.0000E+00  0.0000E+00  0.0000E+00
    -29.911  0.0000E+00  0.0000E+00  0.0000E+00  0.0000E+00  0.0000E+00  0.0000E+00  0.0000E+00  0.0000E+00  0.0000E+00  0.0000E+00  0.0000E+00  0.0000E+00  0.0000E+00  0.0000E+00  0.0000E+00  0.0000E+00  0.0000E+00  0.0000E+00
    -29.745  0.0000E+00  0.0000E+00  0.0000E+00  0.0000E+00  0.0000E+00  0.0000E+00  0.0000E+00  0.0000E+00  0.0000E+00  0.0000E+00  0.0000E+00  0.0000E+00  0.0000E+00  0.0000E+00  0.0000E+00  0.0000E+00  0.0000E+00  0.0000E+00
    -29.579  0.0000E+00  0.0000E+00  0.0000E+00  0.0000E+00  0.0000E+00  0.0000E+00  0.0000E+00  0.0000E+00  0.0000E+00  0.0000E+00  0.0000E+00  0.0000E+00  0.0000E+00  0.0000E+00  0.0000E+00  0.0000E+00  0.0000E+00  0.0000E+00
    -29.413  0.0000E+00  0.0000E+00  0.0000E+00  0.0000E+00  0.0000E+00  0.0000E+00  0.0000E+00  0.0000E+00  0.0000E+00  0.0000E+00  0.0000E+00  0.0000E+00  0.0000E+00  0.0000E+00  0.0000E+00  0.0000E+00  0.0000E+00  0.0000E+00
    -29.246  0.0000E+00  0.0000E+00  0.0000E+00  0.0000E+00  0.0000E+00  0.0000E+00  0.0000E+00  0.0000E+00  0.0000E+00  0.0000E+00  0.0000E+00  0.0000E+00  0.0000E+00  0.0000E+00  0.0000E+00  0.0000E+00  0.0000E+00  0.0000E+00
    -29.080  0.0000E+00  0.0000E+00  0.0000E+00  0.0000E+00  0.0000E+00  0.0000E+00  0.0000E+00  0.0000E+00  0.0000E+00  0.0000E+00  0.0000E+00  0.0000E+00  0.0000E+00  0.0000E+00  0.0000E+00  0.0000E+00  0.0000E+00  0.0000E+00
    -28.914  0.2221E-03  0.2516E-03  0.5318E-05  0.1527E-04  0.1329E-04  0.1747E-04  0.1415E-04  0.2318E-04  0.1931E-05  0.6374E-05  0.2108E-05  0.3508E-05  0.4331E-06  0.1315E-05  0.3967E-05  0.5636E-05  0.2212E-06  0.3521E-06
    -28.748  0.0000E+00  0.1730E-02  0.0000E+00  0.4410E-04  0.0000E+00  0.2481E-03  0.0000E+00  0.7536E-04  0.0000E+00  0.1439E-04  0.0000E+00  0.1766E-04  0.0000E+00  0.4363E-04  0.0000E+00  0.2414E-04  0.0000E+00  0.4957E-05
    -28.581  0.8045E-05  0.2369E-03  0.6637E-06  0.6288E-05  0.1544E-05  0.4431E-04  0.1222E-05  0.1294E-04  0.1751E-06  0.1930E-05  0.3168E-06  0.5434E-05  0.2295E-06  0.2714E-05  0.5126E-06  0.6545E-05  0.8315E-07  0.7934E-06
    -28.415  0.1522E-03  0.3080E-03  0.2550E-04  0.2836E-04  0.1260E-04  0.4202E-04  0.1439E-04  0.4604E-04  0.7277E-05  0.9118E-05  0.4067E-05  0.6153E-05  0.3076E-05  0.4988E-05  0.3554E-05  0.1587E-04  0.1523E-05  0.3755E-05
    -28.249  0.0000E+00  0.4401E-04  0.0000E+00  0.1076E-04  0.0000E+00  0.2026E-05  0.0000E+00  0.4510E-05  0.0000E+00  0.2474E-05  0.0000E+00  0.6303E-06  0.0000E+00  0.1858E-05  0.0000E+00  0.6953E-06  0.0000E+00  0.1115E-05
    -28.083  0.0000E+00  0.0000E+00  0.0000E+00  0.0000E+00  0.0000E+00  0.0000E+00  0.0000E+00  0.0000E+00  0.0000E+00  0.0000E+00  0.0000E+00  0.0000E+00  0.0000E+00  0.0000E+00  0.0000E+00  0.0000E+00  0.0000E+00  0.0000E+00
    -27.917  0.0000E+00  0.0000E+00  0.0000E+00  0.0000E+00  0.0000E+00  0.0000E+00  0.0000E+00  0.0000E+00  0.0000E+00  0.0000E+00  0.0000E+00  0.0000E+00  0.0000E+00  0.0000E+00  0.0000E+00  0.0000E+00  0.0000E+00  0.0000E+00
    -27.750  0.0000E+00  0.0000E+00  0.0000E+00  0.0000E+00  0.0000E+00  0.0000E+00  0.0000E+00  0.0000E+00  0.0000E+00  0.0000E+00  0.0000E+00  0.0000E+00  0.0000E+00  0.0000E+00  0.0000E+00  0.0000E+00  0.0000E+00  0.0000E+00
    -27.584  0.0000E+00  0.0000E+00  0.0000E+00  0.0000E+00  0.0000E+00  0.0000E+00  0.0000E+00  0.0000E+00  0.0000E+00  0.0000E+00  0.0000E+00  0.0000E+00  0.0000E+00  0.0000E+00  0.0000E+00  0.0000E+00  0.0000E+00  0.0000E+00
    -27.418  0.0000E+00  0.0000E+00  0.0000E+00  0.0000E+00  0.0000E+00  0.0000E+00  0.0000E+00  0.0000E+00  0.0000E+00  0.0000E+00  0.0000E+00  0.0000E+00  0.0000E+00  0.0000E+00  0.0000E+00  0.0000E+00  0.0000E+00  0.0000E+00
    -27.252  0.0000E+00  0.0000E+00  0.0000E+00  0.0000E+00  0.0000E+00  0.0000E+00  0.0000E+00  0.0000E+00  0.0000E+00  0.0000E+00  0.0000E+00  0.0000E+00  0.0000E+00  0.0000E+00  0.0000E+00  0.0000E+00  0.0000E+00  0.0000E+00
    -27.085  0.0000E+00  0.0000E+00  0.0000E+00  0.0000E+00  0.0000E+00  0.0000E+00  0.0000E+00  0.0000E+00  0.0000E+00  0.0000E+00  0.0000E+00  0.0000E+00  0.0000E+00  0.0000E+00  0.0000E+00  0.0000E+00  0.0000E+00  0.0000E+00
    -26.919  0.0000E+00  0.0000E+00  0.0000E+00  0.0000E+00  0.0000E+00  0.0000E+00  0.0000E+00  0.0000E+00  0.0000E+00  0.0000E+00  0.0000E+00  0.0000E+00  0.0000E+00  0.0000E+00  0.0000E+00  0.0000E+00  0.0000E+00  0.0000E+00
    -26.753  0.0000E+00  0.0000E+00  0.0000E+00  0.0000E+00  0.0000E+00  0.0000E+00  0.0000E+00  0.0000E+00  0.0000E+00  0.0000E+00  0.0000E+00  0.0000E+00  0.0000E+00  0.0000E+00  0.0000E+00  0.0000E+00  0.0000E+00  0.0000E+00
    -26.587  0.0000E+00  0.0000E+00  0.0000E+00  0.0000E+00  0.0000E+00  0.0000E+00  0.0000E+00  0.0000E+00  0.0000E+00  0.0000E+00  0.0000E+00  0.0000E+00  0.0000E+00  0.0000E+00  0.0000E+00  0.0000E+00  0.0000E+00  0.0000E+00
    -26.420  0.0000E+00  0.0000E+00  0.0000E+00  0.0000E+00  0.0000E+00  0.0000E+00  0.0000E+00  0.0000E+00  0.0000E+00  0.0000E+00  0.0000E+00  0.0000E+00  0.0000E+00  0.0000E+00  0.0000E+00  0.0000E+00  0.0000E+00  0.0000E+00
    -26.254  0.0000E+00  0.0000E+00  0.0000E+00  0.0000E+00  0.0000E+00  0.0000E+00  0.0000E+00  0.0000E+00  0.0000E+00  0.0000E+00  0.0000E+00  0.0000E+00  0.0000E+00  0.0000E+00  0.0000E+00  0.0000E+00  0.0000E+00  0.0000E+00