unknown system                          
           1
     5.129835   -0.234783    0.306593
     0.723100    5.540364   -0.278367
     0.581499    0.420902    5.790575
   Sr   Nb   H 
   1   4  15
Direct configuration=     1
   0.77111800  0.72367700  0.86230900
   0.86515700  0.11058500  0.34260700
   0.33954500  0.74628200  0.41054100
   0.26333300  0.21955900  0.70388800
   0.36507200  0.30790600  0.16617400
   0.95102000  0.94491400  0.08699500
   0.63286500  0.66488500  0.52812400
   0.04076600  0.29910600  0.02494100
   0.95694600  0.79796100  0.44014800
   0.58333300  0.96376500  0.22991100
   0.22012600  0.99307100  0.20976600
   0.49450900  0.09293200  0.89999700
   0.08111300  0.36940200  0.41001700
   0.45752500  0.42623400  0.85574300
   0.17635700  0.55643000  0.66550100
   0.26409200  0.64126600  0.12032500
   0.27833200  0.87410300  0.71833300
   0.90986900  0.14727100  0.66868500
   0.53484300  0.28280700  0.46270400
   0.61285400  0.52964600  0.23620400
unknown system                          
           1
     5.182250   -0.237338    0.314016
     0.729980    5.596275   -0.279951
     0.592314    0.425763    5.849454
   Sr   Nb   H 
   1   4  15
Direct configuration=     2
   0.77099454  0.72356975  0.86207094
   0.86560324  0.10994270  0.34194456
   0.33939307  0.74628840  0.41023855
   0.26360277  0.21985735  0.70414323
   0.36505243  0.30814108  0.16598779
   0.95114141  0.94517389  0.08713806
   0.63251876  0.66526442  0.52809216
   0.04080292  0.29908030  0.02525271
   0.95710118  0.79791371  0.44002941
   0.58313177  0.96375275  0.22980542
   0.22032461  0.99292734  0.20988248
   0.49412034  0.09309221  0.89970857
   0.08150743  0.36947720  0.40987471
   0.45742272  0.42597692  0.85597598
   0.17638674  0.55639745  0.66566774
   0.26434038  0.64082090  0.12047725
   0.27804302  0.87435060  0.71853841
   0.91011394  0.14720133  0.66882061
   0.53464777  0.28263164  0.46290847
   0.61252595  0.52994208  0.23635596
unknown system                          
           1
     5.196928   -0.238053    0.316095
     0.731907    5.611932   -0.280395
     0.595343    0.427124    5.865943
   Sr   Nb   H 
   1   4  15
Direct configuration=     3
   0.77096037  0.72354002  0.86200498
   0.86572711  0.10976466  0.34176086
   0.33935103  0.74629018  0.41015473
   0.26367750  0.21994007  0.70421391
   0.36504706  0.30820626  0.16593616
   0.95117504  0.94524594  0.08717769
   0.63242279  0.66536960  0.52808339
   0.04081307  0.29907316  0.02533912
   0.95714423  0.79790061  0.43999650
   0.58307601  0.96374935  0.22977619
   0.22037964  0.99288750  0.20991474
   0.49401268  0.09313663  0.89962867
   0.08161682  0.36949807  0.40983517
   0.45739430  0.42590563  0.85604060
   0.17639493  0.55638842  0.66571396
   0.26440919  0.64069750  0.12051943
   0.27796286  0.87441923  0.71859539
   0.91018180  0.14718202  0.66885815
   0.53459358  0.28258301  0.46296521
   0.61243498  0.53002415  0.23639814
unknown system                          
           1
     5.200226   -0.240498    0.315377
     0.730647    5.625762   -0.284392
     0.594152    0.424373    5.873009
   Sr   Nb   H 
   1   4  15
Direct configuration=     4
   0.77068884  0.72394350  0.86165964
   0.86746779  0.10863077  0.34120208
   0.33981947  0.74585134  0.41026229
   0.26429688  0.22015435  0.70438862
   0.36394232  0.30867783  0.16648601
   0.95078658  0.94591352  0.08810729
   0.63035890  0.66634874  0.52755404
   0.04192310  0.29870383  0.02593192
   0.95782804  0.79891082  0.43949592
   0.58313302  0.96400212  0.23034321
   0.22017681  0.99320482  0.21079610
   0.49260757  0.09394701  0.89919704
   0.08238523  0.36838684  0.40888873
   0.45668330  0.42499642  0.85675896
   0.17689191  0.55607975  0.66532908
   0.26515206  0.63963904  0.12175952
   0.27778732  0.87538316  0.71751038
   0.91134139  0.14711906  0.66792973
   0.53481052  0.28165573  0.46268309
   0.61069394  0.53025335  0.23662936
unknown system                          
           1
     5.203583   -0.242987    0.314645
     0.729364    5.639841   -0.288460
     0.592941    0.421574    5.880203
   Sr   Nb   H 
   1   4  15
Direct configuration=     5
   0.77041274  0.72435291  0.86130869
   0.86923772  0.10747972  0.34063363
   0.34029579  0.74540597  0.41037149
   0.26492711  0.22037229  0.70456648
   0.36281894  0.30915658  0.16704513
   0.95039205  0.94659182  0.08905276
   0.62825979  0.66734186  0.52701598
   0.04305224  0.29832958  0.02653467
   0.95852406  0.79993661  0.43898761
   0.58319132  0.96425916  0.23091988
   0.21997091  0.99352750  0.21169236
   0.49117855  0.09476910  0.89875835
   0.08316603  0.36725818  0.40792597
   0.45595975  0.42407332  0.85748873
   0.17739719  0.55576627  0.66493768
   0.26590754  0.63856527  0.12301996
   0.27760895  0.87636126  0.71640767
   0.91252067  0.14705503  0.66698593
   0.53503062  0.28071405  0.46239577
   0.60892306  0.53048555  0.23686427
unknown system                          
           1
     5.202053   -0.249405    0.314068
     0.722941    5.648614   -0.293520
     0.591273    0.416569    5.881647
   Sr   Nb   H 
   1   4  15
Direct configuration=     6
   0.77004070  0.72498732  0.86094670
   0.86913044  0.10817243  0.34131534
   0.33904441  0.74576037  0.40960175
   0.26487381  0.22060426  0.70412439
   0.36314755  0.30889598  0.16744877
   0.95034701  0.94618973  0.08896755
   0.62728567  0.66812480  0.52718152
   0.04413252  0.29785307  0.02703576
   0.95945837  0.80055330  0.43858261
   0.58338465  0.96441583  0.23163091
   0.22016484  0.99375827  0.21272233
   0.48999310  0.09535641  0.89866299
   0.08347869  0.36599418  0.40726271
   0.45538584  0.42335110  0.85828723
   0.17799699  0.55538574  0.66452050
   0.26642981  0.63761149  0.12428549
   0.27754309  0.87756672  0.71520720
   0.91406532  0.14692358  0.66606594
   0.53575918  0.27943574  0.46190975
   0.60711301  0.53086168  0.23715356
unknown system                          
           1
     5.200618   -0.255424    0.313526
     0.716917    5.656842   -0.298265
     0.589709    0.411874    5.883001
   Sr   Nb   H 
   1   4  15
Direct configuration=     7
   0.76969248  0.72558068  0.86060767
   0.86903085  0.10882154  0.34195498
   0.33787098  0.74609024  0.40888008
   0.26482403  0.22082104  0.70371001
   0.36345551  0.30865264  0.16782711
   0.95030424  0.94581309  0.08888738
   0.62637302  0.66885705  0.52733713
   0.04514527  0.29740845  0.02750544
   0.96033542  0.80113141  0.43820341
   0.58356633  0.96456336  0.23229773
   0.22034724  0.99397546  0.21368824
   0.48888195  0.09590503  0.89857379
   0.08377019  0.36481034  0.40664002
   0.45484678  0.42267489  0.85903537
   0.17855900  0.55502969  0.66412917
   0.26691871  0.63672001  0.12547154
   0.27748262  0.87869441  0.71408237
   0.91551376  0.14680134  0.66520344
   0.53644079  0.27823909  0.46145329
   0.60541581  0.53121222  0.23742481
unknown system                          
           1
     5.198864   -0.263594    0.315718
     0.708126    5.659807   -0.303533
     0.591150    0.405402    5.880921
   Sr   Nb   H 
   1   4  15
Direct configuration=     8
   0.76910606  0.72618225  0.86032898
   0.86875733  0.10831057  0.34139842
   0.33844544  0.74625371  0.40940007
   0.26508443  0.22118373  0.70338169
   0.36427323  0.30810654  0.16787447
   0.95018874  0.94550925  0.08891334
   0.62539113  0.66972335  0.52766132
   0.04584631  0.29688562  0.02773906
   0.96047827  0.80167154  0.43807912
   0.58339164  0.96452162  0.23295398
   0.22062529  0.99424819  0.21455388
   0.48805238  0.09608999  0.89877629
   0.08371791  0.36398567  0.40658628
   0.45465063  0.42250926  0.85967607
   0.17900559  0.55507492  0.66356997
   0.26677547  0.63594758  0.12575990
   0.27729500  0.87994437  0.71290071
   0.91650892  0.14664751  0.66458601
   0.53714535  0.27706483  0.46101614
   0.60403591  0.53194150  0.23775730
unknown system                          
           1
     5.197802   -0.268536    0.317044
     0.702808    5.661601   -0.306720
     0.592022    0.401488    5.879662
   Sr   Nb   H 
   1   4  15
Direct configuration=     9
   0.76875197  0.72654524  0.86016073
   0.86859150  0.10800104  0.34106143
   0.33879299  0.74635340  0.40971472
   0.26524243  0.22140302  0.70318313
   0.36476737  0.30777714  0.16790271
   0.95011854  0.94532547  0.08892893
   0.62479787  0.67024643  0.52785809
   0.04626983  0.29657031  0.02788007
   0.96056527  0.80199814  0.43800414
   0.58328572  0.96449667  0.23335112
   0.22079353  0.99441390  0.21507780
   0.48755063  0.09620120  0.89889908
   0.08368546  0.36348700  0.40655337
   0.45453160  0.42240937  0.86006375
   0.17927598  0.55510229  0.66323151
   0.26668796  0.63548064  0.12593405
   0.27718310  0.88069912  0.71218626
   0.91711100  0.14655499  0.66421211
   0.53757053  0.27635523  0.46075092
   0.60320173  0.53238139  0.23795911
