Automatically generated mesh
     409
Reciprocal lattice
    0.00000000000000    0.00000000000000    0.00000000000000             1
    0.06250000000000    0.00000000000000    0.00000000000000             2
    0.12500000000000    0.00000000000000    0.00000000000000             2
    0.18750000000000    0.00000000000000    0.00000000000000             2
    0.25000000000000    0.00000000000000    0.00000000000000             2
    0.31250000000000    0.00000000000000    0.00000000000000             2
    0.37500000000000    0.00000000000000    0.00000000000000             2
    0.43750000000000    0.00000000000000    0.00000000000000             2
    0.50000000000000    0.00000000000000    0.00000000000000             1
    0.00000000000000    0.05882352941176    0.00000000000000             2
    0.06250000000000    0.05882352941176    0.00000000000000             2
    0.12500000000000    0.05882352941176    0.00000000000000             2
    0.18750000000000    0.05882352941176    0.00000000000000             2
    0.25000000000000    0.05882352941176    0.00000000000000             2
    0.31250000000000    0.05882352941176    0.00000000000000             2
    0.37500000000000    0.05882352941176    0.00000000000000             2
    0.43750000000000    0.05882352941176    0.00000000000000             2
    0.50000000000000    0.05882352941176    0.00000000000000             2
   -0.43750000000000    0.05882352941176    0.00000000000000             2
   -0.37500000000000    0.05882352941176    0.00000000000000             2
   -0.31250000000000    0.05882352941176    0.00000000000000             2
   -0.25000000000000    0.05882352941176    0.00000000000000             2
   -0.18750000000000    0.05882352941176    0.00000000000000             2
   -0.12500000000000    0.05882352941176    0.00000000000000             2
   -0.06250000000000    0.05882352941176    0.00000000000000             2
    0.00000000000000    0.11764705882353    0.00000000000000             2
    0.06250000000000    0.11764705882353    0.00000000000000             2
    0.12500000000000    0.11764705882353    0.00000000000000             2
    0.18750000000000    0.11764705882353    0.00000000000000             2
    0.25000000000000    0.11764705882353    0.00000000000000             2
    0.31250000000000    0.11764705882353    0.00000000000000             2
    0.37500000000000    0.11764705882353    0.00000000000000             2
    0.43750000000000    0.11764705882353    0.00000000000000             2
    0.50000000000000    0.11764705882353    0.00000000000000             2
   -0.43750000000000    0.11764705882353    0.00000000000000             2
   -0.37500000000000    0.11764705882353    0.00000000000000             2
   -0.31250000000000    0.11764705882353    0.00000000000000             2
   -0.25000000000000    0.11764705882353    0.00000000000000             2
   -0.18750000000000    0.11764705882353    0.00000000000000             2
   -0.12500000000000    0.11764705882353    0.00000000000000             2
   -0.06250000000000    0.11764705882353    0.00000000000000             2
    0.00000000000000    0.17647058823529    0.00000000000000             2
    0.06250000000000    0.17647058823529    0.00000000000000             2
    0.12500000000000    0.17647058823529    0.00000000000000             2
    0.18750000000000    0.17647058823529    0.00000000000000             2
    0.25000000000000    0.17647058823529    0.00000000000000             2
    0.31250000000000    0.17647058823529    0.00000000000000             2
    0.37500000000000    0.17647058823529    0.00000000000000             2
    0.43750000000000    0.17647058823529    0.00000000000000             2
    0.50000000000000    0.17647058823529    0.00000000000000             2
   -0.43750000000000    0.17647058823529    0.00000000000000             2
   -0.37500000000000    0.17647058823529    0.00000000000000             2
   -0.31250000000000    0.17647058823529    0.00000000000000             2
   -0.25000000000000    0.17647058823529    0.00000000000000             2
   -0.18750000000000    0.17647058823529    0.00000000000000             2
   -0.12500000000000    0.17647058823529    0.00000000000000             2
   -0.06250000000000    0.17647058823529    0.00000000000000             2
    0.00000000000000    0.23529411764706    0.00000000000000             2
    0.06250000000000    0.23529411764706    0.00000000000000             2
    0.12500000000000    0.23529411764706    0.00000000000000             2
    0.18750000000000    0.23529411764706    0.00000000000000             2
    0.25000000000000    0.23529411764706    0.00000000000000             2
    0.31250000000000    0.23529411764706    0.00000000000000             2
    0.37500000000000    0.23529411764706    0.00000000000000             2
    0.43750000000000    0.23529411764706    0.00000000000000             2
    0.50000000000000    0.23529411764706    0.00000000000000             2
   -0.43750000000000    0.23529411764706    0.00000000000000             2
   -0.37500000000000    0.23529411764706    0.00000000000000             2
   -0.31250000000000    0.23529411764706    0.00000000000000             2
   -0.25000000000000    0.23529411764706    0.00000000000000             2
   -0.18750000000000    0.23529411764706    0.00000000000000             2
   -0.12500000000000    0.23529411764706    0.00000000000000             2
   -0.06250000000000    0.23529411764706    0.00000000000000             2
    0.00000000000000    0.29411764705882    0.00000000000000             2
    0.06250000000000    0.29411764705882    0.00000000000000             2
    0.12500000000000    0.29411764705882    0.00000000000000             2
    0.18750000000000    0.29411764705882    0.00000000000000             2
    0.25000000000000    0.29411764705882    0.00000000000000             2
    0.31250000000000    0.29411764705882    0.00000000000000             2
    0.37500000000000    0.29411764705882    0.00000000000000             2
    0.43750000000000    0.29411764705882    0.00000000000000             2
    0.50000000000000    0.29411764705882    0.00000000000000             2
   -0.43750000000000    0.29411764705882    0.00000000000000             2
   -0.37500000000000    0.29411764705882    0.00000000000000             2
   -0.31250000000000    0.29411764705882    0.00000000000000             2
   -0.25000000000000    0.29411764705882    0.00000000000000             2
   -0.18750000000000    0.29411764705882    0.00000000000000             2
   -0.12500000000000    0.29411764705882    0.00000000000000             2
   -0.06250000000000    0.29411764705882    0.00000000000000             2
    0.00000000000000    0.35294117647059    0.00000000000000             2
    0.06250000000000    0.35294117647059    0.00000000000000             2
    0.12500000000000    0.35294117647059    0.00000000000000             2
    0.18750000000000    0.35294117647059    0.00000000000000             2
    0.25000000000000    0.35294117647059    0.00000000000000             2
    0.31250000000000    0.35294117647059    0.00000000000000             2
    0.37500000000000    0.35294117647059    0.00000000000000             2
    0.43750000000000    0.35294117647059    0.00000000000000             2
    0.50000000000000    0.35294117647059    0.00000000000000             2
   -0.43750000000000    0.35294117647059    0.00000000000000             2
   -0.37500000000000    0.35294117647059    0.00000000000000             2
   -0.31250000000000    0.35294117647059    0.00000000000000             2
   -0.25000000000000    0.35294117647059    0.00000000000000             2
   -0.18750000000000    0.35294117647059    0.00000000000000             2
   -0.12500000000000    0.35294117647059    0.00000000000000             2
   -0.06250000000000    0.35294117647059    0.00000000000000             2
    0.00000000000000    0.41176470588235    0.00000000000000             2
    0.06250000000000    0.41176470588235    0.00000000000000             2
    0.12500000000000    0.41176470588235    0.00000000000000             2
    0.18750000000000    0.41176470588235    0.00000000000000             2
    0.25000000000000    0.41176470588235    0.00000000000000             2
    0.31250000000000    0.41176470588235    0.00000000000000             2
    0.37500000000000    0.41176470588235    0.00000000000000             2
    0.43750000000000    0.41176470588235    0.00000000000000             2
    0.50000000000000    0.41176470588235    0.00000000000000             2
   -0.43750000000000    0.41176470588235    0.00000000000000             2
   -0.37500000000000    0.41176470588235    0.00000000000000             2
   -0.31250000000000    0.41176470588235    0.00000000000000             2
   -0.25000000000000    0.41176470588235    0.00000000000000             2
   -0.18750000000000    0.41176470588235    0.00000000000000             2
   -0.12500000000000    0.41176470588235    0.00000000000000             2
   -0.06250000000000    0.41176470588235    0.00000000000000             2
    0.00000000000000    0.47058823529412    0.00000000000000             2
    0.06250000000000    0.47058823529412    0.00000000000000             2
    0.12500000000000    0.47058823529412    0.00000000000000             2
    0.18750000000000    0.47058823529412    0.00000000000000             2
    0.25000000000000    0.47058823529412    0.00000000000000             2
    0.31250000000000    0.47058823529412    0.00000000000000             2
    0.37500000000000    0.47058823529412    0.00000000000000             2
    0.43750000000000    0.47058823529412    0.00000000000000             2
    0.50000000000000    0.47058823529412    0.00000000000000             2
   -0.43750000000000    0.47058823529412    0.00000000000000             2
   -0.37500000000000    0.47058823529412    0.00000000000000             2
   -0.31250000000000    0.47058823529412    0.00000000000000             2
   -0.25000000000000    0.47058823529412    0.00000000000000             2
   -0.18750000000000    0.47058823529412    0.00000000000000             2
   -0.12500000000000    0.47058823529412    0.00000000000000             2
   -0.06250000000000    0.47058823529412    0.00000000000000             2
    0.00000000000000    0.00000000000000    0.33333333333333             2
    0.06250000000000    0.00000000000000    0.33333333333333             2
    0.12500000000000    0.00000000000000    0.33333333333333             2
    0.18750000000000    0.00000000000000    0.33333333333333             2
    0.25000000000000    0.00000000000000    0.33333333333333             2
    0.31250000000000    0.00000000000000    0.33333333333333             2
    0.37500000000000    0.00000000000000    0.33333333333333             2
    0.43750000000000    0.00000000000000    0.33333333333333             2
    0.50000000000000    0.00000000000000    0.33333333333333             2
   -0.43750000000000    0.00000000000000    0.33333333333333             2
   -0.37500000000000    0.00000000000000    0.33333333333333             2
   -0.31250000000000    0.00000000000000    0.33333333333333             2
   -0.25000000000000    0.00000000000000    0.33333333333333             2
   -0.18750000000000    0.00000000000000    0.33333333333333             2
   -0.12500000000000    0.00000000000000    0.33333333333333             2
   -0.06250000000000    0.00000000000000    0.33333333333333             2
    0.00000000000000    0.05882352941176    0.33333333333333             2
    0.06250000000000    0.05882352941176    0.33333333333333             2
    0.12500000000000    0.05882352941176    0.33333333333333             2
    0.18750000000000    0.05882352941176    0.33333333333333             2
    0.25000000000000    0.05882352941176    0.33333333333333             2
    0.31250000000000    0.05882352941176    0.33333333333333             2
    0.37500000000000    0.05882352941176    0.33333333333333             2
    0.43750000000000    0.05882352941176    0.33333333333333             2
    0.50000000000000    0.05882352941176    0.33333333333333             2
   -0.43750000000000    0.05882352941176    0.33333333333333             2
   -0.37500000000000    0.05882352941176    0.33333333333333             2
   -0.31250000000000    0.05882352941176    0.33333333333333             2
   -0.25000000000000    0.05882352941176    0.33333333333333             2
   -0.18750000000000    0.05882352941176    0.33333333333333             2
   -0.12500000000000    0.05882352941176    0.33333333333333             2
   -0.06250000000000    0.05882352941176    0.33333333333333             2
    0.00000000000000    0.11764705882353    0.33333333333333             2
    0.06250000000000    0.11764705882353    0.33333333333333             2
    0.12500000000000    0.11764705882353    0.33333333333333             2
    0.18750000000000    0.11764705882353    0.33333333333333             2
    0.25000000000000    0.11764705882353    0.33333333333333             2
    0.31250000000000    0.11764705882353    0.33333333333333             2
    0.37500000000000    0.11764705882353    0.33333333333333             2
    0.43750000000000    0.11764705882353    0.33333333333333             2
    0.50000000000000    0.11764705882353    0.33333333333333             2
   -0.43750000000000    0.11764705882353    0.33333333333333             2
   -0.37500000000000    0.11764705882353    0.33333333333333             2
   -0.31250000000000    0.11764705882353    0.33333333333333             2
   -0.25000000000000    0.11764705882353    0.33333333333333             2
   -0.18750000000000    0.11764705882353    0.33333333333333             2
   -0.12500000000000    0.11764705882353    0.33333333333333             2
   -0.06250000000000    0.11764705882353    0.33333333333333             2
    0.00000000000000    0.17647058823529    0.33333333333333             2
    0.06250000000000    0.17647058823529    0.33333333333333             2
    0.12500000000000    0.17647058823529    0.33333333333333             2
    0.18750000000000    0.17647058823529    0.33333333333333             2
    0.25000000000000    0.17647058823529    0.33333333333333             2
    0.31250000000000    0.17647058823529    0.33333333333333             2
    0.37500000000000    0.17647058823529    0.33333333333333             2
    0.43750000000000    0.17647058823529    0.33333333333333             2
    0.50000000000000    0.17647058823529    0.33333333333333             2
   -0.43750000000000    0.17647058823529    0.33333333333333             2
   -0.37500000000000    0.17647058823529    0.33333333333333             2
   -0.31250000000000    0.17647058823529    0.33333333333333             2
   -0.25000000000000    0.17647058823529    0.33333333333333             2
   -0.18750000000000    0.17647058823529    0.33333333333333             2
   -0.12500000000000    0.17647058823529    0.33333333333333             2
   -0.06250000000000    0.17647058823529    0.33333333333333             2
    0.00000000000000    0.23529411764706    0.33333333333333             2
    0.06250000000000    0.23529411764706    0.33333333333333             2
    0.12500000000000    0.23529411764706    0.33333333333333             2
    0.18750000000000    0.23529411764706    0.33333333333333             2
    0.25000000000000    0.23529411764706    0.33333333333333             2
    0.31250000000000    0.23529411764706    0.33333333333333             2
    0.37500000000000    0.23529411764706    0.33333333333333             2
    0.43750000000000    0.23529411764706    0.33333333333333             2
    0.50000000000000    0.23529411764706    0.33333333333333             2
   -0.43750000000000    0.23529411764706    0.33333333333333             2
   -0.37500000000000    0.23529411764706    0.33333333333333             2
   -0.31250000000000    0.23529411764706    0.33333333333333             2
   -0.25000000000000    0.23529411764706    0.33333333333333             2
   -0.18750000000000    0.23529411764706    0.33333333333333             2
   -0.12500000000000    0.23529411764706    0.33333333333333             2
   -0.06250000000000    0.23529411764706    0.33333333333333             2
    0.00000000000000    0.29411764705882    0.33333333333333             2
    0.06250000000000    0.29411764705882    0.33333333333333             2
    0.12500000000000    0.29411764705882    0.33333333333333             2
    0.18750000000000    0.29411764705882    0.33333333333333             2
    0.25000000000000    0.29411764705882    0.33333333333333             2
    0.31250000000000    0.29411764705882    0.33333333333333             2
    0.37500000000000    0.29411764705882    0.33333333333333             2
    0.43750000000000    0.29411764705882    0.33333333333333             2
    0.50000000000000    0.29411764705882    0.33333333333333             2
   -0.43750000000000    0.29411764705882    0.33333333333333             2
   -0.37500000000000    0.29411764705882    0.33333333333333             2
   -0.31250000000000    0.29411764705882    0.33333333333333             2
   -0.25000000000000    0.29411764705882    0.33333333333333             2
   -0.18750000000000    0.29411764705882    0.33333333333333             2
   -0.12500000000000    0.29411764705882    0.33333333333333             2
   -0.06250000000000    0.29411764705882    0.33333333333333             2
    0.00000000000000    0.35294117647059    0.33333333333333             2
    0.06250000000000    0.35294117647059    0.33333333333333             2
    0.12500000000000    0.35294117647059    0.33333333333333             2
    0.18750000000000    0.35294117647059    0.33333333333333             2
    0.25000000000000    0.35294117647059    0.33333333333333             2
    0.31250000000000    0.35294117647059    0.33333333333333             2
    0.37500000000000    0.35294117647059    0.33333333333333             2
    0.43750000000000    0.35294117647059    0.33333333333333             2
    0.50000000000000    0.35294117647059    0.33333333333333             2
   -0.43750000000000    0.35294117647059    0.33333333333333             2
   -0.37500000000000    0.35294117647059    0.33333333333333             2
   -0.31250000000000    0.35294117647059    0.33333333333333             2
   -0.25000000000000    0.35294117647059    0.33333333333333             2
   -0.18750000000000    0.35294117647059    0.33333333333333             2
   -0.12500000000000    0.35294117647059    0.33333333333333             2
   -0.06250000000000    0.35294117647059    0.33333333333333             2
    0.00000000000000    0.41176470588235    0.33333333333333             2
    0.06250000000000    0.41176470588235    0.33333333333333             2
    0.12500000000000    0.41176470588235    0.33333333333333             2
    0.18750000000000    0.41176470588235    0.33333333333333             2
    0.25000000000000    0.41176470588235    0.33333333333333             2
    0.31250000000000    0.41176470588235    0.33333333333333             2
    0.37500000000000    0.41176470588235    0.33333333333333             2
    0.43750000000000    0.41176470588235    0.33333333333333             2
    0.50000000000000    0.41176470588235    0.33333333333333             2
   -0.43750000000000    0.41176470588235    0.33333333333333             2
   -0.37500000000000    0.41176470588235    0.33333333333333             2
   -0.31250000000000    0.41176470588235    0.33333333333333             2
   -0.25000000000000    0.41176470588235    0.33333333333333             2
   -0.18750000000000    0.41176470588235    0.33333333333333             2
   -0.12500000000000    0.41176470588235    0.33333333333333             2
   -0.06250000000000    0.41176470588235    0.33333333333333             2
    0.00000000000000    0.47058823529412    0.33333333333333             2
    0.06250000000000    0.47058823529412    0.33333333333333             2
    0.12500000000000    0.47058823529412    0.33333333333333             2
    0.18750000000000    0.47058823529412    0.33333333333333             2
    0.25000000000000    0.47058823529412    0.33333333333333             2
    0.31250000000000    0.47058823529412    0.33333333333333             2
    0.37500000000000    0.47058823529412    0.33333333333333             2
    0.43750000000000    0.47058823529412    0.33333333333333             2
    0.50000000000000    0.47058823529412    0.33333333333333             2
   -0.43750000000000    0.47058823529412    0.33333333333333             2
   -0.37500000000000    0.47058823529412    0.33333333333333             2
   -0.31250000000000    0.47058823529412    0.33333333333333             2
   -0.25000000000000    0.47058823529412    0.33333333333333             2
   -0.18750000000000    0.47058823529412    0.33333333333333             2
   -0.12500000000000    0.47058823529412    0.33333333333333             2
   -0.06250000000000    0.47058823529412    0.33333333333333             2
    0.00000000000000   -0.47058823529412    0.33333333333333             2
    0.06250000000000   -0.47058823529412    0.33333333333333             2
    0.12500000000000   -0.47058823529412    0.33333333333333             2
    0.18750000000000   -0.47058823529412    0.33333333333333             2
    0.25000000000000   -0.47058823529412    0.33333333333333             2
    0.31250000000000   -0.47058823529412    0.33333333333333             2
    0.37500000000000   -0.47058823529412    0.33333333333333             2
    0.43750000000000   -0.47058823529412    0.33333333333333             2
    0.50000000000000   -0.47058823529412    0.33333333333333             2
   -0.43750000000000   -0.47058823529412    0.33333333333333             2
   -0.37500000000000   -0.47058823529412    0.33333333333333             2
   -0.31250000000000   -0.47058823529412    0.33333333333333             2
   -0.25000000000000   -0.47058823529412    0.33333333333333             2
   -0.18750000000000   -0.47058823529412    0.33333333333333             2
   -0.12500000000000   -0.47058823529412    0.33333333333333             2
   -0.06250000000000   -0.47058823529412    0.33333333333333             2
    0.00000000000000   -0.41176470588235    0.33333333333333             2
    0.06250000000000   -0.41176470588235    0.33333333333333             2
    0.12500000000000   -0.41176470588235    0.33333333333333             2
    0.18750000000000   -0.41176470588235    0.33333333333333             2
    0.25000000000000   -0.41176470588235    0.33333333333333             2
    0.31250000000000   -0.41176470588235    0.33333333333333             2
    0.37500000000000   -0.41176470588235    0.33333333333333             2
    0.43750000000000   -0.41176470588235    0.33333333333333             2
    0.50000000000000   -0.41176470588235    0.33333333333333             2
   -0.43750000000000   -0.41176470588235    0.33333333333333             2
   -0.37500000000000   -0.41176470588235    0.33333333333333             2
   -0.31250000000000   -0.41176470588235    0.33333333333333             2
   -0.25000000000000   -0.41176470588235    0.33333333333333             2
   -0.18750000000000   -0.41176470588235    0.33333333333333             2
   -0.12500000000000   -0.41176470588235    0.33333333333333             2
   -0.06250000000000   -0.41176470588235    0.33333333333333             2
    0.00000000000000   -0.35294117647059    0.33333333333333             2
    0.06250000000000   -0.35294117647059    0.33333333333333             2
    0.12500000000000   -0.35294117647059    0.33333333333333             2
    0.18750000000000   -0.35294117647059    0.33333333333333             2
    0.25000000000000   -0.35294117647059    0.33333333333333             2
    0.31250000000000   -0.35294117647059    0.33333333333333             2
    0.37500000000000   -0.35294117647059    0.33333333333333             2
    0.43750000000000   -0.35294117647059    0.33333333333333             2
    0.50000000000000   -0.35294117647059    0.33333333333333             2
   -0.43750000000000   -0.35294117647059    0.33333333333333             2
   -0.37500000000000   -0.35294117647059    0.33333333333333             2
   -0.31250000000000   -0.35294117647059    0.33333333333333             2
   -0.25000000000000   -0.35294117647059    0.33333333333333             2
   -0.18750000000000   -0.35294117647059    0.33333333333333             2
   -0.12500000000000   -0.35294117647059    0.33333333333333             2
   -0.06250000000000   -0.35294117647059    0.33333333333333             2
    0.00000000000000   -0.29411764705882    0.33333333333333             2
    0.06250000000000   -0.29411764705882    0.33333333333333             2
    0.12500000000000   -0.29411764705882    0.33333333333333             2
    0.18750000000000   -0.29411764705882    0.33333333333333             2
    0.25000000000000   -0.29411764705882    0.33333333333333             2
    0.31250000000000   -0.29411764705882    0.33333333333333             2
    0.37500000000000   -0.29411764705882    0.33333333333333             2
    0.43750000000000   -0.29411764705882    0.33333333333333             2
    0.50000000000000   -0.29411764705882    0.33333333333333             2
   -0.43750000000000   -0.29411764705882    0.33333333333333             2
   -0.37500000000000   -0.29411764705882    0.33333333333333             2
   -0.31250000000000   -0.29411764705882    0.33333333333333             2
   -0.25000000000000   -0.29411764705882    0.33333333333333             2
   -0.18750000000000   -0.29411764705882    0.33333333333333             2
   -0.12500000000000   -0.29411764705882    0.33333333333333             2
   -0.06250000000000   -0.29411764705882    0.33333333333333             2
    0.00000000000000   -0.23529411764706    0.33333333333333             2
    0.06250000000000   -0.23529411764706    0.33333333333333             2
    0.12500000000000   -0.23529411764706    0.33333333333333             2
    0.18750000000000   -0.23529411764706    0.33333333333333             2
    0.25000000000000   -0.23529411764706    0.33333333333333             2
    0.31250000000000   -0.23529411764706    0.33333333333333             2
    0.37500000000000   -0.23529411764706    0.33333333333333             2
    0.43750000000000   -0.23529411764706    0.33333333333333             2
    0.50000000000000   -0.23529411764706    0.33333333333333             2
   -0.43750000000000   -0.23529411764706    0.33333333333333             2
   -0.37500000000000   -0.23529411764706    0.33333333333333             2
   -0.31250000000000   -0.23529411764706    0.33333333333333             2
   -0.25000000000000   -0.23529411764706    0.33333333333333             2
   -0.18750000000000   -0.23529411764706    0.33333333333333             2
   -0.12500000000000   -0.23529411764706    0.33333333333333             2
   -0.06250000000000   -0.23529411764706    0.33333333333333             2
    0.00000000000000   -0.17647058823529    0.33333333333333             2
    0.06250000000000   -0.17647058823529    0.33333333333333             2
    0.12500000000000   -0.17647058823529    0.33333333333333             2
    0.18750000000000   -0.17647058823529    0.33333333333333             2
    0.25000000000000   -0.17647058823529    0.33333333333333             2
    0.31250000000000   -0.17647058823529    0.33333333333333             2
    0.37500000000000   -0.17647058823529    0.33333333333333             2
    0.43750000000000   -0.17647058823529    0.33333333333333             2
    0.50000000000000   -0.17647058823529    0.33333333333333             2
   -0.43750000000000   -0.17647058823529    0.33333333333333             2
   -0.37500000000000   -0.17647058823529    0.33333333333333             2
   -0.31250000000000   -0.17647058823529    0.33333333333333             2
   -0.25000000000000   -0.17647058823529    0.33333333333333             2
   -0.18750000000000   -0.17647058823529    0.33333333333333             2
   -0.12500000000000   -0.17647058823529    0.33333333333333             2
   -0.06250000000000   -0.17647058823529    0.33333333333333             2
    0.00000000000000   -0.11764705882353    0.33333333333333             2
    0.06250000000000   -0.11764705882353    0.33333333333333             2
    0.12500000000000   -0.11764705882353    0.33333333333333             2
    0.18750000000000   -0.11764705882353    0.33333333333333             2
    0.25000000000000   -0.11764705882353    0.33333333333333             2
    0.31250000000000   -0.11764705882353    0.33333333333333             2
    0.37500000000000   -0.11764705882353    0.33333333333333             2
    0.43750000000000   -0.11764705882353    0.33333333333333             2
    0.50000000000000   -0.11764705882353    0.33333333333333             2
   -0.43750000000000   -0.11764705882353    0.33333333333333             2
   -0.37500000000000   -0.11764705882353    0.33333333333333             2
   -0.31250000000000   -0.11764705882353    0.33333333333333             2
   -0.25000000000000   -0.11764705882353    0.33333333333333             2
   -0.18750000000000   -0.11764705882353    0.33333333333333             2
   -0.12500000000000   -0.11764705882353    0.33333333333333             2
   -0.06250000000000   -0.11764705882353    0.33333333333333             2
    0.00000000000000   -0.05882352941176    0.33333333333333             2
    0.06250000000000   -0.05882352941176    0.33333333333333             2
    0.12500000000000   -0.05882352941176    0.33333333333333             2
    0.18750000000000   -0.05882352941176    0.33333333333333             2
    0.25000000000000   -0.05882352941176    0.33333333333333             2
    0.31250000000000   -0.05882352941176    0.33333333333333             2