    9    9   99    2
  0.8465842E+01  0.3659497E-09  0.3659906E-09  0.7687703E-09  0.5000000E-15
  1.000000000000000E-004
  CAR 
 unknown system                          
     28     74     32
 
  0.3742002E-15  0.3742002E-15  0.3742002E-15  0.6802721E-02
    1      -32.106256    -32.106256   1.000000   1.000000
    2      -30.031767    -30.031767   1.000000   1.000000
    3      -29.774886    -29.774886   1.000000   1.000000
    4      -29.713330    -29.713330   1.000000   1.000000
    5      -14.324475    -14.324475   1.000000   1.000000
    6      -13.880490    -13.880490   1.000000   1.000000
    7      -13.878380    -13.878380   1.000000   1.000000
    8       -6.785349     -6.785349   1.000000   1.000000
    9       -3.391974     -3.391974   1.000000   1.000000
   10       -2.894784     -2.894784   1.000000   1.000000
   11       -1.093642     -1.093642   1.000000   1.000000
   12       -0.912096     -0.912096   1.000000   1.000000
   13       -0.100517     -0.100517   1.000000   1.000000
   14        0.458024      0.458024   1.000000   1.000000
   15        2.281445      2.281445   0.000000   0.000000
   16        5.103373      5.103373   0.000000   0.000000
   17        5.546311      5.546311   0.000000   0.000000
   18        6.273447      6.273447   0.000000   0.000000
   19        6.746594      6.746594   0.000000   0.000000
   20        6.860679      6.860679   0.000000   0.000000
   21        7.256461      7.256461   0.000000   0.000000
   22        7.994055      7.994055   0.000000   0.000000
   23        8.664280      8.664280   0.000000   0.000000
   24        9.081377      9.081377   0.000000   0.000000
   25       10.690497     10.690497   0.000000   0.000000
   26       11.433945     11.433945   0.000000   0.000000
   27       12.559540     12.559540   0.000000   0.000000
   28       12.936677     12.936677   0.000000   0.000000
   29       14.253028     14.253028   0.000000   0.000000
   30       14.499995     14.499995   0.000000   0.000000
   31       14.934569     14.934569   0.000000   0.000000
   32       15.196111     15.196111   0.000000   0.000000
 
  0.1428571E+00  0.3608225E-15  0.3781697E-15  0.1360544E-01
    1      -32.094253    -32.094253   1.000000   1.000000
    2      -30.051049    -30.051049   1.000000   1.000000
    3      -29.783255    -29.783255   1.000000   1.000000
    4      -29.711195    -29.711195   1.000000   1.000000
    5      -14.301058    -14.301058   1.000000   1.000000
    6      -14.027841    -14.027841   1.000000   1.000000
    7      -13.905429    -13.905429   1.000000   1.000000
    8       -6.453037     -6.453037   1.000000   1.000000
    9       -3.214111     -3.214111   1.000000   1.000000
   10       -2.743604     -2.743604   1.000000   1.000000
   11       -1.318820     -1.318820   1.000000   1.000000
   12       -0.821049     -0.821049   1.000000   1.000000
   13       -0.129087     -0.129087   1.000000   1.000000
   14        0.336546      0.336546   1.000000   1.000000
   15        1.987564      1.987564   0.000000   0.000000
   16        4.610364      4.610364   0.000000   0.000000
   17        5.369643      5.369643   0.000000   0.000000
   18        6.164998      6.164998   0.000000   0.000000
   19        6.827702      6.827702   0.000000   0.000000
   20        7.123712      7.123712   0.000000   0.000000
   21        7.666679      7.666679   0.000000   0.000000
   22        8.218788      8.218788   0.000000   0.000000
   23        8.567470      8.567470   0.000000   0.000000
   24        9.040900      9.040900   0.000000   0.000000
   25       10.461252     10.461252   0.000000   0.000000
   26       11.334972     11.334972   0.000000   0.000000
   27       12.342323     12.342323   0.000000   0.000000
   28       12.879815     12.879815   0.000000   0.000000
   29       14.178841     14.178841   0.000000   0.000000
   30       15.108807     15.108807   0.000000   0.000000
   31       15.839696     15.839695   0.000000   0.000000
   32       15.969838     15.969827   0.000000   0.000000
 
  0.2857143E+00  0.3348016E-15  0.1262879E-14  0.1360544E-01
    1      -32.067132    -32.067132   1.000000   1.000000
    2      -30.095134    -30.095134   1.000000   1.000000
    3      -29.801696    -29.801696   1.000000   1.000000
    4      -29.705538    -29.705538   1.000000   1.000000
    5      -14.338217    -14.338217   1.000000   1.000000
    6      -14.247133    -14.247133   1.000000   1.000000
    7      -13.965226    -13.965226   1.000000   1.000000
    8       -5.562624     -5.562624   1.000000   1.000000
    9       -2.906066     -2.906066   1.000000   1.000000
   10       -2.426738     -2.426738   1.000000   1.000000
   11       -1.860322     -1.860322   1.000000   1.000000
   12       -0.764225     -0.764225   1.000000   1.000000
   13       -0.307054     -0.307054   1.000000   1.000000
   14        0.227295      0.227295   1.000000   1.000000
   15        1.837468      1.837468   0.000000   0.000000
   16        4.097162      4.097162   0.000000   0.000000
   17        5.187046      5.187046   0.000000   0.000000
   18        5.596685      5.596685   0.000000   0.000000
   19        6.532269      6.532269   0.000000   0.000000
   20        7.326735      7.326735   0.000000   0.000000
   21        7.620361      7.620361   0.000000   0.000000
   22        8.093632      8.093632   0.000000   0.000000
   23        8.242411      8.242411   0.000000   0.000000
   24        9.335080      9.335080   0.000000   0.000000
   25       11.313927     11.313927   0.000000   0.000000
   26       11.928739     11.928739   0.000000   0.000000
   27       12.565053     12.565053   0.000000   0.000000
   28       13.382611     13.382611   0.000000   0.000000
   29       13.724445     13.724445   0.000000   0.000000
   30       14.411763     14.411763   0.000000   0.000000
   31       15.337239     15.337239   0.000000   0.000000
   32       16.370892     16.370886   0.000000   0.000000
 
  0.4285714E+00  0.2983724E-15  0.3469447E-15  0.1360544E-01
    1      -32.045200    -32.045200   1.000000   1.000000
    2      -30.131027    -30.131027   1.000000   1.000000
    3      -29.815920    -29.815920   1.000000   1.000000
    4      -29.700566    -29.700566   1.000000   1.000000
    5      -14.568527    -14.568527   1.000000   1.000000
    6      -14.203938    -14.203938   1.000000   1.000000
    7      -14.012351    -14.012351   1.000000   1.000000
    8       -4.476791     -4.476791   1.000000   1.000000
    9       -2.937640     -2.937640   1.000000   1.000000
   10       -2.411094     -2.411094   1.000000   1.000000
   11       -2.060334     -2.060334   1.000000   1.000000
   12       -1.155125     -1.155125   1.000000   1.000000
   13       -0.524623     -0.524623   1.000000   1.000000
   14        0.392324      0.392324   1.000000   1.000000
   15        2.589809      2.589809   0.000000   0.000000
   16        3.825038      3.825038   0.000000   0.000000
   17        4.169876      4.169876   0.000000   0.000000
   18        5.197294      5.197294   0.000000   0.000000
   19        6.109512      6.109512   0.000000   0.000000
   20        7.266529      7.266529   0.000000   0.000000
   21        7.459390      7.459390   0.000000   0.000000
   22        7.917068      7.917068   0.000000   0.000000
   23        9.076645      9.076645   0.000000   0.000000
   24        9.930192      9.930192   0.000000   0.000000
   25       11.308184     11.308184   0.000000   0.000000
   26       11.625304     11.625304   0.000000   0.000000
   27       11.991610     11.991610   0.000000   0.000000
   28       13.014793     13.014793   0.000000   0.000000
   29       14.286957     14.286957   0.000000   0.000000
   30       14.862867     14.862867   0.000000   0.000000
   31       15.624149     15.624149   0.000000   0.000000
   32       16.784904     16.784903   0.000000   0.000000
 
  0.3747003E-15  0.1428571E+00  0.4024558E-15  0.1360544E-01
    1      -32.094444    -32.094444   1.000000   1.000000
    2      -30.048751    -30.048751   1.000000   1.000000
    3      -29.785496    -29.785496   1.000000   1.000000
    4      -29.710494    -29.710494   1.000000   1.000000
    5      -14.304053    -14.304053   1.000000   1.000000
    6      -14.025393    -14.025393   1.000000   1.000000
    7      -13.905945    -13.905945   1.000000   1.000000
    8       -6.401709     -6.401709   1.000000   1.000000
    9       -3.397369     -3.397369   1.000000   1.000000
   10       -2.650984     -2.650984   1.000000   1.000000
   11       -1.393506     -1.393506   1.000000   1.000000
   12       -0.892290     -0.892290   1.000000   1.000000
   13       -0.007122     -0.007122   1.000000   1.000000
   14        0.366286      0.366286   1.000000   1.000000
   15        2.036631      2.036631   0.000000   0.000000
   16        4.500147      4.500148   0.000000   0.000000
   17        5.504687      5.504687   0.000000   0.000000
   18        6.204691      6.204691   0.000000   0.000000
   19        6.904935      6.904935   0.000000   0.000000
   20        7.035995      7.035995   0.000000   0.000000
   21        7.638821      7.638821   0.000000   0.000000
   22        8.396966      8.396966   0.000000   0.000000
   23        8.583127      8.583127   0.000000   0.000000
   24        9.093197      9.093197   0.000000   0.000000
   25       10.600441     10.600441   0.000000   0.000000
   26       10.801144     10.801144   0.000000   0.000000
   27       12.110449     12.110449   0.000000   0.000000
   28       13.334426     13.334426   0.000000   0.000000
   29       14.158381     14.158381   0.000000   0.000000
   30       14.850349     14.850349   0.000000   0.000000
   31       15.377542     15.377542   0.000000   0.000000
   32       16.220993     16.220994   0.000000   0.000000
 
  0.1428571E+00  0.1428571E+00  0.3608225E-15  0.1360544E-01
    1      -32.074748    -32.074748   1.000000   1.000000
    2      -30.086554    -30.086554   1.000000   1.000000
    3      -29.792695    -29.792695   1.000000   1.000000
    4      -29.706615    -29.706615   1.000000   1.000000
    5      -14.265393    -14.265393   1.000000   1.000000
    6      -14.233899    -14.233899   1.000000   1.000000
    7      -13.968103    -13.968103   1.000000   1.000000
    8       -5.802282     -5.802282   1.000000   1.000000
    9       -3.005461     -3.005461   1.000000   1.000000
   10       -2.406045     -2.406045   1.000000   1.000000
   11       -1.872572     -1.872572   1.000000   1.000000
   12       -0.813852     -0.813852   1.000000   1.000000
   13       -0.228604     -0.228604   1.000000   1.000000
   14        0.238330      0.238330   1.000000   1.000000
   15        1.845229      1.845229   0.000000   0.000000
   16        4.233510      4.233510   0.000000   0.000000
   17        5.196054      5.196054   0.000000   0.000000
   18        5.740834      5.740834   0.000000   0.000000
   19        6.526999      6.526999   0.000000   0.000000
   20        7.567881      7.567881   0.000000   0.000000
   21        7.746972      7.746972   0.000000   0.000000
   22        8.177538      8.177538   0.000000   0.000000
   23        8.527634      8.527634   0.000000   0.000000
   24        9.246493      9.246493   0.000000   0.000000
   25       10.826052     10.826052   0.000000   0.000000
   26       11.549536     11.549536   0.000000   0.000000
   27       12.339307     12.339307   0.000000   0.000000
   28       13.196466     13.196466   0.000000   0.000000
   29       14.208233     14.208233   0.000000   0.000000
   30       15.228966     15.228966   0.000000   0.000000
   31       15.377936     15.377936   0.000000   0.000000
   32       16.099952     16.099952   0.000000   0.000000
 
  0.2857143E+00  0.1428571E+00  0.3330669E-15  0.1360544E-01
    1      -32.050184    -32.050184   1.000000   1.000000
    2      -30.122892    -30.122892   1.000000   1.000000
    3      -29.812624    -29.812624   1.000000   1.000000
    4      -29.701406    -29.701406   1.000000   1.000000
    5      -14.462307    -14.462307   1.000000   1.000000
    6      -14.214445    -14.214445   1.000000   1.000000
    7      -14.063619    -14.063619   1.000000   1.000000
    8       -4.779573     -4.779573   1.000000   1.000000
    9       -2.670025     -2.670025   1.000000   1.000000
   10       -2.465988     -2.465988   1.000000   1.000000
   11       -2.062546     -2.062546   1.000000   1.000000
   12       -1.065143     -1.065143   1.000000   1.000000
   13       -0.528103     -0.528103   1.000000   1.000000
   14        0.190627      0.190627   1.000000   1.000000
   15        2.369908      2.369908   0.000000   0.000000
   16        3.973730      3.973730   0.000000   0.000000
   17        4.241124      4.241124   0.000000   0.000000
   18        5.239580      5.239580   0.000000   0.000000
   19        6.064437      6.064437   0.000000   0.000000
   20        7.329277      7.329277   0.000000   0.000000
   21        7.677601      7.677601   0.000000   0.000000
   22        8.618927      8.618927   0.000000   0.000000
   23        9.089087      9.089087   0.000000   0.000000
   24        9.446205      9.446205   0.000000   0.000000
   25       11.030389     11.030389   0.000000   0.000000
   26       11.689840     11.689840   0.000000   0.000000
   27       12.677157     12.677157   0.000000   0.000000
   28       12.863826     12.863826   0.000000   0.000000
   29       13.842558     13.842558   0.000000   0.000000
   30       15.093851     15.093851   0.000000   0.000000
   31       15.343547     15.343547   0.000000   0.000000
   32       16.542277     16.542277   0.000000   0.000000
 
  0.4285714E+00  0.1428571E+00  0.3608225E-15  0.1360544E-01
    1      -32.039322    -32.039322   1.000000   1.000000
    2      -30.131593    -30.131593   1.000000   1.000000
    3      -29.829131    -29.829131   1.000000   1.000000
    4      -29.698921    -29.698921   1.000000   1.000000
    5      -14.555905    -14.555905   1.000000   1.000000
    6      -14.192645    -14.192645   1.000000   1.000000
    7      -14.108052    -14.108052   1.000000   1.000000
    8       -4.002737     -4.002737   1.000000   1.000000
    9       -3.109966     -3.109966   1.000000   1.000000
   10       -2.344089     -2.344089   1.000000   1.000000
   11       -1.981345     -1.981345   1.000000   1.000000
   12       -1.375115     -1.375115   1.000000   1.000000
   13       -0.531205     -0.531205   1.000000   1.000000
   14        0.300542      0.300542   1.000000   1.000000
   15        2.963471      2.963471   0.000000   0.000000
   16        3.213362      3.213362   0.000000   0.000000
   17        4.044241      4.044241   0.000000   0.000000
   18        5.269588      5.269588   0.000000   0.000000
   19        5.856335      5.856335   0.000000   0.000000
   20        7.254096      7.254096   0.000000   0.000000
   21        7.603794      7.603794   0.000000   0.000000
   22        8.462779      8.462779   0.000000   0.000000
   23        9.084439      9.084439   0.000000   0.000000
   24       10.276867     10.276867   0.000000   0.000000
   25       10.823737     10.823737   0.000000   0.000000
   26       11.237797     11.237797   0.000000   0.000000
   27       12.418804     12.418804   0.000000   0.000000
   28       12.956684     12.956684   0.000000   0.000000
   29       13.672565     13.672565   0.000000   0.000000
   30       14.851137     14.851137   0.000000   0.000000
   31       16.096401     16.096401   0.000000   0.000000
   32       16.598911     16.598911   0.000000   0.000000
 
 -0.4285714E+00  0.1428571E+00  0.3851086E-15  0.1360544E-01
    1      -32.050484    -32.050484   1.000000   1.000000
    2      -30.105202    -30.105202   1.000000   1.000000
    3      -29.830602    -29.830602   1.000000   1.000000
    4      -29.701423    -29.701423   1.000000   1.000000
    5      -14.459312    -14.459312   1.000000   1.000000
    6      -14.215405    -14.215405   1.000000   1.000000
    7      -14.065333    -14.065333   1.000000   1.000000
    8       -4.760117     -4.760117   1.000000   1.000000
    9       -3.018756     -3.018756   1.000000   1.000000
   10       -2.538752     -2.538752   1.000000   1.000000
   11       -1.825541     -1.825541   1.000000   1.000000
   12       -0.790846     -0.790846   1.000000   1.000000
   13       -0.505484     -0.505484   1.000000   1.000000
   14        0.350441      0.350441   1.000000   1.000000
   15        2.079577      2.079577   0.000000   0.000000
   16        3.756593      3.756593   0.000000   0.000000
   17        4.753792      4.753792   0.000000   0.000000
   18        5.382174      5.382174   0.000000   0.000000
   19        5.992040      5.992040   0.000000   0.000000
   20        7.043342      7.043342   0.000000   0.000000
   21        7.688892      7.688892   0.000000   0.000000
   22        8.312260      8.312260   0.000000   0.000000
   23        9.121440      9.121440   0.000000   0.000000
   24        9.499059      9.499059   0.000000   0.000000
   25       11.225373     11.225373   0.000000   0.000000
   26       11.524685     11.524685   0.000000   0.000000
   27       12.367874     12.367874   0.000000   0.000000
   28       12.870709     12.870709   0.000000   0.000000
   29       13.867834     13.867834   0.000000   0.000000
   30       14.785491     14.785491   0.000000   0.000000
   31       15.899039     15.899039   0.000000   0.000000
   32       16.545358     16.545358   0.000000   0.000000
 
 -0.2857143E+00  0.1428571E+00  0.1269818E-14  0.1360544E-01
    1      -32.075123    -32.075123   1.000000   1.000000
    2      -30.062525    -30.062525   1.000000   1.000000
    3      -29.816819    -29.816819   1.000000   1.000000
    4      -29.706905    -29.706905   1.000000   1.000000
    5      -14.266526    -14.266526   1.000000   1.000000
    6      -14.230841    -14.230841   1.000000   1.000000
    7      -13.969638    -13.969638   1.000000   1.000000
    8       -5.772243     -5.772243   1.000000   1.000000
    9       -3.303665     -3.303665   1.000000   1.000000
   10       -2.550935     -2.550935   1.000000   1.000000
   11       -1.616080     -1.616080   1.000000   1.000000
   12       -0.462680     -0.462680   1.000000   1.000000
   13       -0.249431     -0.249431   1.000000   1.000000
   14        0.292100      0.292100   1.000000   1.000000
   15        1.867760      1.867760   0.000000   0.000000
   16        3.999954      3.999954   0.000000   0.000000
   17        5.489196      5.489196   0.000000   0.000000
   18        6.041959      6.041959   0.000000   0.000000
   19        6.480828      6.480828   0.000000   0.000000
   20        6.917234      6.917234   0.000000   0.000000
   21        7.863197      7.863197   0.000000   0.000000
   22        8.157129      8.157129   0.000000   0.000000
   23        8.383044      8.383044   0.000000   0.000000
   24        9.292536      9.292536   0.000000   0.000000
   25       10.724240     10.724240   0.000000   0.000000
   26       11.351869     11.351869   0.000000   0.000000
   27       12.617063     12.617063   0.000000   0.000000
   28       12.966556     12.966556   0.000000   0.000000
   29       14.331277     14.331277   0.000000   0.000000
   30       14.620777     14.620777   0.000000   0.000000
   31       15.337895     15.337895   0.000000   0.000000
   32       16.130445     16.130444   0.000000   0.000000
 
 -0.1428571E+00  0.1428571E+00  0.1249001E-14  0.1360544E-01
    1      -32.094614    -32.094614   1.000000   1.000000
    2      -30.037271    -30.037271   1.000000   1.000000
    3      -29.796813    -29.796813   1.000000   1.000000
    4      -29.710833    -29.710833   1.000000   1.000000
    5      -14.304668    -14.304668   1.000000   1.000000
    6      -14.024467    -14.024467   1.000000   1.000000
    7      -13.906090    -13.906090   1.000000   1.000000
    8       -6.388389     -6.388389   1.000000   1.000000
    9       -3.494620     -3.494620   1.000000   1.000000
   10       -2.698051     -2.698051   1.000000   1.000000
   11       -1.401016     -1.401016   1.000000   1.000000
   12       -0.615724     -0.615724   1.000000   1.000000
   13       -0.107133     -0.107133   1.000000   1.000000
   14        0.374785      0.374785   1.000000   1.000000
   15        2.170798      2.170798   0.000000   0.000000
   16        4.323067      4.323067   0.000000   0.000000
   17        5.551598      5.551598   0.000000   0.000000
   18        6.427925      6.427925   0.000000   0.000000
   19        6.747704      6.747704   0.000000   0.000000
   20        7.151860      7.151860   0.000000   0.000000
   21        7.368358      7.368358   0.000000   0.000000
   22        8.340546      8.340546   0.000000   0.000000
   23        8.703303      8.703303   0.000000   0.000000
   24        9.172033      9.172033   0.000000   0.000000
   25       10.147802     10.147802   0.000000   0.000000
   26       11.110938     11.110938   0.000000   0.000000
   27       12.026842     12.026842   0.000000   0.000000
   28       13.237059     13.237059   0.000000   0.000000
   29       14.207825     14.207825   0.000000   0.000000
   30       14.742346     14.742346   0.000000   0.000000
   31       15.120603     15.120603   0.000000   0.000000
   32       16.040468     16.040469   0.000000   0.000000
 
  0.3781697E-15  0.2857143E+00  0.3608225E-15  0.1360544E-01
    1      -32.067643    -32.067643   1.000000   1.000000
    2      -30.088283    -30.088283   1.000000   1.000000
    3      -29.807748    -29.807748   1.000000   1.000000
    4      -29.704112    -29.704112   1.000000   1.000000
    5      -14.331856    -14.331856   1.000000   1.000000
    6      -14.252458    -14.252458   1.000000   1.000000
    7      -13.964792    -13.964792   1.000000   1.000000
    8       -5.432232     -5.432232   1.000000   1.000000
    9       -3.279177     -3.279177   1.000000   1.000000
   10       -2.332420     -2.332420   1.000000   1.000000
   11       -1.949433     -1.949433   1.000000   1.000000
   12       -0.952631     -0.952631   1.000000   1.000000
   13       -0.098996     -0.098996   1.000000   1.000000
   14        0.335853      0.335853   1.000000   1.000000
   15        1.916700      1.916700   0.000000   0.000000
   16        4.093939      4.093939   0.000000   0.000000
   17        5.286918      5.286918   0.000000   0.000000
   18        5.511302      5.511302   0.000000   0.000000
   19        6.744003      6.744003   0.000000   0.000000
   20        7.176971      7.176971   0.000000   0.000000
   21        7.981594      7.981594   0.000000   0.000000
   22        8.136180      8.136180   0.000000   0.000000
   23        8.500922      8.500922   0.000000   0.000000
   24        9.265781      9.265781   0.000000   0.000000
   25       10.835942     10.835942   0.000000   0.000000
   26       11.640257     11.640257   0.000000   0.000000
   27       12.491816     12.491816   0.000000   0.000000
   28       13.040316     13.040316   0.000000   0.000000
   29       13.781558     13.781558   0.000000   0.000000
   30       14.798420     14.798420   0.000000   0.000000
   31       15.675261     15.675262   0.000000   0.000000
   32       16.191851     16.191839   0.000000   0.000000
 
  0.1428571E+00  0.2857143E+00  0.3608225E-15  0.1360544E-01
    1      -32.050493    -32.050493   1.000000   1.000000
    2      -30.118488    -30.118488   1.000000   1.000000
    3      -29.816331    -29.816331   1.000000   1.000000
    4      -29.700657    -29.700657   1.000000   1.000000
    5      -14.458198    -14.458198   1.000000   1.000000
    6      -14.216572    -14.216572   1.000000   1.000000
    7      -14.062886    -14.062886   1.000000   1.000000
    8       -4.700266     -4.700266   1.000000   1.000000
    9       -2.846418     -2.846418   1.000000   1.000000
   10       -2.529423     -2.529423   1.000000   1.000000
   11       -2.157627     -2.157627   1.000000   1.000000
   12       -0.990791     -0.990791   1.000000   1.000000
   13       -0.490112     -0.490112   1.000000   1.000000
   14        0.291739      0.291739   1.000000   1.000000
   15        2.397069      2.397069   0.000000   0.000000
   16        3.963900      3.963900   0.000000   0.000000
   17        4.137083      4.137083   0.000000   0.000000
   18        5.365565      5.365565   0.000000   0.000000
   19        6.326288      6.326288   0.000000   0.000000
   20        7.180903      7.180903   0.000000   0.000000
   21        8.062193      8.062193   0.000000   0.000000
   22        8.581776      8.581776   0.000000   0.000000
   23        8.736755      8.736755   0.000000   0.000000
   24        9.520178      9.520178   0.000000   0.000000
   25       11.097024     11.097024   0.000000   0.000000
   26       11.587145     11.587145   0.000000   0.000000
   27       12.279454     12.279454   0.000000   0.000000
   28       13.213318     13.213318   0.000000   0.000000
   29       13.649125     13.649125   0.000000   0.000000
   30       14.903209     14.903209   0.000000   0.000000
   31       15.447832     15.447832   0.000000   0.000000
   32       16.463246     16.463246   0.000000   0.000000
 
  0.2857143E+00  0.2857143E+00  0.1221245E-14  0.1360544E-01
    1      -32.036939    -32.036939   1.000000   1.000000
    2      -30.126040    -30.126040   1.000000   1.000000
    3      -29.840234    -29.840234   1.000000   1.000000
    4      -29.697807    -29.697807   1.000000   1.000000
    5      -14.463735    -14.463735   1.000000   1.000000
    6      -14.240149    -14.240149   1.000000   1.000000
    7      -14.188072    -14.188072   1.000000   1.000000
    8       -3.727968     -3.727968   1.000000   1.000000
    9       -3.121306     -3.121306   1.000000   1.000000
   10       -2.418738     -2.418738   1.000000   1.000000
   11       -1.906846     -1.906846   1.000000   1.000000
   12       -1.483146     -1.483146   1.000000   1.000000
   13       -0.728537     -0.728537   1.000000   1.000000
   14        0.396121      0.396121   1.000000   1.000000
   15        2.699651      2.699651   0.000000   0.000000
   16        3.427303      3.427303   0.000000   0.000000
   17        3.642146      3.642146   0.000000   0.000000
   18        5.516874      5.516874   0.000000   0.000000
   19        6.028240      6.028240   0.000000   0.000000
   20        7.196563      7.196563   0.000000   0.000000
   21        7.807645      7.807645   0.000000   0.000000
   22        8.621238      8.621238   0.000000   0.000000
   23        9.344137      9.344137   0.000000   0.000000
   24        9.746193      9.746193   0.000000   0.000000
   25       10.927955     10.927955   0.000000   0.000000
   26       11.483085     11.483085   0.000000   0.000000
   27       12.319483     12.319483   0.000000   0.000000
   28       13.068596     13.068596   0.000000   0.000000
   29       13.859137     13.859137   0.000000   0.000000
   30       14.347743     14.347743   0.000000   0.000000
   31       15.532471     15.532471   0.000000   0.000000
   32       16.592383     16.592383   0.000000   0.000000
 
  0.4285714E+00  0.2857143E+00  0.4440892E-15  0.1360544E-01
    1      -32.037240    -32.037240   1.000000   1.000000
    2      -30.106712    -30.106712   1.000000   1.000000
    3      -29.859844    -29.859844   1.000000   1.000000
    4      -29.697834    -29.697834   1.000000   1.000000
    5      -14.460990    -14.460990   1.000000   1.000000
    6      -14.241769    -14.241769   1.000000   1.000000
    7      -14.188782    -14.188782   1.000000   1.000000
    8       -3.786406     -3.786406   1.000000   1.000000
    9       -3.036727     -3.036727   1.000000   1.000000
   10       -2.762105     -2.762105   1.000000   1.000000
   11       -1.944373     -1.944373   1.000000   1.000000
   12       -0.950151     -0.950151   1.000000   1.000000
   13       -0.729207     -0.729207   1.000000   1.000000
   14        0.450091      0.450091   1.000000   1.000000
   15        2.387402      2.387402   0.000000   0.000000
   16        3.322020      3.322020   0.000000   0.000000
   17        4.114504      4.114504   0.000000   0.000000
   18        5.528744      5.528744   0.000000   0.000000
   19        5.821201      5.821201   0.000000   0.000000
   20        7.075973      7.075973   0.000000   0.000000
   21        7.939532      7.939532   0.000000   0.000000
   22        8.288135      8.288135   0.000000   0.000000
   23        9.614988      9.614988   0.000000   0.000000
   24        9.802202      9.802202   0.000000   0.000000
   25       10.796396     10.796396   0.000000   0.000000
   26       11.637248     11.637248   0.000000   0.000000
   27       11.940656     11.940656   0.000000   0.000000
   28       13.345324     13.345324   0.000000   0.000000
   29       13.563388     13.563388   0.000000   0.000000
   30       14.297483     14.297483   0.000000   0.000000
   31       15.588030     15.588031   0.000000   0.000000
   32       16.771243     16.771264   0.000000   0.000000
 
 -0.4285714E+00  0.2857143E+00  0.3608225E-15  0.1360544E-01
    1      -32.051176    -32.051176   1.000000   1.000000
    2      -30.073313    -30.073313   1.000000   1.000000
    3      -29.861964    -29.861964   1.000000   1.000000
    4      -29.700893    -29.700893   1.000000   1.000000
    5      -14.455588    -14.455588   1.000000   1.000000
    6      -14.218064    -14.218064   1.000000   1.000000
    7      -14.063034    -14.063034   1.000000   1.000000
    8       -4.656995     -4.656995   1.000000   1.000000
    9       -3.388186     -3.388186   1.000000   1.000000
   10       -2.578923     -2.578923   1.000000   1.000000
   11       -1.886996     -1.886996   1.000000   1.000000
   12       -0.846638     -0.846638   1.000000   1.000000
   13        0.042371      0.042371   1.000000   1.000000
   14        0.400511      0.400511   1.000000   1.000000
   15        2.166733      2.166733   0.000000   0.000000
   16        3.764767      3.764767   0.000000   0.000000