 running on   16 total cores
 distrk:  each k-point on   16 cores,    1 groups
 distr:  one band on    1 cores,   16 groups
 using from now: INCAR     
 vasp.5.4.4.18Apr17-6-g9f103f2a35 (build Nov 01 2019 12:17:22) complex          
  
 POSCAR found type information on POSCAR  Sr Nb H 
 POSCAR found :  3 types and       9 ions

 ----------------------------------------------------------------------------- 
|                                                                             |
|           W    W    AA    RRRRR   N    N  II  N    N   GGGG   !!!           |
|           W    W   A  A   R    R  NN   N  II  NN   N  G    G  !!!           |
|           W    W  A    A  R    R  N N  N  II  N N  N  G       !!!           |
|           W WW W  AAAAAA  RRRRR   N  N N  II  N  N N  G  GGG   !            |
|           WW  WW  A    A  R   R   N   NN  II  N   NN  G    G                |
|           W    W  A    A  R    R  N    N  II  N    N   GGGG   !!!           |
|                                                                             |
|      For optimal performance we recommend to set                            |
|        NCORE= 4 - approx SQRT( number of cores)                             |
|      NCORE specifies how many cores store one orbital (NPAR=cpu/NCORE).     |
|      This setting can  greatly improve the performance of VASP for DFT.     |
|      The default,   NCORE=1            might be grossly inefficient         |
|      on modern multi-core architectures or massively parallel machines.     |
|      Do your own testing !!!!                                               |
|      Unfortunately you need to use the default for GW and RPA calculations. |
|      (for HF NCORE is supported but not extensively tested yet)             |
|                                                                             |
 ----------------------------------------------------------------------------- 

 LDA part: xc-table for Pade appr. of Perdew
 POSCAR, INCAR and KPOINTS ok, starting setup
 FFT: planning ...
 WAVECAR not read
 entering main loop
       N       E                     dE             d eps       ncg     rms          rms(c)
DAV:   1     0.137083482400E+03    0.13708E+03   -0.13070E+04  9472   0.816E+02
DAV:   2    -0.298222214912E+02   -0.16691E+03   -0.15662E+03 11232   0.235E+02
DAV:   3    -0.374230963141E+02   -0.76009E+01   -0.75460E+01 17424   0.455E+01
DAV:   4    -0.374800304350E+02   -0.56934E-01   -0.56931E-01 10048   0.285E+00
DAV:   5    -0.374811001134E+02   -0.10697E-02   -0.10697E-02 14176   0.327E-01    0.383E+01
RMM:   6    -0.360878612618E+02    0.13932E+01   -0.44961E+00 10022   0.909E+00    0.175E+01
RMM:   7    -0.359570834384E+02    0.13078E+00   -0.65321E-01 10300   0.497E+00    0.808E+00
RMM:   8    -0.359332011559E+02    0.23882E-01   -0.97217E-02 10195   0.211E+00    0.392E+00
RMM:   9    -0.359380867127E+02   -0.48856E-02   -0.38707E-02 10199   0.115E+00    0.978E-01
RMM:  10    -0.359384356147E+02   -0.34890E-03   -0.73502E-03 10031   0.613E-01    0.581E-01
RMM:  11    -0.359385204127E+02   -0.84798E-04   -0.11902E-03  8406   0.238E-01
   1 F= -.35938520E+02 E0= -.35938520E+02  d E =-.359385E+02  mag=     0.0067
 curvature:   0.00 expect dE= 0.000E+00 dE for cont linesearch  0.000E+00
 trial: gam= 0.00000 g(F)=  0.330E-02 g(S)=  0.422E-01 ort = 0.000E+00 (trialstep = 0.100E+01)
 search vector abs. value=  0.455E-01
 bond charge predicted
       N       E                     dE             d eps       ncg     rms          rms(c)
DAV:   1    -0.360832386636E+02   -0.14480E+00   -0.20979E+00 14176   0.954E+00    0.375E+00
RMM:   2    -0.359849335425E+02    0.98305E-01   -0.19925E-01  9860   0.248E+00    0.913E-01
RMM:   3    -0.359710594123E+02    0.13874E-01   -0.16192E-02 10323   0.112E+00    0.919E-01
RMM:   4    -0.359686436699E+02    0.24157E-02   -0.50350E-03  9573   0.433E-01    0.792E-01
RMM:   5    -0.359682853677E+02    0.35830E-03   -0.50017E-03 10124   0.402E-01    0.285E-01
RMM:   6    -0.359685301694E+02   -0.24480E-03   -0.34421E-03  9631   0.250E-01
   2 F= -.35968530E+02 E0= -.35968530E+02  d E =-.300098E-01  mag=     0.0001
 trial-energy change:   -0.030010  1 .order   -0.032040   -0.045535   -0.018545
 step:   1.6871(harm=  1.6871)  dis= 0.00801  next Energy=   -35.976931 (dE=-0.384E-01)
 bond charge predicted
       N       E                     dE             d eps       ncg     rms          rms(c)
DAV:   1    -0.360266928783E+02   -0.58408E-01   -0.96801E-01  9472   0.649E+00    0.252E+00
RMM:   2    -0.359810028437E+02    0.45690E-01   -0.87626E-02  9767   0.167E+00    0.604E-01
RMM:   3    -0.359752315215E+02    0.57713E-02   -0.74127E-03 10241   0.742E-01    0.624E-01
RMM:   4    -0.359743420042E+02    0.88952E-03   -0.23565E-03  8762   0.303E-01    0.549E-01
RMM:   5    -0.359743509828E+02   -0.89786E-05   -0.19596E-03  9196   0.270E-01
   3 F= -.35974351E+02 E0= -.35974351E+02  d E =-.358306E-01  mag=     0.0000
 curvature:  -0.84 expect dE=-0.102E-01 dE for cont linesearch -0.108E-02
 trial: gam= 0.09622 g(F)=  0.110E-01 g(S)=  0.108E-02 ort = 0.765E-02 (trialstep = 0.114E+01)
 search vector abs. value=  0.139E-01
 bond charge predicted
       N       E                     dE             d eps       ncg     rms          rms(c)
DAV:   1    -0.359903443676E+02   -0.16002E-01   -0.10394E+00 11840   0.720E+00    0.984E-01
RMM:   2    -0.359836080488E+02    0.67363E-02   -0.47735E-02 10238   0.104E+00    0.322E-01
RMM:   3    -0.359820446274E+02    0.15634E-02   -0.25097E-03  9319   0.438E-01    0.303E-01
RMM:   4    -0.359820047319E+02    0.39896E-04   -0.12816E-03  8368   0.184E-01
   4 F= -.35982005E+02 E0= -.35982005E+02  d E =-.765375E-02  mag=     0.0000
 trial-energy change:   -0.007654  1 .order   -0.009015   -0.014523   -0.003507
 step:   1.4995(harm=  1.4995)  dis= 0.01847  next Energy=   -35.983924 (dE=-0.957E-02)
 bond charge predicted
       N       E                     dE             d eps       ncg     rms          rms(c)
DAV:   1    -0.359831528196E+02   -0.11082E-02   -0.10513E-01 14704   0.232E+00    0.283E-01
RMM:   2    -0.359824788871E+02    0.67393E-03   -0.45850E-03  9242   0.339E-01    0.135E-01
RMM:   3    -0.359823535727E+02    0.12531E-03   -0.29954E-04  5206   0.182E-01
   5 F= -.35982354E+02 E0= -.35982354E+02  d E =-.800259E-02  mag=     0.0000
 curvature:  -0.82 expect dE=-0.738E-02 dE for cont linesearch -0.168E-05
 trial: gam= 0.79244 g(F)=  0.882E-02 g(S)=  0.206E-03 ort =-0.169E-03 (trialstep = 0.963E+00)
 search vector abs. value=  0.175E-01
 bond charge predicted
       N       E                     dE             d eps       ncg     rms          rms(c)
DAV:   1    -0.359923727718E+02   -0.98939E-02   -0.40538E-01 11872   0.404E+00    0.593E-01
RMM:   2    -0.359879287914E+02    0.44440E-02   -0.16400E-02 10206   0.631E-01    0.373E-01
RMM:   3    -0.359872939406E+02    0.63485E-03   -0.83881E-04  7818   0.267E-01    0.342E-01
RMM:   4    -0.359872508658E+02    0.43075E-04   -0.83367E-04  7415   0.149E-01
   6 F= -.35987251E+02 E0= -.35987251E+02  d E =-.489729E-02  mag=     0.0000
 trial-energy change:   -0.004897  1 .order   -0.005458   -0.008560   -0.002356
 step:   1.3281(harm=  1.3281)  dis= 0.02020  next Energy=   -35.988259 (dE=-0.591E-02)
 bond charge predicted
       N       E                     dE             d eps       ncg     rms          rms(c)
DAV:   1    -0.359881749020E+02   -0.88096E-03   -0.57538E-02 15936   0.153E+00    0.211E-01
RMM:   2    -0.359876143659E+02    0.56054E-03   -0.20624E-03  8784   0.237E-01    0.128E-01
RMM:   3    -0.359875694380E+02    0.44928E-04   -0.16239E-04  4860   0.131E-01
   7 F= -.35987569E+02 E0= -.35987569E+02  d E =-.521587E-02  mag=     0.0000
 curvature:  -1.31 expect dE=-0.565E-02 dE for cont linesearch -0.397E-05
 trial: gam= 0.47244 g(F)=  0.294E-02 g(S)=  0.138E-02 ort =-0.231E-03 (trialstep = 0.104E+01)
 search vector abs. value=  0.801E-02
 bond charge predicted
       N       E                     dE             d eps       ncg     rms          rms(c)
DAV:   1    -0.359933530719E+02   -0.57387E-02   -0.27857E-01 11840   0.360E+00    0.479E-01
RMM:   2    -0.359910758270E+02    0.22772E-02   -0.14569E-02 10218   0.584E-01    0.194E-01
RMM:   3    -0.359904791252E+02    0.59670E-03   -0.71600E-04  7786   0.256E-01    0.213E-01
RMM:   4    -0.359904488832E+02    0.30242E-04   -0.39337E-04  6518   0.130E-01
   8 F= -.35990449E+02 E0= -.35990449E+02  d E =-.287945E-02  mag=     0.0000
 trial-energy change:   -0.002879  1 .order   -0.003394   -0.004363   -0.002425
 step:   2.3320(harm=  2.3320)  dis= 0.01542  next Energy=   -35.992481 (dE=-0.491E-02)
 bond charge predicted
       N       E                     dE             d eps       ncg     rms          rms(c)
DAV:   1    -0.359949713145E+02   -0.44922E-02   -0.43111E-01 12224   0.449E+00    0.629E-01
RMM:   2    -0.359915659211E+02    0.34054E-02   -0.22548E-02 10208   0.722E-01    0.218E-01
RMM:   3    -0.359906434404E+02    0.92248E-03   -0.11331E-03  8084   0.313E-01    0.226E-01
RMM:   4    -0.359905874199E+02    0.56021E-04   -0.55895E-04  7225   0.152E-01
   9 F= -.35990587E+02 E0= -.35990587E+02  d E =-.301798E-02  mag=     0.0000
 curvature:  -2.22 expect dE=-0.163E-01 dE for cont linesearch -0.774E-04
 trial: gam= 1.81441 g(F)=  0.541E-02 g(S)=  0.194E-02 ort =-0.529E-03 (trialstep = 0.326E+00)
 search vector abs. value=  0.318E-01
 reached required accuracy - stopping structural energy minimisation
