       N       E                     dE             d eps       ncg     rms          rms(c)
DAV:   1     0.270346353739E+03    0.27035E+03   -0.19376E+04  9472   0.120E+03
DAV:   2    -0.339323779223E+02   -0.30428E+03   -0.29723E+03 10544   0.383E+02
DAV:   3    -0.496956295611E+02   -0.15763E+02   -0.15583E+02 18736   0.716E+01
DAV:   4    -0.498410659443E+02   -0.14544E+00   -0.14553E+00  9664   0.556E+00
DAV:   5    -0.498461144030E+02   -0.50485E-02   -0.50394E-02 16608   0.109E+00    0.423E+01
RMM:   6    -0.484771189946E+02    0.13690E+01   -0.93770E+00 10703   0.153E+01    0.175E+01
RMM:   7    -0.484152679425E+02    0.61851E-01   -0.28910E+00 11089   0.870E+00    0.760E+00
RMM:   8    -0.483661244604E+02    0.49143E-01   -0.39808E-01 11199   0.349E+00    0.438E+00
RMM:   9    -0.483344557421E+02    0.31669E-01   -0.11065E-01 10989   0.197E+00    0.259E+00
RMM:  10    -0.483173160308E+02    0.17140E-01   -0.30176E-02 10731   0.112E+00    0.106E+00
RMM:  11    -0.483158540752E+02    0.14620E-02   -0.72544E-03 10104   0.555E-01    0.287E-01
RMM:  12    -0.483157595170E+02    0.94558E-04   -0.15420E-03  7867   0.234E-01
   1 F= -.48315760E+02 E0= -.48315760E+02  d E =-.483158E+02  mag=     0.0156
       N       E                     dE             d eps       ncg     rms          rms(c)
DAV:   1    -0.484421168809E+02   -0.12626E+00   -0.25899E+00 14160   0.114E+01    0.397E+00
RMM:   2    -0.483442884526E+02    0.97828E-01   -0.23068E-01 10353   0.350E+00    0.832E-01
RMM:   3    -0.483353359992E+02    0.89525E-02   -0.81577E-02 10957   0.176E+00    0.818E-01
RMM:   4    -0.483333856468E+02    0.19504E-02   -0.54727E-03  9350   0.489E-01    0.686E-01
RMM:   5    -0.483335048141E+02   -0.11917E-03   -0.19220E-03  7626   0.463E-01
   2 F= -.48333505E+02 E0= -.48333505E+02  d E =-.177453E-01  mag=     0.0026
       N       E                     dE             d eps       ncg     rms          rms(c)
DAV:   1    -0.483711361863E+02   -0.37751E-01   -0.96740E-01  9792   0.700E+00    0.236E+00
RMM:   2    -0.483322067466E+02    0.38929E-01   -0.87457E-02 10257   0.212E+00    0.510E-01
RMM:   3    -0.483278891253E+02    0.43176E-02   -0.25589E-02 10816   0.112E+00    0.558E-01
RMM:   4    -0.483273988793E+02    0.49025E-03   -0.21266E-03  7674   0.302E-01
   3 F= -.48327399E+02 E0= -.48327399E+02  d E =-.116394E-01  mag=     0.0009
       N       E                     dE             d eps       ncg     rms          rms(c)
DAV:   1    -0.483417853819E+02   -0.13896E-01   -0.43702E-01 14144   0.544E+00    0.144E+00
RMM:   2    -0.483359147765E+02    0.58706E-02   -0.36530E-02 10957   0.115E+00    0.470E-01
RMM:   3    -0.483368558707E+02   -0.94109E-03   -0.87643E-03 10377   0.697E-01    0.362E-01
RMM:   4    -0.483331900100E+02    0.36659E-02   -0.25015E-03  8732   0.337E-01    0.931E-02
RMM:   5    -0.483331584488E+02    0.31561E-04   -0.34419E-04  6396   0.218E-01
   4 F= -.48333158E+02 E0= -.48333158E+02  d E =-.575957E-02  mag=     0.0002
       N       E                     dE             d eps       ncg     rms          rms(c)
DAV:   1    -0.484030376675E+02   -0.69848E-01   -0.36964E+00 11840   0.161E+01    0.400E+00
RMM:   2    -0.483364884963E+02    0.66549E-01   -0.32046E-01 11029   0.359E+00    0.968E-01
RMM:   3    -0.483228665533E+02    0.13622E-01   -0.57954E-02 11128   0.212E+00    0.732E-01
RMM:   4    -0.483221541357E+02    0.71242E-03   -0.14659E-02 11377   0.589E-01    0.578E-01
RMM:   5    -0.483222027870E+02   -0.48651E-04   -0.29872E-03  8386   0.442E-01
   5 F= -.48322203E+02 E0= -.48322203E+02  d E =0.519609E-02  mag=     0.0000
       N       E                     dE             d eps       ncg     rms          rms(c)
DAV:   1    -0.483642864717E+02   -0.42132E-01   -0.15323E+00 11904   0.103E+01    0.253E+00
RMM:   2    -0.483399410212E+02    0.24345E-01   -0.12658E-01 11069   0.224E+00    0.632E-01
RMM:   3    -0.483348485857E+02    0.50924E-02   -0.20432E-02 11029   0.125E+00    0.433E-01
RMM:   4    -0.483344040615E+02    0.44452E-03   -0.49536E-03  9414   0.365E-01
   6 F= -.48334404E+02 E0= -.48334404E+02  d E =-.700518E-02  mag=     0.0000
