Automatically generated mesh
      91
Reciprocal lattice
    0.00000000000000    0.00000000000000    0.00000000000000             1
    0.11111111111111    0.00000000000000    0.00000000000000             2
    0.22222222222222    0.00000000000000    0.00000000000000             2
    0.33333333333333    0.00000000000000    0.00000000000000             2
    0.44444444444444    0.00000000000000    0.00000000000000             2
    0.00000000000000    0.20000000000000    0.00000000000000             2
    0.11111111111111    0.20000000000000    0.00000000000000             2
    0.22222222222222    0.20000000000000    0.00000000000000             2
    0.33333333333333    0.20000000000000    0.00000000000000             2
    0.44444444444444    0.20000000000000    0.00000000000000             2
   -0.44444444444444    0.20000000000000    0.00000000000000             2
   -0.33333333333333    0.20000000000000    0.00000000000000             2
   -0.22222222222222    0.20000000000000    0.00000000000000             2
   -0.11111111111111    0.20000000000000    0.00000000000000             2
    0.00000000000000    0.40000000000000    0.00000000000000             2
    0.11111111111111    0.40000000000000    0.00000000000000             2
    0.22222222222222    0.40000000000000    0.00000000000000             2
    0.33333333333333    0.40000000000000    0.00000000000000             2
    0.44444444444444    0.40000000000000    0.00000000000000             2
   -0.44444444444444    0.40000000000000    0.00000000000000             2
   -0.33333333333333    0.40000000000000    0.00000000000000             2
   -0.22222222222222    0.40000000000000    0.00000000000000             2
   -0.11111111111111    0.40000000000000    0.00000000000000             2
    0.00000000000000    0.00000000000000    0.25000000000000             2
    0.11111111111111    0.00000000000000    0.25000000000000             2
    0.22222222222222    0.00000000000000    0.25000000000000             2
    0.33333333333333    0.00000000000000    0.25000000000000             2
    0.44444444444444    0.00000000000000    0.25000000000000             2
   -0.44444444444444    0.00000000000000    0.25000000000000             2
   -0.33333333333333    0.00000000000000    0.25000000000000             2
   -0.22222222222222    0.00000000000000    0.25000000000000             2
   -0.11111111111111    0.00000000000000    0.25000000000000             2
    0.00000000000000    0.20000000000000    0.25000000000000             2
    0.11111111111111    0.20000000000000    0.25000000000000             2
    0.22222222222222    0.20000000000000    0.25000000000000             2
    0.33333333333333    0.20000000000000    0.25000000000000             2
    0.44444444444444    0.20000000000000    0.25000000000000             2
   -0.44444444444444    0.20000000000000    0.25000000000000             2
   -0.33333333333333    0.20000000000000    0.25000000000000             2
   -0.22222222222222    0.20000000000000    0.25000000000000             2
   -0.11111111111111    0.20000000000000    0.25000000000000             2
    0.00000000000000    0.40000000000000    0.25000000000000             2
    0.11111111111111    0.40000000000000    0.25000000000000             2
    0.22222222222222    0.40000000000000    0.25000000000000             2
    0.33333333333333    0.40000000000000    0.25000000000000             2
    0.44444444444444    0.40000000000000    0.25000000000000             2
   -0.44444444444444    0.40000000000000    0.25000000000000             2
   -0.33333333333333    0.40000000000000    0.25000000000000             2
   -0.22222222222222    0.40000000000000    0.25000000000000             2
   -0.11111111111111    0.40000000000000    0.25000000000000             2
    0.00000000000000   -0.40000000000000    0.25000000000000             2
    0.11111111111111   -0.40000000000000    0.25000000000000             2
    0.22222222222222   -0.40000000000000    0.25000000000000             2
    0.33333333333333   -0.40000000000000    0.25000000000000             2
    0.44444444444444   -0.40000000000000    0.25000000000000             2
   -0.44444444444444   -0.40000000000000    0.25000000000000             2
   -0.33333333333333   -0.40000000000000    0.25000000000000             2
   -0.22222222222222   -0.40000000000000    0.25000000000000             2
   -0.11111111111111   -0.40000000000000    0.25000000000000             2
    0.00000000000000   -0.20000000000000    0.25000000000000             2
    0.11111111111111   -0.20000000000000    0.25000000000000             2
    0.22222222222222   -0.20000000000000    0.25000000000000             2
    0.33333333333333   -0.20000000000000    0.25000000000000             2
    0.44444444444444   -0.20000000000000    0.25000000000000             2
   -0.44444444444444   -0.20000000000000    0.25000000000000             2
   -0.33333333333333   -0.20000000000000    0.25000000000000             2
   -0.22222222222222   -0.20000000000000    0.25000000000000             2
   -0.11111111111111   -0.20000000000000    0.25000000000000             2
    0.00000000000000    0.00000000000000    0.50000000000000             1
    0.11111111111111    0.00000000000000    0.50000000000000             2
    0.22222222222222    0.00000000000000    0.50000000000000             2
    0.33333333333333    0.00000000000000    0.50000000000000             2
    0.44444444444444    0.00000000000000    0.50000000000000             2
    0.00000000000000    0.20000000000000    0.50000000000000             2
    0.11111111111111    0.20000000000000    0.50000000000000             2
    0.22222222222222    0.20000000000000    0.50000000000000             2
    0.33333333333333    0.20000000000000    0.50000000000000             2
    0.44444444444444    0.20000000000000    0.50000000000000             2
   -0.44444444444444    0.20000000000000    0.50000000000000             2
   -0.33333333333333    0.20000000000000    0.50000000000000             2
   -0.22222222222222    0.20000000000000    0.50000000000000             2
   -0.11111111111111    0.20000000000000    0.50000000000000             2
    0.00000000000000    0.40000000000000    0.50000000000000             2
    0.11111111111111    0.40000000000000    0.50000000000000             2
    0.22222222222222    0.40000000000000    0.50000000000000             2
    0.33333333333333    0.40000000000000    0.50000000000000             2
    0.44444444444444    0.40000000000000    0.50000000000000             2
   -0.44444444444444    0.40000000000000    0.50000000000000             2
   -0.33333333333333    0.40000000000000    0.50000000000000             2
   -0.22222222222222    0.40000000000000    0.50000000000000             2
   -0.11111111111111    0.40000000000000    0.50000000000000             2
Tetrahedra
       538    0.00092592592593
         2         2         6         7        33
         2         1         2         6        33
         2         1         2        24        33
         2         2         7        33        34
         2         2        25        33        34
         2         2        24        25        33
         2         3         7         8        34
         2         2         3         7        34
         2         2         3        25        34
         2         3         8        34        35
         2         3        26        34        35
         2         3        25        26        34
         2         4         8         9        35
         2         3         4         8        35
         2         3         4        26        35
         2         4         9        35        36
         2         4        27        35        36
         2         4        26        27        35
         2         5         9        10        36
         2         4         5         9        36
         2         4         5        27        36
         2         5        10        36        37
         2         5        28        36        37
         2         5        27        28        36
         2         5        10        11        37
         2         5         5        10        37
         2         5         5        28        37
         2         5        11        37        38
         2         5        29        37        38
         2         5        28        29        37
         2         4        11        12        38
         2         4         5        11        38
         2         4         5        29        38
         2         4        12        38        39
         2         4        30        38        39
         2         4        29        30        38
         2         3        12        13        39
         2         3         4        12        39
         2         3         4        30        39
         2         3        13        39        40
         2         3        31        39        40
         2         3        30        31        39
         2         2        13        14        40
         2         2         3        13        40
         2         2         3        31        40
         2         2        14        40        41
         2         2        32        40        41
         2         2        31        32        40
         2         1         6        14        41
         2         1         2        14        41
         2         1         2        32        41
         2         1         6        33        41
         2         1        24        33        41
         2         1        24        32        41
         2         7        15        16        42
         2         6         7        15        42
         2         6         7        33        42
         2         7        16        42        43
         2         7        34        42        43
         2         7        33        34        42
         2         8        16        17        43
         2         7         8        16        43
         2         7         8        34        43
         2         8        17        43        44
         2         8        35        43        44
         2         8        34        35        43
         2         9        17        18        44
         2         8         9        17        44
         2         8         9        35        44
         2         9        18        44        45
         2         9        36        44        45
         2         9        35        36        44
         2        10        18        19        45
         2         9        10        18        45
         2         9        10        36        45
         2        10        19        45        46
         2        10        37        45        46
         2        10        36        37        45
         2        11        19        20        46
         2        10        11        19        46
         2        10        11        37        46
         2        11        20        46        47
         2        11        38        46        47
         2        11        37        38        46
         2        12        20        21        47
         2        11        12        20        47
         2        11        12        38        47
         2        12        21        47        48
         2        12        39        47        48
         2        12        38        39        47
         2        13        21        22        48
         2        12        13        21        48
         2        12        13        39        48
         2        13        22        48        49
         2        13        40        48        49
         2        13        39        40        48
         2        14        22        23        49
         2        13        14        22        49
         2        13        14        40        49
         2        14        23        49        50
         2        14        41        49        50
         2        14        40        41        49
         2         6        15        23        50
         2         6        14        23        50
         2         6        14        41        50
         2         6        15        42        50
         2         6        33        42        50
         2         6        33        41        50
         2        15        16        23        51
         2        15        15        16        51
         2        15        16        42        51
         2        16        23        51        52
         2        16        43        51        52
         2        16        42        43        51
         2        17        22        23        52
         2        16        17        23        52
         2        16        17        43        52
         2        17        22        52        53
         2        17        44        52        53
         2        17        43        44        52
         2        18        21        22        53
         2        17        18        22        53
         2        17        18        44        53
         2        18        21        53        54
         2        18        45        53        54
         2        18        44        45        53
         2        19        20        21        54
         2        18        19        21        54
         2        18        19        45        54
         2        19        20        54        55
         2        19        46        54        55
         2        19        45        46        54
         4        19        20        20        55
         2        19        20        46        55
         2        19        20        55        56
         2        20        47        55        56
         2        20        46        47        55
         2        18        19        21        56
         2        19        20        21        56
         2        20        21        47        56
         2        18        21        56        57
         2        21        48        56        57
         2        21        47        48        56
         2        17        18        22        57
         2        18        21        22        57
         2        21        22        48        57
         2        17        22        57        58
         2        22        49        57        58
         2        22        48        49        57
         2        16        17        23        58
         2        17        22        23        58
         2        22        23        49        58
         2        16        23        58        59
         2        23        50        58        59
         2        23        49        50        58
         2        15        15        16        59
         2        15        16        23        59
         2        15        23        50        59
         2        15        15        51        59
         2        15        42        51        59
         2        15        42        50        59
         2         6        14        23        60
         2         6        15        23        60
         2        15        23        51        60
         2        14        23        60        61
         2        23        52        60        61
         2        23        51        52        60
         2        13        14        22        61
         2        14        22        23        61
         2        22        23        52        61
         2        13        22        61        62
         2        22        53        61        62
         2        22        52        53        61
         2        12        13        21        62
         2        13        21        22        62
         2        21        22        53        62
         2        12        21        62        63
         2        21        54        62        63
         2        21        53        54        62
         2        11        12        20        63
         2        12        20        21        63
         2        20        21        54        63
         2        11        20        63        64
         2        20        55        63        64
         2        20        54        55        63
         2        10        11        19        64
         2        11        19        20        64
         2        19        20        55        64
         2        10        19        64        65
         2        19        56        64        65
         2        19        55        56        64
         2         9        10        18        65
         2        10        18        19        65
         2        18        19        56        65
         2         9        18        65        66
         2        18        57        65        66
         2        18        56        57        65
         2         8         9        17        66
         2         9        17        18        66
         2        17        18        57        66
         2         8        17        66        67
         2        17        58        66        67
         2        17        57        58        66
         2         7         8        16        67
         2         8        16        17        67
         2        16        17        58        67
         2         7        16        67        68
         2        16        59        67        68
         2        16        58        59        67
         2         6         7        15        68
         2         7        15        16        68
         2        15        16        59        68
         2         6        15        60        68
         2        15        51        60        68
         2        15        51        59        68
         2         1         2        14        24
         2         1         6        14        24
         2         6        14        24        60
         2         2        14        24        25
         2        14        24        25        61
         2        14        24        60        61
         2         2         3        13        25
         2         2        13        14        25
         2        13        14        25        61
         2         3        13        25        26
         2        13        25        26        62
         2        13        25        61        62
         2         3         4        12        26
         2         3        12        13        26
         2        12        13        26        62
         2         4        12        26        27
         2        12        26        27        63
         2        12        26        62        63
         2         4         5        11        27
         2         4        11        12        27
         2        11        12        27        63
         2         5        11        27        28
         2        11        27        28        64
         2        11        27        63        64
         2         5         5        10        28
         2         5        10        11        28
         2        10        11        28        64
         2         5        10        28        29
         2        10        28        29        65
         2        10        28        64        65
         2         4         5         9        29
         2         5         9        10        29
         2         9        10        29        65
         2         4         9        29        30
         2         9        29        30        66
         2         9        29        65        66
         2         3         4         8        30
         2         4         8         9        30
         2         8         9        30        66
         2         3         8        30        31
         2         8        30        31        67
         2         8        30        66        67
         2         2         3         7        31
         2         3         7         8        31
         2         7         8        31        67
         2         2         7        31        32
         2         7        31        32        68
         2         7        31        67        68
         2         1         2         6        32
         2         2         6         7        32
         2         6         7        32        68
         2         1         6        24        32
         2         6        24        32        60
         2         6        32        60        68
         2        25        33        34        74
         2        24        25        33        74
         2        24        25        69        74
         2        25        34        74        75
         2        25        70        74        75
         2        25        69        70        74
         2        26        34        35        75
         2        25        26        34        75
         2        25        26        70        75
         2        26        35        75        76
         2        26        71        75        76
         2        26        70        71        75
         2        27        35        36        76
         2        26        27        35        76
         2        26        27        71        76
         2        27        36        76        77
         2        27        72        76        77
         2        27        71        72        76
         2        28        36        37        77
         2        27        28        36        77
         2        27        28        72        77
         2        28        37        77        78
         2        28        73        77        78
         2        28        72        73        77
         2        29        37        38        78
         2        28        29        37        78
         2        28        29        73        78
         2        29        38        78        79
         2        29        73        78        79
         2        29        73        73        78
         2        30        38        39        79
         2        29        30        38        79
         2        29        30        73        79
         2        30        39        79        80
         2        30        72        79        80
         2        30        72        73        79
         2        31        39        40        80
         2        30        31        39        80
         2        30        31        72        80
         2        31        40        80        81
         2        31        71        80        81
         2        31        71        72        80
         2        32        40        41        81
         2        31        32        40        81
         2        31        32        71        81
         2        32        41        81        82
         2        32        70        81        82
         2        32        70        71        81
         2        24        33        41        82
         2        24        32        41        82
         2        24        32        70        82
         2        24        33        74        82
         2        24        69        74        82
         2        24        69        70        82
         2        34        42        43        83
         2        33        34        42        83
         2        33        34        74        83
         2        34        43        83        84
         2        34        75        83        84
         2        34        74        75        83
         2        35        43        44        84
         2        34        35        43        84
         2        34        35        75        84
         2        35        44        84        85
         2        35        76        84        85
         2        35        75        76        84
         2        36        44        45        85
         2        35        36        44        85
         2        35        36        76        85
         2        36        45        85        86
         2        36        77        85        86
         2        36        76        77        85
         2        37        45        46        86
         2        36        37        45        86
         2        36        37        77        86
         2        37        46        86        87
         2        37        78        86        87
         2        37        77        78        86
         2        38        46        47        87
         2        37        38        46        87
         2        37        38        78        87
         2        38        47        87        88
         2        38        79        87        88
         2        38        78        79        87
         2        39        47        48        88
         2        38        39        47        88
         2        38        39        79        88
         2        39        48        88        89
         2        39        80        88        89
         2        39        79        80        88
         2        40        48        49        89
         2        39        40        48        89
         2        39        40        80        89
         2        40        49        89        90
         2        40        81        89        90
         2        40        80        81        89
         2        41        49        50        90
         2        40        41        49        90
         2        40        41        81        90
         2        41        50        90        91
         2        41        82        90        91
         2        41        81        82        90
         2        33        42        50        91
         2        33        41        50        91
         2        33        41        82        91
         2        33        42        83        91
         2        33        74        83        91
         2        33        74        82        91
         2        43        51        52        83
         2        42        43        51        83
         2        42        43        83        83
         2        43        52        83        91
         2        43        83        84        91
         2        43        83        83        84
         2        44        52        53        91
         2        43        44        52        91
         2        43        44        84        91
         2        44        53        90        91
         2        44        85        90        91
         2        44        84        85        91
         2        45        53        54        90
         2        44        45        53        90
         2        44        45        85        90
         2        45        54        89        90
         2        45        86        89        90
         2        45        85        86        90
         2        46        54        55        89
         2        45        46        54        89
         2        45        46        86        89
         2        46        55        88        89
         2        46        87        88        89
         2        46        86        87        89
         2        47        55        56        88
         2        46        47        55        88
         2        46        47        87        88
         2        47        56        87        88
         4        47        87        88        88
         2        48        56        57        87
         2        47        48        56        87
         2        47        48        87        88
         2        48        57        86        87
         2        48        86        87        89
         2        48        87        88        89
         2        49        57        58        86
         2        48        49        57        86
         2        48        49        86        89
         2        49        58        85        86
         2        49        85        86        90
         2        49        86        89        90
         2        50        58        59        85
         2        49        50        58        85
         2        49        50        85        90
         2        50        59        84        85
         2        50        84        85        91
         2        50        85        90        91
         2        42        51        59        84
         2        42        50        59        84
         2        42        50        84        91
         2        42        51        83        84
         2        42        83        83        84
         2        42        83        84        91
         2        52        60        61        74
         2        51        52        60        74
         2        51        52        74        83
         2        52        61        74        82
         2        52        74        82        91
         2        52        74        83        91
         2        53        61        62        82
         2        52        53        61        82
         2        52        53        82        91
         2        53        62        81        82
         2        53        81        82        90
         2        53        82        90        91
         2        54        62        63        81
         2        53        54        62        81
         2        53        54        81        90
         2        54        63        80        81
         2        54        80        81        89
         2        54        81        89        90
         2        55        63        64        80
         2        54        55        63        80
         2        54        55        80        89
         2        55        64        79        80