   17   17   60    1
  0.9595278E+01  0.4973986E-09  0.5270994E-09  0.6841365E-09  0.5000000E-15
  1.000000000000000E-004
  CAR 
 unknown system                          
     55    196     36
 
  0.3742002E-15  0.3742002E-15  0.3742002E-15  0.2604167E-02
    1      -33.002498   1.000000
    2      -32.960594   1.000000
    3      -29.324155   1.000000
    4      -28.968651   1.000000
    5      -28.899576   1.000000
    6      -28.894813   1.000000
    7      -28.837617   1.000000
    8      -28.766065   1.000000
    9      -15.117914   1.000000
   10      -15.079513   1.000000
   11      -15.049370   1.000000
   12      -15.017724   1.000000
   13      -14.985841   1.000000
   14      -14.964856   1.000000
   15       -6.369292   1.000000
   16       -3.297928   1.000000
   17       -3.076519   1.000000
   18       -2.825594   1.000000
   19       -2.603759   1.000000
   20       -2.175410   1.000000
   21       -2.110995   1.000000
   22       -1.499904   1.000000
   23       -1.116501   1.000000
   24       -0.924342   1.000000
   25       -0.653958   1.000000
   26       -0.553470   1.000000
   27       -0.248611   1.000000
   28        2.125083   1.000000
   29        3.428011   0.000000
   30        3.873053   0.000000
   31        4.339564   0.000000
   32        4.593756   0.000000
   33        5.342614   0.000000
   34        5.821217   0.000000
   35        6.186191   0.000000
   36        6.463756   0.000000
 
  0.1250000E+00  0.3829402E-15  0.3851086E-15  0.5208333E-02
    1      -33.002314   1.000000
    2      -32.960608   1.000000
    3      -29.324352   1.000000
    4      -28.983564   1.000000
    5      -28.895149   1.000000
    6      -28.883594   1.000000
    7      -28.837190   1.000000
    8      -28.767373   1.000000
    9      -15.113296   1.000000
   10      -15.077980   1.000000
   11      -15.054032   1.000000
   12      -15.018767   1.000000
   13      -14.988764   1.000000
   14      -14.973651   1.000000
   15       -6.256804   1.000000
   16       -3.384739   1.000000
   17       -3.060934   1.000000
   18       -2.911651   1.000000
   19       -2.497191   1.000000
   20       -2.181220   1.000000
   21       -2.089047   1.000000
   22       -1.501223   1.000000
   23       -1.135494   1.000000
   24       -0.968193   1.000000
   25       -0.712099   1.000000
   26       -0.534394   1.000000
   27       -0.302709   1.000000
   28        2.248003   0.999967
   29        3.456936   0.000000
   30        3.771006   0.000000
   31        4.218839   0.000000
   32        4.905262   0.000000
   33        5.360319   0.000000
   34        5.814175   0.000000
   35        6.163702   0.000000
   36        6.377149   0.000000
 
  0.2500000E+00  0.3816392E-15  0.3885781E-15  0.5208333E-02
    1      -33.001858   1.000000
    2      -32.960638   1.000000
    3      -29.324633   1.000000
    4      -29.009920   1.000000
    5      -28.888186   1.000000
    6      -28.862623   1.000000
    7      -28.835206   1.000000
    8      -28.771042   1.000000
    9      -15.100971   1.000000
   10      -15.074196   1.000000
   11      -15.063718   1.000000
   12      -15.021607   1.000000
   13      -14.999872   1.000000
   14      -14.992373   1.000000
   15       -5.930248   1.000000
   16       -3.626443   1.000000
   17       -3.179721   1.000000
   18       -2.970704   1.000000
   19       -2.289711   1.000000
   20       -2.174627   1.000000
   21       -2.040954   1.000000
   22       -1.496344   1.000000
   23       -1.196035   1.000000
   24       -1.038741   1.000000
   25       -0.812446   1.000000
   26       -0.549519   1.000000
   27       -0.346102   1.000000
   28        2.551025   0.870567
   29        3.410852   0.000000
   30        3.714344   0.000000
   31        4.083490   0.000000
   32        5.293711   0.000000
   33        5.368753   0.000000
   34        5.772853   0.000000
   35        6.165741   0.000000
   36        6.339920   0.000000
 
  0.3750000E+00  0.3859760E-15  0.3885781E-15  0.5208333E-02
    1      -33.001405   1.000000
    2      -32.960675   1.000000
    3      -29.324658   1.000000
    4      -29.030931   1.000000
    5      -28.879275   1.000000
    6      -28.854731   1.000000
    7      -28.826137   1.000000
    8      -28.776605   1.000000
    9      -15.087115   1.000000
   10      -15.072400   1.000000
   11      -15.068544   1.000000
   12      -15.025813   1.000000
   13      -15.019226   1.000000
   14      -15.006498   1.000000
   15       -5.428740   1.000000
   16       -4.139461   1.000000
   17       -3.240164   1.000000
   18       -3.000652   1.000000
   19       -2.252589   1.000000
   20       -2.169037   1.000000
   21       -1.829125   1.000000
   22       -1.499886   1.000000
   23       -1.259513   1.000000
   24       -1.098127   1.000000
   25       -0.886081   1.000000
   26       -0.644236   1.000000
   27       -0.257983   1.000000
   28        2.908342   0.000124
   29        3.148843   0.000000
   30        3.697161   0.000000
   31        4.241890   0.000000
   32        5.106820   0.000000
   33        5.503499   0.000000
   34        5.745146   0.000000
   35        6.240539   0.000000
   36        6.403891   0.000000
 
  0.5000000E+00  0.3660267E-15  0.4024558E-15  0.2604167E-02
    1      -33.001223   1.000000
    2      -32.960698   1.000000
    3      -29.324709   1.000000
    4      -29.039006   1.000000
    5      -28.873840   1.000000
    6      -28.856557   1.000000
    7      -28.818869   1.000000
    8      -28.780319   1.000000
    9      -15.081735   1.000000
   10      -15.072830   1.000000
   11      -15.067189   1.000000
   12      -15.028776   1.000000
   13      -15.027066   1.000000
   14      -15.013808   1.000000
   15       -4.902499   1.000000
   16       -4.691535   1.000000
   17       -3.234370   1.000000
   18       -3.030657   1.000000
   19       -2.258359   1.000000
   20       -2.179806   1.000000
   21       -1.658766   1.000000
   22       -1.550227   1.000000
   23       -1.287511   1.000000
   24       -1.115785   1.000000
   25       -0.916368   1.000000
   26       -0.693787   1.000000
   27       -0.200704   1.000000
   28        2.956592   0.000008
   29        3.184936   0.000000
   30        3.589577   0.000000
   31        4.542432   0.000000
   32        4.842895   0.000000
   33        5.430918   0.000000
   34        5.873259   0.000000
   35        6.161918   0.000000
   36        6.442010   0.000000
 
  0.3720982E-15  0.1250000E+00  0.3885781E-15  0.5208333E-02
    1      -33.002413   1.000000
    2      -32.960707   1.000000
    3      -29.324069   1.000000
    4      -28.968539   1.000000
    5      -28.899542   1.000000
    6      -28.894785   1.000000
    7      -28.837667   1.000000
    8      -28.766095   1.000000
    9      -15.117711   1.000000
   10      -15.084495   1.000000
   11      -15.047206   1.000000
   12      -15.020268   1.000000
   13      -14.986811   1.000000
   14      -14.967271   1.000000
   15       -6.269258   1.000000
   16       -3.294656   1.000000
   17       -3.093190   1.000000
   18       -2.797834   1.000000
   19       -2.594294   1.000000
   20       -2.292649   1.000000
   21       -1.996380   1.000000
   22       -1.592449   1.000000
   23       -1.200546   1.000000
   24       -0.888613   1.000000
   25       -0.656937   1.000000
   26       -0.543707   1.000000
   27       -0.339637   1.000000
   28        2.159453   1.000000
   29        3.463355   0.000000
   30        3.861348   0.000000
   31        4.381150   0.000000
   32        4.878768   0.000000
   33        5.170874   0.000000
   34        5.820704   0.000000
   35        5.938781   0.000000
   36        6.383716   0.000000
 
  0.1250000E+00  0.1250000E+00  0.3885781E-15  0.5208333E-02
    1      -33.002233   1.000000
    2      -32.960686   1.000000
    3      -29.324205   1.000000
    4      -28.983536   1.000000
    5      -28.895067   1.000000
    6      -28.883463   1.000000
    7      -28.837207   1.000000
    8      -28.767353   1.000000
    9      -15.113298   1.000000
   10      -15.082685   1.000000
   11      -15.052880   1.000000
   12      -15.021556   1.000000
   13      -14.989386   1.000000
   14      -14.973841   1.000000
   15       -6.165609   1.000000
   16       -3.341317   1.000000
   17       -3.122709   1.000000
   18       -2.894357   1.000000
   19       -2.483981   1.000000
   20       -2.251099   1.000000
   21       -1.979925   1.000000
   22       -1.587238   1.000000
   23       -1.176421   1.000000
   24       -0.933392   1.000000
   25       -0.755260   1.000000
   26       -0.560404   1.000000
   27       -0.374481   1.000000
   28        2.204858   0.999998
   29        3.552670   0.000000
   30        3.966225   0.000000
   31        4.189290   0.000000
   32        4.936779   0.000000
   33        5.122881   0.000000
   34        5.796139   0.000000
   35        6.077739   0.000000
   36        6.585083   0.000000
 
  0.2500000E+00  0.1250000E+00  0.3885781E-15  0.5208333E-02
    1      -33.001800   1.000000
    2      -32.960665   1.000000
    3      -29.324493   1.000000
    4      -29.010007   1.000000
    5      -28.888210   1.000000
    6      -28.862616   1.000000
    7      -28.835250   1.000000
    8      -28.771122   1.000000
    9      -15.103005   1.000000
   10      -15.078830   1.000000
   11      -15.063710   1.000000
   12      -15.025037   1.000000
   13      -15.000168   1.000000
   14      -14.987762   1.000000
   15       -5.854478   1.000000
   16       -3.569199   1.000000
   17       -3.189049   1.000000
   18       -3.001213   1.000000
   19       -2.311114   1.000000
   20       -2.238133   1.000000
   21       -1.920853   1.000000
   22       -1.565053   1.000000
   23       -1.207341   1.000000
   24       -1.033334   1.000000
   25       -0.846583   1.000000
   26       -0.632391   1.000000
   27       -0.350649   1.000000
   28        2.442893   1.012755
   29        3.480140   0.000000
   30        3.946642   0.000000
   31        4.037030   0.000000
   32        5.083641   0.000000
   33        5.281354   0.000000
   34        5.807056   0.000000
   35        6.161256   0.000000
   36        6.502005   0.000000
 
  0.3750000E+00  0.1250000E+00  0.3885781E-15  0.5208333E-02
    1      -33.001365   1.000000
    2      -32.960657   1.000000
    3      -29.324627   1.000000
    4      -29.031110   1.000000
    5      -28.879421   1.000000
    6      -28.854889   1.000000
    7      -28.826266   1.000000
    8      -28.776732   1.000000
    9      -15.092109   1.000000
   10      -15.078130   1.000000
   11      -15.071148   1.000000
   12      -15.027437   1.000000
   13      -15.012742   1.000000
   14      -15.002746   1.000000
   15       -5.370982   1.000000
   16       -4.076703   1.000000
   17       -3.225890   1.000000
   18       -3.030951   1.000000
   19       -2.273035   1.000000
   20       -2.214536   1.000000
   21       -1.776455   1.000000
   22       -1.532298   1.000000
   23       -1.289969   1.000000
   24       -1.126152   1.000000
   25       -0.876957   1.000000
   26       -0.699021   1.000000
   27       -0.259789   1.000000
   28        2.782289   0.004564
   29        3.162061   0.000000
   30        3.837658   0.000000
   31        4.206324   0.000000
   32        5.062222   0.000000
   33        5.357462   0.000000
   34        5.736044   0.000000
   35        6.188938   0.000000
   36        6.671963   0.000000
 
  0.5000000E+00  0.1250000E+00  0.4440892E-15  0.5208333E-02
    1      -33.001179   1.000000
    2      -32.960662   1.000000
    3      -29.324672   1.000000
    4      -29.039036   1.000000
    5      -28.874016   1.000000
    6      -28.856572   1.000000
    7      -28.818869   1.000000
    8      -28.780326   1.000000
    9      -15.089227   1.000000
   10      -15.079886   1.000000
   11      -15.070259   1.000000
   12      -15.024808   1.000000
   13      -15.019944   1.000000
   14      -15.011081   1.000000
   15       -4.848730   1.000000
   16       -4.628531   1.000000
   17       -3.213675   1.000000
   18       -3.053017   1.000000
   19       -2.284756   1.000000
   20       -2.210631   1.000000
   21       -1.680267   1.000000
   22       -1.537972   1.000000
   23       -1.353959   1.000000
   24       -1.173586   1.000000
   25       -0.849656   1.000000
   26       -0.700101   1.000000
   27       -0.202662   1.000000
   28        2.920111   0.000067
   29        3.178808   0.000000
   30        3.626695   0.000000
   31        4.478090   0.000000
   32        4.674168   0.000000
   33        5.549641   0.000000
   34        5.877888   0.000000
   35        6.118398   0.000000
   36        6.552508   0.000000
 
 -0.3750000E+00  0.1250000E+00  0.3712308E-15  0.5208333E-02
    1      -33.001356   1.000000
    2      -32.960679   1.000000
    3      -29.324785   1.000000
    4      -29.030901   1.000000
    5      -28.879395   1.000000
    6      -28.854733   1.000000
    7      -28.826261   1.000000
    8      -28.776642   1.000000
    9      -15.096312   1.000000
   10      -15.073688   1.000000
   11      -15.070192   1.000000
   12      -15.026115   1.000000
   13      -15.018785   1.000000
   14      -14.999767   1.000000
   15       -5.342206   1.000000
   16       -4.107172   1.000000
   17       -3.224614   1.000000
   18       -3.019609   1.000000
   19       -2.316932   1.000000
   20       -2.184793   1.000000
   21       -1.827730   1.000000
   22       -1.551761   1.000000
   23       -1.342301   1.000000
   24       -1.140530   1.000000
   25       -0.791994   1.000000
   26       -0.619364   1.000000
   27       -0.264688   1.000000
   28        2.986967   0.000001
   29        3.150663   0.000000
   30        3.616108   0.000000
   31        4.205007   0.000000
   32        4.935336   0.000000
   33        5.597496   0.000000
   34        5.901316   0.000000
   35        6.155905   0.000000
   36        6.394702   0.000000
 
 -0.2500000E+00  0.1250000E+00  0.3677614E-15  0.5208333E-02
    1      -33.001793   1.000000
    2      -32.960698   1.000000
    3      -29.324790   1.000000
    4      -29.009798   1.000000
    5      -28.888328   1.000000
    6      -28.862583   1.000000
    7      -28.835297   1.000000
    8      -28.771049   1.000000
    9      -15.105630   1.000000
   10      -15.078548   1.000000
   11      -15.060704   1.000000
   12      -15.023372   1.000000
   13      -15.006786   1.000000
   14      -14.984982   1.000000
   15       -5.833247   1.000000
   16       -3.599237   1.000000
   17       -3.165928   1.000000
   18       -2.982762   1.000000
   19       -2.353543   1.000000
   20       -2.258086   1.000000
   21       -1.975733   1.000000
   22       -1.586241   1.000000
   23       -1.304134   1.000000
   24       -1.028218   1.000000
   25       -0.737201   1.000000
   26       -0.515645   1.000000
   27       -0.361293   1.000000
   28        2.652177   0.005795
   29        3.398847   0.000000
   30        3.582116   0.000000
   31        4.151438   0.000000
   32        5.330138   0.000000
   33        5.406247   0.000000
   34        5.795006   0.000000
   35        5.994925   0.000000
   36        6.379186   0.000000
 
 -0.1250000E+00  0.1250000E+00  0.3677614E-15  0.5208333E-02
    1      -33.002229   1.000000
    2      -32.960710   1.000000
    3      -29.324366   1.000000
    4      -28.983457   1.000000
    5      -28.895134   1.000000
    6      -28.883604   1.000000
    7      -28.837254   1.000000
    8      -28.767395   1.000000
    9      -15.114452   1.000000
   10      -15.082914   1.000000
   11      -15.051119   1.000000
   12      -15.020815   1.000000
   13      -14.992767   1.000000
   14      -14.972643   1.000000
   15       -6.154735   1.000000
   16       -3.377885   1.000000
   17       -3.050535   1.000000
   18       -2.891515   1.000000
   19       -2.507109   1.000000
   20       -2.325555   1.000000
   21       -1.991456   1.000000
   22       -1.594799   1.000000
   23       -1.253384   1.000000
   24       -0.930288   1.000000
   25       -0.669881   1.000000
   26       -0.521240   1.000000
   27       -0.342763   1.000000
   28        2.330613   0.998487
   29        3.404923   0.000000
   30        3.720238   0.000000
   31        4.298337   0.000000
   32        5.127616   0.000000
   33        5.444900   0.000000
   34        5.701735   0.000000
   35        5.938893   0.000000
   36        6.267279   0.000000
 
  0.3729655E-15  0.2500000E+00  0.4024558E-15  0.5208333E-02
    1      -33.002197   1.000000
    2      -32.960997   1.000000
    3      -29.323951   1.000000
    4      -28.968329   1.000000
    5      -28.899434   1.000000
    6      -28.895014   1.000000
    7      -28.837881   1.000000
    8      -28.766263   1.000000
    9      -15.119788   1.000000
   10      -15.097990   1.000000
   11      -15.041610   1.000000
   12      -15.023411   1.000000
   13      -14.988223   1.000000
   14      -14.974015   1.000000
   15       -6.000126   1.000000
   16       -3.325388   1.000000
   17       -3.170121   1.000000
   18       -2.722892   1.000000
   19       -2.570561   1.000000
   20       -2.374461   1.000000
   21       -1.928542   1.000000
   22       -1.778871   1.000000
   23       -1.252733   1.000000
   24       -0.946957   1.000000
   25       -0.707721   1.000000
   26       -0.584746   1.000000
   27       -0.432329   1.000000
   28        2.216016   0.999995
   29        3.487309   0.000000
   30        3.942885   0.000000
   31        4.465014   0.000000
   32        4.923922   0.000000
   33        5.344015   0.000000
   34        5.844695   0.000000
   35        5.935373   0.000000
   36        6.223143   0.000000
 
  0.1250000E+00  0.2500000E+00  0.4302114E-15  0.5208333E-02
    1      -33.002038   1.000000
    2      -32.960922   1.000000
    3      -29.324098   1.000000
    4      -28.983480   1.000000
    5      -28.895312   1.000000
    6      -28.883514   1.000000
    7      -28.837494   1.000000
    8      -28.767582   1.000000
    9      -15.116490   1.000000
   10      -15.095878   1.000000
   11      -15.051240   1.000000
   12      -15.021270   1.000000
   13      -14.991269   1.000000
   14      -14.977108   1.000000
   15       -5.909831   1.000000
   16       -3.303662   1.000000
   17       -3.225941   1.000000
   18       -2.849389   1.000000
   19       -2.519222   1.000000
   20       -2.271735   1.000000
   21       -1.939911   1.000000
   22       -1.734586   1.000000
   23       -1.263845   1.000000
   24       -0.978704   1.000000
   25       -0.775740   1.000000
   26       -0.617961   1.000000
   27       -0.441616   1.000000
   28        2.218512   0.999995
   29        3.662978   0.000000
   30        3.830455   0.000000
   31        4.431532   0.000000
   32        4.913985   0.000000
   33        5.193863   0.000000
   34        5.886090   0.000000
   35        6.096014   0.000000
   36        6.460527   0.000000
 
  0.2500000E+00  0.2500000E+00  0.4440892E-15  0.5208333E-02
    1      -33.001646   1.000000
    2      -32.960770   1.000000
    3      -29.324429   1.000000
    4      -29.010033   1.000000
    5      -28.888555   1.000000
    6      -28.862654   1.000000
    7      -28.835589   1.000000
    8      -28.771328   1.000000
    9      -15.109979   1.000000
   10      -15.089653   1.000000
   11      -15.067599   1.000000
   12      -15.020927   1.000000
   13      -15.002153   1.000000
   14      -14.983606   1.000000
   15       -5.628366   1.000000
   16       -3.454055   1.000000
   17       -3.250754   1.000000
   18       -3.022795   1.000000
   19       -2.459436   1.000000
   20       -2.210517   1.000000
   21       -1.850234   1.000000
   22       -1.713589   1.000000
   23       -1.312400   1.000000
   24       -1.096439   1.000000
   25       -0.830175   1.000000
   26       -0.628642   1.000000
   27       -0.393082   1.000000
   28        2.410911   0.997233
   29        3.499081   0.000000
   30        3.829218   0.000000
   31        4.141021   0.000000
   32        5.036915   0.000000
   33        5.421094   0.000000
   34        5.913107   0.000000
   35        6.070534   0.000000
   36        6.511298   0.000000
 
  0.3750000E+00  0.2500000E+00  0.4440892E-15  0.5208333E-02
    1      -33.001246   1.000000
    2      -32.960625   1.000000
    3      -29.324531   1.000000
    4      -29.031103   1.000000
    5      -28.879749   1.000000
    6      -28.854973   1.000000
    7      -28.826347   1.000000
    8      -28.776761   1.000000
    9      -15.104720   1.000000
   10      -15.084481   1.000000
   11      -15.080359   1.000000
   12      -15.020126   1.000000
   13      -15.011089   1.000000
   14      -14.994028   1.000000
   15       -5.185263   1.000000
   16       -3.931999   1.000000
   17       -3.246856   1.000000
   18       -3.063834   1.000000
   19       -2.410555   1.000000
   20       -2.212986   1.000000
   21       -1.715773   1.000000
   22       -1.681818   1.000000
   23       -1.387765   1.000000
   24       -1.193422   1.000000
   25       -0.811752   1.000000
   26       -0.682008   1.000000
   27       -0.279376   1.000000
   28        2.714205  -0.034234
   29        3.123046   0.000000
   30        3.789599   0.000000
   31        4.153035   0.000000
   32        4.878148   0.000000
   33        5.613400   0.000000
   34        5.720428   0.000000
   35        6.220752   0.000000
   36        6.629459   0.000000
 
  0.5000000E+00  0.2500000E+00  0.4440892E-15  0.5208333E-02
    1      -33.001081   1.000000
    2      -32.960583   1.000000
    3      -29.324643   1.000000
    4      -29.038944   1.000000
    5      -28.874419   1.000000
    6      -28.856658   1.000000
    7      -28.818965   1.000000
    8      -28.780362   1.000000
    9      -15.102539   1.000000
   10      -15.091800   1.000000
   11      -15.075389   1.000000
   12      -15.022001   1.000000
   13      -15.010221   1.000000
   14      -15.002048   1.000000
   15       -4.703448   1.000000
   16       -4.453755   1.000000
   17       -3.243077   1.000000
   18       -3.065288   1.000000
   19       -2.368716   1.000000
   20       -2.250504   1.000000
   21       -1.736670   1.000000
   22       -1.580235   1.000000
   23       -1.480003   1.000000
   24       -1.204838   1.000000
   25       -0.750290   1.000000
   26       -0.716043   1.000000
   27       -0.210415   1.000000
   28        2.842470   0.001950
   29        3.123626   0.000000
   30        3.634291   0.000000
   31        4.352160   0.000000
   32        4.515207   0.000000
   33        5.543595   0.000000
   34        5.897814   0.000000
   35        6.149774   0.000000
   36        6.663507   0.000000
 
 -0.3750000E+00  0.2500000E+00  0.3608225E-15  0.5208333E-02
    1      -33.001240   1.000000
    2      -32.960656   1.000000
    3      -29.324796   1.000000
    4      -29.030877   1.000000
    5      -28.879778   1.000000
    6      -28.854827   1.000000
    7      -28.826353   1.000000
    8      -28.776723   1.000000
    9      -15.107040   1.000000
   10      -15.081772   1.000000
   11      -15.079061   1.000000
   12      -15.020801   1.000000
   13      -15.015164   1.000000
   14      -14.992054   1.000000
   15       -5.133003   1.000000
   16       -3.993777   1.000000
   17       -3.259224   1.000000
   18       -3.045714   1.000000
   19       -2.397776   1.000000
   20       -2.228212   1.000000
   21       -1.868690   1.000000
   22       -1.645683   1.000000
   23       -1.418087   1.000000
   24       -1.175745   1.000000
   25       -0.709784   1.000000
   26       -0.644473   1.000000
   27       -0.266863   1.000000
   28        2.932561   0.000033
   29        3.166443   0.000000
   30        3.633996   0.000000
   31        4.125664   0.000000
   32        4.703674   0.000000
   33        5.500437   0.000000
   34        5.918980   0.000000
   35        6.141656   0.000000
   36        6.481536   0.000000
 
 -0.2500000E+00  0.2500000E+00  0.3816392E-15  0.5208333E-02
    1      -33.001635   1.000000
    2      -32.960810   1.000000
    3      -29.324792   1.000000
    4      -29.009715   1.000000
    5      -28.888562   1.000000
    6      -28.862609   1.000000
    7      -28.835635   1.000000
    8      -28.771240   1.000000
    9      -15.112312   1.000000
   10      -15.088763   1.000000
   11      -15.063068   1.000000
   12      -15.022982   1.000000
   13      -15.007449   1.000000
   14      -14.981108   1.000000
   15       -5.590712   1.000000
   16       -3.503282   1.000000
   17       -3.241546   1.000000
   18       -2.997696   1.000000
   19       -2.466269   1.000000
   20       -2.260398   1.000000
   21       -1.970541   1.000000
   22       -1.746408   1.000000
   23       -1.333816   1.000000
   24       -1.093329   1.000000
   25       -0.710938   1.000000
   26       -0.555617   1.000000
   27       -0.351431   1.000000
   28        2.679203  -0.049744
   29        3.482386   0.000000
   30        3.571474   0.000000
   31        4.081716   0.000000
   32        5.115237   0.000000
   33        5.359374   0.000000
   34        5.829350   0.000000
   35        6.068195   0.000000
   36        6.437908   0.000000
 
 -0.1250000E+00  0.2500000E+00  0.3885781E-15  0.5208333E-02
    1      -33.002027   1.000000
    2      -32.960949   1.000000
    3      -29.324234   1.000000
    4      -28.983246   1.000000
    5      -28.895200   1.000000
    6      -28.883519   1.000000
    7      -28.837477   1.000000
    8      -28.767539   1.000000
    9      -15.117667   1.000000
   10      -15.095356   1.000000
   11      -15.046964   1.000000
   12      -15.023697   1.000000
   13      -14.995831   1.000000
   14      -14.974559   1.000000
   15       -5.890081   1.000000
   16       -3.357655   1.000000
   17       -3.162745   1.000000
   18       -2.807801   1.000000
   19       -2.518007   1.000000
   20       -2.412512   1.000000
   21       -1.933046   1.000000
   22       -1.798801   1.000000
   23       -1.282461   1.000000
   24       -0.983015   1.000000
   25       -0.732613   1.000000
   26       -0.534965   1.000000
   27       -0.383495   1.000000
   28        2.391928   0.995105
   29        3.411839   0.000000
   30        3.855335   0.000000
   31        4.230455   0.000000
   32        5.205869   0.000000
   33        5.515475   0.000000
   34        5.673395   0.000000
   35        5.947961   0.000000
   36        6.184073   0.000000
 
  0.3694961E-15  0.3750000E+00  0.3885781E-15  0.5208333E-02
    1      -33.001957   1.000000
    2      -32.961302   1.000000
    3      -29.323768   1.000000
    4      -28.968040   1.000000
    5      -28.899332   1.000000
    6      -28.895231   1.000000
    7      -28.838020   1.000000
    8      -28.766304   1.000000
    9      -15.124750   1.000000
   10      -15.113285   1.000000
   11      -15.034801   1.000000
   12      -15.019402   1.000000
   13      -14.990202   1.000000
   14      -14.982985   1.000000
   15       -5.668778   1.000000
   16       -3.525075   1.000000
   17       -3.156204   1.000000
   18       -2.645477   1.000000
   19       -2.584328   1.000000
   20       -2.417858   1.000000
   21       -2.060372   1.000000
   22       -1.665634   1.000000
   23       -1.319037   1.000000
   24       -1.037042   1.000000
   25       -0.806968   1.000000
   26       -0.727815   1.000000
   27       -0.360739   1.000000
   28        2.206420   0.999998
   29        3.392652   0.000000
   30        4.130669   0.000000
   31        4.612890   0.000000
   32        5.031070   0.000000
   33        5.348687   0.000000
   34        5.777567   0.000000
   35        6.099353   0.000000
   36        6.505484   0.000000
 
  0.1250000E+00  0.3750000E+00  0.4163336E-15  0.5208333E-02
    1      -33.001816   1.000000
    2      -32.961176   1.000000
    3      -29.324040   1.000000
    4      -28.983247   1.000000
    5      -28.895410   1.000000
    6      -28.883461   1.000000
    7      -28.837663   1.000000
    8      -28.767643   1.000000
    9      -15.122348   1.000000
   10      -15.110259   1.000000
   11      -15.048824   1.000000
   12      -15.013965   1.000000
   13      -14.993236   1.000000
   14      -14.983703   1.000000
   15       -5.589097   1.000000
   16       -3.491310   1.000000
   17       -3.199153   1.000000
   18       -2.795198   1.000000
   19       -2.528927   1.000000
   20       -2.266232   1.000000
   21       -2.139833   1.000000
   22       -1.624898   1.000000
   23       -1.372425   1.000000
   24       -1.039992   1.000000
   25       -0.864193   1.000000
   26       -0.690009   1.000000
   27       -0.378477   1.000000
   28        2.237368   0.999982
   29        3.481356   0.000000
   30        3.945523   0.000000
   31        4.548915   0.000000
   32        4.940298   0.000000
   33        5.375727   0.000000
   34        5.896812   0.000000
   35        6.203285   0.000000
   36        6.449346   0.000000
 
  0.2500000E+00  0.3750000E+00  0.4440892E-15  0.5208333E-02
    1      -33.001477   1.000000
    2      -32.960894   1.000000
    3      -29.324457   1.000000
    4      -29.009879   1.000000
    5      -28.888818   1.000000
    6      -28.862639   1.000000
    7      -28.835805   1.000000
    8      -28.771399   1.000000
    9      -15.118526   1.000000
   10      -15.100246   1.000000
   11      -15.070209   1.000000
   12      -15.013119   1.000000
   13      -15.002498   1.000000
   14      -14.984722   1.000000
   15       -5.337028   1.000000
   16       -3.436647   1.000000
   17       -3.333169   1.000000
   18       -3.021407   1.000000
   19       -2.501199   1.000000
   20       -2.193751   1.000000
   21       -2.049710   1.000000
   22       -1.698402   1.000000
   23       -1.402861   1.000000
   24       -1.136330   1.000000
   25       -0.848930   1.000000
   26       -0.580740   1.000000
   27       -0.401222   1.000000
   28        2.438689   1.009684
   29        3.452095   0.000000