  10  10   0   0
  0.1132410E+02  0.6301089E-09  0.3938352E-09  0.5420792E-09  0.5000000E-15
  1.000000000000000E-004
  CAR 
 unknown system                          
     10.59655142    -34.81046216  301      3.29548282      1.00000000
    -34.810  0.0000E+00  0.0000E+00
    -34.659  0.0000E+00  0.0000E+00
    -34.508  0.0000E+00  0.0000E+00
    -34.356  0.0000E+00  0.0000E+00
    -34.205  0.0000E+00  0.0000E+00
    -34.054  0.0000E+00  0.0000E+00
    -33.902  0.0000E+00  0.0000E+00
    -33.751  0.0000E+00  0.0000E+00
    -33.600  0.3997E-31  0.6050E-32
    -33.448  0.5034E-21  0.7620E-22
    -33.297  0.5807E-13  0.8790E-14
    -33.146  0.5435E-07  0.8226E-08
    -32.994  0.2714E-03  0.4108E-04
    -32.843 -0.8293E-02 -0.1214E-02
    -32.691  0.2041E+00  0.2967E-01
    -32.540  0.2546E+00  0.6821E-01
    -32.389 -0.1070E-01  0.6660E-01
    -32.237  0.4723E-03  0.6667E-01
    -32.086  0.1758E-06  0.6667E-01
    -31.935  0.3040E-12  0.6667E-01
    -31.783  0.0000E+00  0.6667E-01
    -31.632  0.0000E+00  0.6667E-01
    -31.481  0.0000E+00  0.6667E-01
    -31.329  0.0000E+00  0.6667E-01
    -31.178  0.0000E+00  0.6667E-01
    -31.027  0.0000E+00  0.6667E-01
    -30.875  0.0000E+00  0.6667E-01
    -30.724  0.0000E+00  0.6667E-01
    -30.572  0.0000E+00  0.6667E-01
    -30.421  0.0000E+00  0.6667E-01
    -30.270  0.0000E+00  0.6667E-01
    -30.118  0.0000E+00  0.6667E-01
    -29.967  0.0000E+00  0.6667E-01
    -29.816  0.0000E+00  0.6667E-01
    -29.664  0.0000E+00  0.6667E-01
    -29.513  0.0000E+00  0.6667E-01
    -29.362  0.0000E+00  0.6667E-01
    -29.210  0.3780E-36  0.6667E-01
    -29.059  0.4002E-25  0.6667E-01
    -28.908  0.3836E-16  0.6667E-01
    -28.756  0.3062E-09  0.6667E-01
    -28.605  0.1600E-04  0.6667E-01
    -28.453  0.4448E-03  0.6674E-01
    -28.302  0.5302E-01  0.7476E-01
    -28.151  0.1750E+00  0.1012E+00
    -27.999 -0.6514E-02  0.1003E+00
    -27.848  0.3820E+00  0.1581E+00
    -27.697  0.5612E-01  0.1666E+00
    -27.545  0.5386E-03  0.1667E+00
    -27.394  0.2276E-04  0.1667E+00
    -27.243  0.5337E-09  0.1667E+00
    -27.091  0.8196E-16  0.1667E+00
    -26.940  0.0000E+00  0.1667E+00
    -26.789  0.0000E+00  0.1667E+00
    -26.637  0.0000E+00  0.1667E+00
    -26.486  0.0000E+00  0.1667E+00
    -26.334  0.0000E+00  0.1667E+00
    -26.183  0.0000E+00  0.1667E+00
    -26.032  0.0000E+00  0.1667E+00
    -25.880  0.0000E+00  0.1667E+00
    -25.729  0.0000E+00  0.1667E+00
    -25.578  0.0000E+00  0.1667E+00
    -25.426  0.0000E+00  0.1667E+00
    -25.275  0.0000E+00  0.1667E+00
    -25.124  0.0000E+00  0.1667E+00
    -24.972  0.0000E+00  0.1667E+00
    -24.821  0.0000E+00  0.1667E+00
    -24.670  0.0000E+00  0.1667E+00
    -24.518  0.0000E+00  0.1667E+00
    -24.367  0.0000E+00  0.1667E+00
    -24.215  0.0000E+00  0.1667E+00
    -24.064  0.0000E+00  0.1667E+00
    -23.913  0.0000E+00  0.1667E+00
    -23.761  0.0000E+00  0.1667E+00
    -23.610  0.0000E+00  0.1667E+00
    -23.459  0.0000E+00  0.1667E+00
    -23.307  0.0000E+00  0.1667E+00
    -23.156  0.0000E+00  0.1667E+00
    -23.005  0.0000E+00  0.1667E+00
    -22.853  0.0000E+00  0.1667E+00
    -22.702  0.0000E+00  0.1667E+00
    -22.551  0.0000E+00  0.1667E+00
    -22.399  0.0000E+00  0.1667E+00
    -22.248  0.0000E+00  0.1667E+00
    -22.096  0.0000E+00  0.1667E+00
    -21.945  0.0000E+00  0.1667E+00
    -21.794  0.0000E+00  0.1667E+00
    -21.642  0.0000E+00  0.1667E+00
    -21.491  0.0000E+00  0.1667E+00
    -21.340  0.0000E+00  0.1667E+00
    -21.188  0.0000E+00  0.1667E+00
    -21.037  0.0000E+00  0.1667E+00
    -20.886  0.0000E+00  0.1667E+00
    -20.734  0.0000E+00  0.1667E+00
    -20.583  0.0000E+00  0.1667E+00
    -20.432  0.0000E+00  0.1667E+00
    -20.280  0.0000E+00  0.1667E+00
    -20.129  0.0000E+00  0.1667E+00
    -19.978  0.0000E+00  0.1667E+00
    -19.826  0.0000E+00  0.1667E+00
    -19.675  0.0000E+00  0.1667E+00
    -19.523  0.0000E+00  0.1667E+00
    -19.372  0.0000E+00  0.1667E+00
    -19.221  0.0000E+00  0.1667E+00
    -19.069  0.0000E+00  0.1667E+00
    -18.918  0.0000E+00  0.1667E+00
    -18.767  0.0000E+00  0.1667E+00
    -18.615  0.0000E+00  0.1667E+00
    -18.464  0.0000E+00  0.1667E+00
    -18.313  0.0000E+00  0.1667E+00
    -18.161  0.0000E+00  0.1667E+00
    -18.010  0.0000E+00  0.1667E+00
    -17.859  0.0000E+00  0.1667E+00
    -17.707  0.0000E+00  0.1667E+00
    -17.556  0.0000E+00  0.1667E+00
    -17.404  0.0000E+00  0.1667E+00
    -17.253  0.0000E+00  0.1667E+00
    -17.102  0.0000E+00  0.1667E+00
    -16.950  0.0000E+00  0.1667E+00
    -16.799  0.0000E+00  0.1667E+00
    -16.648  0.0000E+00  0.1667E+00
    -16.496  0.0000E+00  0.1667E+00
    -16.345  0.0000E+00  0.1667E+00
    -16.194  0.0000E+00  0.1667E+00
    -16.042  0.1371E-31  0.1667E+00
    -15.891  0.1596E-21  0.1667E+00
    -15.740  0.1747E-13  0.1667E+00
    -15.588  0.1669E-07  0.1667E+00
    -15.437  0.1054E-03  0.1667E+00
    -15.285 -0.3490E-02  0.1662E+00
    -15.134  0.1161E+00  0.1837E+00
    -14.983  0.1458E+00  0.2058E+00
    -14.831  0.2460E+00  0.2430E+00
    -14.680  0.3334E+00  0.2935E+00
    -14.529  0.4296E+00  0.3585E+00
    -14.377  0.5352E-01  0.3666E+00
    -14.226  0.2453E-03  0.3667E+00
    -14.075  0.2717E-04  0.3667E+00
    -13.923  0.1063E-08  0.3667E+00
    -13.772  0.3023E-15  0.3667E+00
    -13.621  0.0000E+00  0.3667E+00
    -13.469  0.0000E+00  0.3667E+00
    -13.318  0.0000E+00  0.3667E+00
    -13.166  0.0000E+00  0.3667E+00
    -13.015  0.0000E+00  0.3667E+00
    -12.864  0.0000E+00  0.3667E+00
    -12.712  0.0000E+00  0.3667E+00
    -12.561  0.0000E+00  0.3667E+00
    -12.410  0.0000E+00  0.3667E+00
    -12.258  0.0000E+00  0.3667E+00
    -12.107  0.0000E+00  0.3667E+00
    -11.956  0.0000E+00  0.3667E+00
    -11.804  0.0000E+00  0.3667E+00
    -11.653  0.0000E+00  0.3667E+00
    -11.502  0.0000E+00  0.3667E+00
    -11.350  0.0000E+00  0.3667E+00
    -11.199  0.0000E+00  0.3667E+00
    -11.047  0.0000E+00  0.3667E+00
    -10.896  0.0000E+00  0.3667E+00
    -10.745  0.0000E+00  0.3667E+00
    -10.593  0.0000E+00  0.3667E+00
    -10.442  0.0000E+00  0.3667E+00
    -10.291  0.0000E+00  0.3667E+00
    -10.139  0.0000E+00  0.3667E+00
     -9.988  0.0000E+00  0.3667E+00
     -9.837  0.0000E+00  0.3667E+00
     -9.685  0.0000E+00  0.3667E+00
     -9.534  0.0000E+00  0.3667E+00
     -9.383  0.0000E+00  0.3667E+00
     -9.231  0.0000E+00  0.3667E+00
     -9.080  0.0000E+00  0.3667E+00
     -8.928  0.0000E+00  0.3667E+00
     -8.777  0.0000E+00  0.3667E+00
     -8.626  0.0000E+00  0.3667E+00
     -8.474  0.0000E+00  0.3667E+00
     -8.323  0.0000E+00  0.3667E+00
     -8.172  0.0000E+00  0.3667E+00
     -8.020  0.0000E+00  0.3667E+00
     -7.869  0.0000E+00  0.3667E+00
     -7.718  0.0000E+00  0.3667E+00
     -7.566  0.0000E+00  0.3667E+00
     -7.415  0.0000E+00  0.3667E+00
     -7.264  0.0000E+00  0.3667E+00
     -7.112  0.0000E+00  0.3667E+00
     -6.961  0.0000E+00  0.3667E+00
     -6.809  0.0000E+00  0.3667E+00
     -6.658  0.0000E+00  0.3667E+00
     -6.507  0.0000E+00  0.3667E+00
     -6.355  0.0000E+00  0.3667E+00
     -6.204  0.0000E+00  0.3667E+00
     -6.053  0.2805E-38  0.3667E+00
     -5.901  0.2285E-27  0.3667E+00
     -5.750  0.1667E-18  0.3667E+00
     -5.599  0.9976E-12  0.3667E+00
     -5.447  0.3799E-07  0.3667E+00
     -5.296  0.1905E-05  0.3667E+00
     -5.145  0.2231E-04  0.3667E+00
     -4.993  0.2555E-02  0.3671E+00
     -4.842  0.4612E-02  0.3678E+00
     -4.690  0.6543E-02  0.3687E+00
     -4.539  0.9937E-02  0.3702E+00
     -4.388  0.1068E-01  0.3719E+00
     -4.236  0.1691E-01  0.3744E+00
     -4.085  0.1752E-01  0.3771E+00
     -3.934  0.2356E-01  0.3806E+00
     -3.782  0.2348E-01  0.3842E+00
     -3.631  0.2215E-01  0.3876E+00
     -3.480  0.1852E-01  0.3904E+00
     -3.328  0.2636E-01  0.3943E+00
     -3.177  0.2728E-01  0.3985E+00
     -3.026  0.1036E-01  0.4000E+00
     -2.874 -0.3235E-04  0.4000E+00
     -2.723  0.6720E-02  0.4011E+00
     -2.571  0.1641E-01  0.4035E+00
     -2.420  0.2188E-01  0.4068E+00
     -2.269  0.3403E-01  0.4120E+00
     -2.117  0.5630E-01  0.4205E+00
     -1.966  0.9558E-01  0.4350E+00
     -1.815  0.7450E-01  0.4463E+00
     -1.663  0.5420E-01  0.4545E+00
     -1.512  0.5804E-01  0.4632E+00
     -1.361  0.1221E+00  0.4817E+00
     -1.209  0.1077E+00  0.4980E+00
     -1.058  0.8403E-01  0.5108E+00
     -0.907  0.1199E+00  0.5289E+00
     -0.755  0.2953E-01  0.5334E+00
     -0.604  0.3282E-01  0.5383E+00
     -0.452  0.8560E-01  0.5513E+00
     -0.301  0.1033E+00  0.5669E+00
     -0.150  0.7006E-01  0.5775E+00
      0.002  0.2343E-01  0.5811E+00
      0.153  0.2049E-01  0.5842E+00
      0.304  0.1955E-01  0.5871E+00
      0.456  0.1954E-01  0.5901E+00
      0.607  0.2832E-01  0.5944E+00
      0.758  0.1727E-01  0.5970E+00
      0.910  0.1691E-01  0.5996E+00
      1.061  0.2968E-02  0.6000E+00
      1.212 -0.6434E-04  0.6000E+00
      1.364  0.4039E-05  0.6000E+00
      1.515  0.1563E-08  0.6000E+00
      1.667  0.1184E-10  0.6000E+00
      1.818  0.6212E-06  0.6000E+00
      1.969  0.8194E-04  0.6000E+00
      2.121  0.1172E-02  0.6002E+00
      2.272  0.3270E-01  0.6051E+00
      2.423  0.3705E-01  0.6107E+00
      2.575  0.3442E-01  0.6160E+00
      2.726  0.2186E-01  0.6193E+00
      2.877  0.2749E-01  0.6234E+00
      3.029  0.1654E-01  0.6259E+00
      3.180  0.4046E-01  0.6321E+00
      3.331  0.1035E-01  0.6336E+00
      3.483  0.1265E-01  0.6355E+00
      3.634  0.2609E-01  0.6395E+00
      3.785  0.6743E-01  0.6497E+00
      3.937  0.7218E-01  0.6606E+00
      4.088  0.3415E-01  0.6658E+00
      4.240  0.3855E-01  0.6716E+00
      4.391  0.6417E-01  0.6813E+00
      4.542  0.6866E-01  0.6917E+00
      4.694  0.7458E-01  0.7030E+00
      4.845  0.6849E-01  0.7134E+00
      4.996  0.6954E-01  0.7239E+00
      5.148  0.5302E-01  0.7319E+00
      5.299  0.6166E-01  0.7413E+00
      5.450  0.7153E-01  0.7521E+00
      5.602  0.7825E-01  0.7639E+00
      5.753  0.7176E-01  0.7748E+00
      5.904  0.9123E-01  0.7886E+00
      6.056  0.6741E-01  0.7988E+00
      6.207  0.5106E-01  0.8065E+00
      6.359  0.7655E-01  0.8181E+00
      6.510  0.6820E-01  0.8284E+00
      6.661  0.6040E-01  0.8376E+00
      6.813  0.5996E-01  0.8467E+00
      6.964  0.6396E-01  0.8563E+00
      7.115  0.6591E-01  0.8663E+00
      7.267  0.5868E-01  0.8752E+00
      7.418  0.4757E-01  0.8824E+00
      7.569  0.4760E-01  0.8896E+00
      7.721  0.3840E-01  0.8954E+00
      7.872  0.5259E-01  0.9034E+00
      8.023  0.8609E-01  0.9164E+00
      8.175  0.6506E-01  0.9263E+00
      8.326  0.3377E-01  0.9314E+00
      8.478  0.1199E-01  0.9332E+00
      8.629  0.1049E-02  0.9333E+00
      8.780 -0.1429E-04  0.9333E+00
      8.932  0.1677E-05  0.9333E+00
      9.083  0.5460E-09  0.9333E+00
      9.234  0.9128E-15  0.9333E+00
      9.386  0.0000E+00  0.9333E+00
      9.537  0.0000E+00  0.9333E+00
      9.688  0.0000E+00  0.9333E+00
      9.840  0.0000E+00  0.9333E+00
      9.991  0.0000E+00  0.9333E+00
     10.142  0.0000E+00  0.9333E+00
     10.294  0.0000E+00  0.9333E+00
     10.445  0.0000E+00  0.9333E+00
     10.597  0.0000E+00  0.9333E+00
