       N       E                     dE             d eps       ncg     rms          rms(c)
DAV:   1     0.170273918408E+03    0.17027E+03   -0.12771E+04 20360   0.743E+02
DAV:   2    -0.284024532537E+02   -0.19868E+03   -0.19398E+03 24720   0.289E+02
DAV:   3    -0.420915304636E+02   -0.13689E+02   -0.13608E+02 33308   0.577E+01
DAV:   4    -0.428374266653E+02   -0.74590E+00   -0.74409E+00 31572   0.110E+01
DAV:   5    -0.428524992386E+02   -0.15073E-01   -0.15069E-01 31988   0.157E+00    0.369E+01
DAV:   6    -0.403726248823E+02    0.24799E+01   -0.65717E+00 28784   0.141E+01    0.165E+01
DAV:   7    -0.398190320440E+02    0.55359E+00   -0.28734E+00 28364   0.628E+00    0.100E+01
DAV:   8    -0.397408984590E+02    0.78134E-01   -0.97032E-01 30880   0.482E+00    0.376E+00
DAV:   9    -0.397414319890E+02   -0.53353E-03   -0.64912E-02 28144   0.149E+00    0.601E-01
DAV:  10    -0.397384594123E+02    0.29726E-02   -0.17494E-02 28512   0.472E-01    0.176E-01
DAV:  11    -0.397387236640E+02   -0.26425E-03   -0.15941E-03 24152   0.224E-01    0.766E-02
DAV:  12    -0.397387946373E+02   -0.70973E-04   -0.20140E-04 20052   0.839E-02
   1 F= -.39738795E+02 E0= -.39738823E+02  d E =-.397388E+02
       N       E                     dE             d eps       ncg     rms          rms(c)
DAV:   1    -0.397411859512E+02   -0.24623E-02   -0.11795E-01 24000   0.247E+00    0.305E-01
DAV:   2    -0.397408283154E+02    0.35764E-03   -0.12502E-02 24312   0.634E-01    0.155E-01
DAV:   3    -0.397404906405E+02    0.33767E-03   -0.97528E-04 27564   0.169E-01    0.777E-02
DAV:   4    -0.397403640146E+02    0.12663E-03   -0.40078E-04 23068   0.124E-01    0.543E-02
DAV:   5    -0.397403691173E+02   -0.51027E-05   -0.41887E-05 13908   0.427E-02
   2 F= -.39740369E+02 E0= -.39740401E+02  d E =-.157448E-02
       N       E                     dE             d eps       ncg     rms          rms(c)
DAV:   1    -0.397428412166E+02   -0.24772E-02   -0.25938E-01 22840   0.367E+00    0.450E-01
DAV:   2    -0.397420574283E+02    0.78379E-03   -0.27404E-02 24224   0.935E-01    0.224E-01
DAV:   3    -0.397413233745E+02    0.73405E-03   -0.21097E-03 28640   0.249E-01    0.114E-01
DAV:   4    -0.397410591360E+02    0.26424E-03   -0.93401E-04 30064   0.184E-01    0.812E-02
DAV:   5    -0.397410681136E+02   -0.89776E-05   -0.68073E-05 13984   0.510E-02
   3 F= -.39741068E+02 E0= -.39741104E+02  d E =-.227348E-02
       N       E                     dE             d eps       ncg     rms          rms(c)
DAV:   1    -0.397425793126E+02   -0.15202E-02   -0.10578E-01 22816   0.231E+00    0.233E-01
DAV:   2    -0.397423605936E+02    0.21872E-03   -0.83901E-03 23216   0.490E-01    0.122E-01
DAV:   3    -0.397420594119E+02    0.30118E-03   -0.57244E-04 27864   0.146E-01    0.484E-02
DAV:   4    -0.397420183101E+02    0.41102E-04   -0.15831E-04 14092   0.793E-02
   4 F= -.39742018E+02 E0= -.39742058E+02  d E =-.950196E-03
       N       E                     dE             d eps       ncg     rms          rms(c)
DAV:   1    -0.397426962936E+02   -0.63688E-03   -0.81660E-02 22768   0.203E+00    0.202E-01
DAV:   2    -0.397425403403E+02    0.15595E-03   -0.64441E-03 23136   0.428E-01    0.103E-01
DAV:   3    -0.397423082372E+02    0.23210E-03   -0.43624E-04 27396   0.129E-01    0.409E-02
DAV:   4    -0.397422788328E+02    0.29404E-04   -0.11573E-04 14060   0.701E-02
   5 F= -.39742279E+02 E0= -.39742321E+02  d E =-.121072E-02
       N       E                     dE             d eps       ncg     rms          rms(c)
DAV:   1    -0.397429159305E+02   -0.60769E-03   -0.46285E-02 22720   0.165E+00    0.213E-01
DAV:   2    -0.397429730319E+02   -0.57101E-04   -0.58253E-03 25780   0.473E-01    0.917E-02
DAV:   3    -0.397428870875E+02    0.85944E-04   -0.41530E-04 21512   0.107E-01
   6 F= -.39742887E+02 E0= -.39742927E+02  d E =-.608255E-03
       N       E                     dE             d eps       ncg     rms          rms(c)
DAV:   1    -0.397429618470E+02    0.11185E-04   -0.41131E-01 22544   0.492E+00    0.602E-01
DAV:   2    -0.397434403755E+02   -0.47853E-03   -0.51363E-02 25560   0.140E+00    0.255E-01
DAV:   3    -0.397427510947E+02    0.68928E-03   -0.41563E-03 33624   0.315E-01    0.150E-01
DAV:   4    -0.397425774779E+02    0.17362E-03   -0.72062E-04 29904   0.165E-01    0.141E-01
DAV:   5    -0.397425904488E+02   -0.12971E-04   -0.63272E-05 14364   0.423E-02
   7 F= -.39742590E+02 E0= -.39742624E+02  d E =-.311616E-03
