unknown system                          
           1
     4.904281    0.233895    0.302995
     1.598261    4.743702    0.482977
     1.118441    0.646340    5.990296
   H    Nb   H    Nb   H    Sr
   4   1   5   1   4   1
Direct configuration=     1
   0.07007019  0.33008817  0.97374297
   0.32337453  0.45266922  0.03863049
   0.07195899  0.58560847  0.54783026
   0.03811934  0.29411737  0.86030826
   0.35994514  0.47820785  0.72877981
   0.59354828  0.69237197  0.75654576
   0.00340128  0.79127246  0.82757215
   0.05139609  0.17156841  0.33979582
   0.01160844  0.19818197  0.61713399
   0.39800467  0.18277116  0.57593643
   0.81694995  0.00481295  0.56201513
   0.65597162  0.13917827  0.85170625
   0.28899124  0.83584425  0.54450478
   0.66519603  0.42264516  0.46135958
   0.84056845  0.91694631  0.27505853
   0.46264179  0.81104302  0.15332679
unknown system                          
           1
     4.908353    0.232454    0.306620
     1.598696    4.740855    0.482833
     1.123795    0.644211    5.988899
   H    Nb   H    Nb   H    Sr
   4   1   5   1   4   1
Direct configuration=     2
   0.07008523  0.32976096  0.97355999
   0.32312446  0.45282522  0.03867832
   0.07189348  0.58566395  0.54784838
   0.03814264  0.29403120  0.86034870
   0.35999476  0.47837408  0.72847335
   0.59341081  0.69250795  0.75653469
   0.00310117  0.79134582  0.82757786
   0.05139000  0.17149633  0.33988813
   0.01156170  0.19807792  0.61713835
   0.39764784  0.18317208  0.57585769
   0.81783646  0.00466170  0.56210572
   0.65586970  0.13913747  0.85174251
   0.28902115  0.83565891  0.54462723
   0.66526525  0.42272999  0.46150818
   0.84060345  0.91702928  0.27502037
   0.46279790  0.81085413  0.15333754
unknown system                          
           1
     4.911677    0.231278    0.309577
     1.599051    4.738532    0.482716
     1.128164    0.642475    5.987760
   H    Nb   H    Nb   H    Sr
   4   1   5   1   4   1
Direct configuration=     3
   0.07009776  0.32949374  0.97341064
   0.32292049  0.45295253  0.03871749
   0.07184004  0.58570924  0.54786320
   0.03816161  0.29396087  0.86038169
   0.36003551  0.47850970  0.72822319
   0.59329871  0.69261893  0.75652572
   0.00285646  0.79140561  0.82758266
   0.05138496  0.17143751  0.33996348
   0.01152361  0.19799294  0.61714194
   0.39735691  0.18349928  0.57579360
   0.81855918  0.00453855  0.56217922
   0.65578657  0.13910413  0.85177216
   0.28904545  0.83550765  0.54472716
   0.66532151  0.42279934  0.46162943
   0.84063201  0.91709702  0.27498921
   0.46292522  0.81069996  0.15334624
unknown system                          
           1
     4.914601    0.230888    0.312044
     1.599935    4.737338    0.482572
     1.131883    0.641131    5.987332
   H    Nb   H    Nb   H    Sr
   4   1   5   1   4   1
Direct configuration=     4
   0.07012308  0.32928611  0.97336586
   0.32273581  0.45307460  0.03870513
   0.07185942  0.58570640  0.54787047
   0.03817446  0.29386403  0.86032921
   0.35999935  0.47849534  0.72826704
   0.59321383  0.69271309  0.75649213
   0.00266863  0.79144139  0.82760737
   0.05149766  0.17143530  0.33994236
   0.01158982  0.19802733  0.61715697
   0.39731109  0.18366928  0.57571701
   0.81864723  0.00439609  0.56224129
   0.65569910  0.13912343  0.85177786
   0.28904428  0.83550166  0.54475480
   0.66542849  0.42287128  0.46169680
   0.84069127  0.91715771  0.27497826
   0.46306249  0.81056396  0.15334444
unknown system                          
           1
     4.923376    0.229717    0.319446
     1.602585    4.733757    0.482143
     1.143039    0.637099    5.986051
   H    Nb   H    Nb   H    Sr
   4   1   5   1   4   1
Direct configuration=     5
   0.07019928  0.32866304  0.97323145
   0.32218202  0.45344080  0.03866828
   0.07191754  0.58569790  0.54789227
   0.03821319  0.29357340  0.86017172
   0.35989085  0.47845225  0.72839867
   0.59295934  0.69299554  0.75639145
   0.00210537  0.79154869  0.82768173
   0.05183563  0.17142871  0.33987887
   0.01178827  0.19813058  0.61720199
   0.39717377  0.18417932  0.57548728
   0.81891118  0.00396870  0.56242742
   0.65543678  0.13918128  0.85179507
   0.28904067  0.83548372  0.54483773
   0.66574901  0.42308727  0.46189880
   0.84086892  0.91733985  0.27494537
   0.46347418  0.81015593  0.15333890
