   20   20   99    2
  0.8632112E+01  0.3401747E-09  0.6800235E-09  0.7839863E-09  0.5000000E-15
  1.000000000000000E-004
  CAR 
 unknown system                          
     78     32     64
 
  0.3742002E-15  0.3742002E-15  0.3742002E-15  0.1587302E-01
    1      -31.452538    -31.452528   1.000000   1.000000
    2      -31.372739    -31.372729   1.000000   1.000000
    3      -27.623942    -27.623935   1.000000   1.000000
    4      -27.610612    -27.610611   1.000000   1.000000
    5      -27.590389    -27.590385   1.000000   1.000000
    6      -27.383221    -27.383217   1.000000   1.000000
    7      -27.376729    -27.376726   1.000000   1.000000
    8      -27.325193    -27.325192   1.000000   1.000000
    9      -27.324767    -27.324757   1.000000   1.000000
   10      -27.235604    -27.235587   1.000000   1.000000
   11      -27.205530    -27.205517   1.000000   1.000000
   12      -27.196603    -27.196588   1.000000   1.000000
   13      -27.192941    -27.192928   1.000000   1.000000
   14      -27.167618    -27.167602   1.000000   1.000000
   15      -14.140671    -14.140667   1.000000   1.000000
   16      -13.601916    -13.601907   1.000000   1.000000
   17      -13.427478    -13.427468   1.000000   1.000000
   18      -13.224913    -13.224908   1.000000   1.000000
   19      -13.219986    -13.219981   1.000000   1.000000
   20      -13.137678    -13.137674   1.000000   1.000000
   21       -5.672525     -5.672529   1.000000   1.000000
   22       -3.760044     -3.760051   1.000000   1.000000
   23       -3.322441     -3.322441   1.000000   1.000000
   24       -2.987271     -2.987275   1.000000   1.000000
   25       -2.870780     -2.870781   1.000000   1.000000
   26       -2.092108     -2.092111   1.000000   1.000000
   27       -1.749963     -1.749965   1.000000   1.000000
   28       -1.160711     -1.160714   1.000000   1.000000
   29       -0.789090     -0.789093   1.000000   1.000000
   30       -0.558427     -0.558428   1.000000   1.000000
   31        0.026605      0.026602   1.000000   1.000000
   32        0.730798      0.730795   1.000000   1.000000
   33        0.973799      0.973797   1.000000   1.000000
   34        2.834572      2.834576   1.000000   1.000000
   35        3.147099      3.147108   1.000000   1.000000
   36        3.260858      3.260865   1.000000   1.000000
   37        3.309551      3.309557   1.000000   1.000000
   38        3.315452      3.315457   1.000000   1.000000
   39        3.337835      3.337838   1.000000   1.000000
   40        3.710529      3.710522   0.445594   0.445601
   41        5.035002      5.034998   0.000000   0.000000
   42        5.046309      5.046316   0.000000   0.000000
   43        5.236107      5.236116   0.000000   0.000000
   44        5.238216      5.238225   0.000000   0.000000
   45        5.374861      5.374858   0.000000   0.000000
   46        5.410074      5.410082   0.000000   0.000000
   47        5.687312      5.687321   0.000000   0.000000
   48        5.879462      5.879466   0.000000   0.000000
   49        6.082405      6.082401   0.000000   0.000000
   50        6.280702      6.280712   0.000000   0.000000
   51        6.481535      6.481536   0.000000   0.000000
   52        6.712449      6.712460   0.000000   0.000000
   53        8.244983      8.244985   0.000000   0.000000
   54        8.478525      8.478523   0.000000   0.000000
   55        8.499228      8.499226   0.000000   0.000000
   56        9.430907      9.430913   0.000000   0.000000
   57        9.868738      9.868736   0.000000   0.000000
   58       10.046644     10.046643   0.000000   0.000000
   59       10.104652     10.104655   0.000000   0.000000
   60       10.199110     10.199113   0.000000   0.000000
   61       10.751354     10.751352   0.000000   0.000000
   62       11.077974     11.077960   0.000000   0.000000
   63       11.314191     11.314169   0.000000   0.000000
   64       11.676226     11.676277   0.000000   0.000000
 
  0.1428571E+00  0.3742124E-15  0.3608225E-15  0.3174603E-01
    1      -31.437471    -31.437461   1.000000   1.000000
    2      -31.358552    -31.358542   1.000000   1.000000
    3      -27.610483    -27.610475   1.000000   1.000000
    4      -27.606949    -27.606947   1.000000   1.000000
    5      -27.588222    -27.588218   1.000000   1.000000
    6      -27.435693    -27.435688   1.000000   1.000000
    7      -27.396209    -27.396206   1.000000   1.000000
    8      -27.367746    -27.367744   1.000000   1.000000
    9      -27.300140    -27.300132   1.000000   1.000000
   10      -27.269475    -27.269458   1.000000   1.000000
   11      -27.242494    -27.242480   1.000000   1.000000
   12      -27.197033    -27.197019   1.000000   1.000000
   13      -27.181043    -27.181028   1.000000   1.000000
   14      -27.168419    -27.168404   1.000000   1.000000
   15      -14.106376    -14.106372   1.000000   1.000000
   16      -13.571000    -13.570991   1.000000   1.000000
   17      -13.409406    -13.409401   1.000000   1.000000
   18      -13.400211    -13.400202   1.000000   1.000000
   19      -13.303512    -13.303507   1.000000   1.000000
   20      -13.209386    -13.209381   1.000000   1.000000
   21       -5.344397     -5.344401   1.000000   1.000000
   22       -3.437437     -3.437444   1.000000   1.000000
   23       -3.023605     -3.023606   1.000000   1.000000
   24       -3.003553     -3.003556   1.000000   1.000000
   25       -2.704755     -2.704757   1.000000   1.000000
   26       -1.838313     -1.838316   1.000000   1.000000
   27       -1.573974     -1.573976   1.000000   1.000000
   28       -1.307913     -1.307916   1.000000   1.000000
   29       -0.828057     -0.828059   1.000000   1.000000
   30       -0.556447     -0.556448   1.000000   1.000000
   31       -0.316411     -0.316412   1.000000   1.000000
   32        0.553215      0.553213   1.000000   1.000000
   33        0.620502      0.620498   1.000000   1.000000
   34        1.755172      1.755171   1.000000   1.000000
   35        2.667707      2.667710   1.000000   1.000000
   36        2.808338      2.808343   1.000000   1.000000
   37        2.827032      2.827039   1.000000   1.000000
   38        3.352404      3.352410   1.000000   1.000000
   39        3.696141      3.696147   1.000000   1.000000
   40        4.430916      4.430922  -0.031162  -0.031162
   41        4.914961      4.914958   0.000000   0.000000
   42        5.406703      5.406709   0.000000   0.000000
   43        5.612490      5.612494   0.000000   0.000000
   44        5.618643      5.618651   0.000000   0.000000
   45        5.844717      5.844723   0.000000   0.000000
   46        5.847012      5.847017   0.000000   0.000000
   47        5.851465      5.851471   0.000000   0.000000
   48        6.127342      6.127345   0.000000   0.000000
   49        6.160740      6.160741   0.000000   0.000000
   50        6.429298      6.429298   0.000000   0.000000
   51        6.543855      6.543864   0.000000   0.000000
   52        6.883569      6.883571   0.000000   0.000000
   53        8.333130      8.333127   0.000000   0.000000
   54        8.785870      8.785871   0.000000   0.000000
   55        9.002802      9.002801   0.000000   0.000000
   56        9.196445      9.196443   0.000000   0.000000
   57        9.367500      9.367494   0.000000   0.000000
   58        9.902915      9.902912   0.000000   0.000000
   59       10.169227     10.169227   0.000000   0.000000
   60       10.221552     10.221557   0.000000   0.000000
   61       10.550743     10.550743   0.000000   0.000000
   62       10.693681     10.693673   0.000000   0.000000
   63       11.310150     11.310125   0.000000   0.000000
   64       11.658713     11.658832   0.000000   0.000000
 
  0.2857143E+00  0.3742259E-15  0.3608225E-15  0.3174603E-01
    1      -31.403339    -31.403330   1.000000   1.000000
    2      -31.326420    -31.326410   1.000000   1.000000
    3      -27.609392    -27.609390   1.000000   1.000000
    4      -27.597571    -27.597566   1.000000   1.000000
    5      -27.592541    -27.592533   1.000000   1.000000
    6      -27.535045    -27.535042   1.000000   1.000000
    7      -27.475991    -27.475990   1.000000   1.000000
    8      -27.345476    -27.345474   1.000000   1.000000
    9      -27.325514    -27.325500   1.000000   1.000000
   10      -27.310870    -27.310860   1.000000   1.000000
   11      -27.305796    -27.305783   1.000000   1.000000
   12      -27.207154    -27.207139   1.000000   1.000000
   13      -27.179060    -27.179043   1.000000   1.000000
   14      -27.168211    -27.168196   1.000000   1.000000
   15      -14.027755    -14.027751   1.000000   1.000000
   16      -13.808956    -13.808952   1.000000   1.000000
   17      -13.655946    -13.655942   1.000000   1.000000
   18      -13.495405    -13.495396   1.000000   1.000000
   19      -13.337441    -13.337431   1.000000   1.000000
   20      -13.174175    -13.174170   1.000000   1.000000
   21       -4.544755     -4.544759   1.000000   1.000000
   22       -3.178032     -3.178034   1.000000   1.000000
   23       -2.638702     -2.638708   1.000000   1.000000
   24       -2.364689     -2.364690   1.000000   1.000000
   25       -2.232207     -2.232210   1.000000   1.000000
   26       -1.666894     -1.666897   1.000000   1.000000
   27       -1.354948     -1.354950   1.000000   1.000000
   28       -1.217556     -1.217557   1.000000   1.000000
   29       -0.866636     -0.866637   1.000000   1.000000
   30       -0.790798     -0.790801   1.000000   1.000000
   31       -0.635522     -0.635523   1.000000   1.000000
   32       -0.177684     -0.177685   1.000000   1.000000
   33        0.425868      0.425863   1.000000   1.000000
   34        0.806765      0.806765   1.000000   1.000000
   35        1.873367      1.873366   1.000000   1.000000
   36        2.035244      2.035250   1.000000   1.000000
   37        2.960202      2.960210   1.000000   1.000000
   38        3.365901      3.365907   1.000000   1.000000
   39        3.770644      3.770649   1.003879   1.003880
   40        4.213867      4.213872   0.000000   0.000000
   41        5.009125      5.009122   0.000000   0.000000
   42        5.397857      5.397866   0.000000   0.000000
   43        5.655311      5.655315   0.000000   0.000000
   44        5.756554      5.756561   0.000000   0.000000
   45        6.047027      6.047032   0.000000   0.000000
   46        6.180847      6.180850   0.000000   0.000000
   47        6.408671      6.408679   0.000000   0.000000
   48        6.652994      6.652997   0.000000   0.000000
   49        6.871375      6.871382   0.000000   0.000000
   50        7.435520      7.435520   0.000000   0.000000
   51        7.616026      7.616027   0.000000   0.000000
   52        7.994801      7.994801   0.000000   0.000000
   53        8.599195      8.599192   0.000000   0.000000
   54        8.718511      8.718510   0.000000   0.000000
   55        8.843523      8.843519   0.000000   0.000000
   56        9.012898      9.012901   0.000000   0.000000
   57        9.249841      9.249841   0.000000   0.000000
   58        9.288224      9.288224   0.000000   0.000000
   59        9.666469      9.666469   0.000000   0.000000
   60       10.042026     10.042023   0.000000   0.000000
   61       10.217431     10.217429   0.000000   0.000000
   62       10.687889     10.687884   0.000000   0.000000
   63       10.940797     10.940766   0.000000   0.000000
   64       11.524456     11.516888   0.000000   0.000000
 
  0.4285714E+00  0.3741988E-15  0.3330669E-15  0.3174603E-01
    1      -31.375689    -31.375679   1.000000   1.000000
    2      -31.300391    -31.300384   1.000000   1.000000
    3      -27.627179    -27.627175   1.000000   1.000000
    4      -27.625223    -27.625215   1.000000   1.000000
    5      -27.622823    -27.622818   1.000000   1.000000
    6      -27.606286    -27.606283   1.000000   1.000000
    7      -27.478406    -27.478404   1.000000   1.000000
    8      -27.348326    -27.348315   1.000000   1.000000
    9      -27.335169    -27.335158   1.000000   1.000000
   10      -27.332876    -27.332865   1.000000   1.000000
   11      -27.323899    -27.323900   1.000000   1.000000
   12      -27.218876    -27.218859   1.000000   1.000000
   13      -27.192404    -27.192386   1.000000   1.000000
   14      -27.167796    -27.167780   1.000000   1.000000
   15      -14.102547    -14.102543   1.000000   1.000000
   16      -13.963053    -13.963048   1.000000   1.000000
   17      -13.920768    -13.920764   1.000000   1.000000
   18      -13.434869    -13.434860   1.000000   1.000000
   19      -13.286125    -13.286115   1.000000   1.000000
   20      -13.145618    -13.145612   1.000000   1.000000
   21       -3.848344     -3.848346   1.000000   1.000000
   22       -3.302330     -3.302335   1.000000   1.000000
   23       -2.087700     -2.087702   1.000000   1.000000
   24       -2.057192     -2.057197   1.000000   1.000000
   25       -1.860173     -1.860178   1.000000   1.000000
   26       -1.699426     -1.699427   1.000000   1.000000
   27       -1.174335     -1.174337   1.000000   1.000000
   28       -1.076908     -1.076908   1.000000   1.000000
   29       -1.052981     -1.052985   1.000000   1.000000
   30       -0.832489     -0.832490   1.000000   1.000000
   31       -0.486412     -0.486414   1.000000   1.000000
   32       -0.377743     -0.377745   1.000000   1.000000
   33        0.074694      0.074687   1.000000   1.000000
   34        0.939620      0.939618   1.000000   1.000000
   35        1.180023      1.180022   1.000000   1.000000
   36        1.396031      1.396035   1.000000   1.000000
   37        3.141905      3.141916   1.000000   1.000000
   38        3.271165      3.271172   1.000000   1.000000
   39        3.380766      3.380770   1.017998   1.018006
   40        4.583898      4.583903   0.000000   0.000000
   41        5.205412      5.205407   0.000000   0.000000
   42        5.382340      5.382348   0.000000   0.000000
   43        5.703234      5.703242   0.000000   0.000000
   44        6.057327      6.057329   0.000000   0.000000
   45        6.137507      6.137509   0.000000   0.000000
   46        6.251132      6.251142   0.000000   0.000000
   47        6.258677      6.258677   0.000000   0.000000
   48        6.455516      6.455520   0.000000   0.000000
   49        6.872097      6.872099   0.000000   0.000000
   50        7.709260      7.709265   0.000000   0.000000
   51        8.236018      8.236014   0.000000   0.000000
   52        8.322049      8.322052   0.000000   0.000000
   53        8.333825      8.333829   0.000000   0.000000
   54        8.453229      8.453235   0.000000   0.000000
   55        8.783264      8.783264   0.000000   0.000000
   56        9.423375      9.423369   0.000000   0.000000
   57        9.848288      9.848287   0.000000   0.000000
   58        9.899093      9.899093   0.000000   0.000000
   59        9.920091      9.920089   0.000000   0.000000
   60       10.104211     10.104208   0.000000   0.000000
   61       10.130753     10.130747   0.000000   0.000000
   62       10.645627     10.645633   0.000000   0.000000
   63       11.096253     11.097652   0.000000   0.000000
   64       11.181955     11.182249   0.000000   0.000000
 
  0.3742039E-15  0.3333333E+00  0.3608225E-15  0.3174603E-01
    1      -31.432787    -31.432777   1.000000   1.000000
    2      -31.392884    -31.392874   1.000000   1.000000
    3      -27.602509    -27.602503   1.000000   1.000000
    4      -27.587579    -27.587575   1.000000   1.000000
    5      -27.558845    -27.558843   1.000000   1.000000
    6      -27.445367    -27.445364   1.000000   1.000000
    7      -27.371046    -27.371043   1.000000   1.000000
    8      -27.342880    -27.342878   1.000000   1.000000
    9      -27.308123    -27.308111   1.000000   1.000000
   10      -27.240582    -27.240568   1.000000   1.000000
   11      -27.224963    -27.224949   1.000000   1.000000
   12      -27.210607    -27.210593   1.000000   1.000000
   13      -27.177633    -27.177618   1.000000   1.000000
   14      -27.166584    -27.166569   1.000000   1.000000
   15      -13.929909    -13.929905   1.000000   1.000000
   16      -13.562049    -13.562040   1.000000   1.000000
   17      -13.472254    -13.472244   1.000000   1.000000
   18      -13.471178    -13.471172   1.000000   1.000000
   19      -13.199634    -13.199630   1.000000   1.000000
   20      -13.158478    -13.158473   1.000000   1.000000
   21       -5.235606     -5.235611   1.000000   1.000000
   22       -4.267871     -4.267876   1.000000   1.000000
   23       -3.243567     -3.243569   1.000000   1.000000
   24       -3.038570     -3.038572   1.000000   1.000000
   25       -2.623339     -2.623343   1.000000   1.000000
   26       -2.092139     -2.092142   1.000000   1.000000
   27       -1.759819     -1.759821   1.000000   1.000000
   28       -1.198221     -1.198222   1.000000   1.000000
   29       -0.711081     -0.711083   1.000000   1.000000
   30       -0.562901     -0.562902   1.000000   1.000000
   31        0.258134      0.258132   1.000000   1.000000
   32        0.599787      0.599785   1.000000   1.000000
   33        0.827099      0.827097   1.000000   1.000000
   34        1.519252      1.519251   1.000000   1.000000
   35        2.812831      2.812834   1.000000   1.000000
   36        3.030261      3.030267   1.000000   1.000000
   37        3.345868      3.345873   1.000000   1.000000
   38        3.367874      3.367879   1.000000   1.000000
   39        3.610453      3.610458   1.000000   1.000000
   40        4.314829      4.314836  -0.019623  -0.019623
   41        4.968073      4.968071   0.000000   0.000000
   42        5.008723      5.008720   0.000000   0.000000
   43        5.367734      5.367743   0.000000   0.000000
   44        5.650367      5.650378   0.000000   0.000000
   45        5.743985      5.743993   0.000000   0.000000
   46        5.759589      5.759593   0.000000   0.000000
   47        5.764978      5.764983   0.000000   0.000000
   48        5.973311      5.973315   0.000000   0.000000
   49        6.165232      6.165236   0.000000   0.000000
   50        6.389551      6.389551   0.000000   0.000000
   51        6.622675      6.622678   0.000000   0.000000
   52        7.369511      7.369511   0.000000   0.000000
   53        8.288108      8.288106   0.000000   0.000000
   54        8.737339      8.737342   0.000000   0.000000
   55        9.026391      9.026388   0.000000   0.000000
   56        9.141527      9.141526   0.000000   0.000000
   57        9.298871      9.298873   0.000000   0.000000
   58        9.772408      9.772406   0.000000   0.000000
   59        9.809979      9.809970   0.000000   0.000000
   60       10.021452     10.021456   0.000000   0.000000
   61       10.224364     10.224361   0.000000   0.000000
   62       10.461583     10.461546   0.000000   0.000000
   63       11.032603     11.033297   0.000000   0.000000
   64       11.372625     11.364934   0.000000   0.000000
 
  0.1428571E+00  0.3333333E+00  0.3608225E-15  0.3174603E-01
    1      -31.417940    -31.417930   1.000000   1.000000
    2      -31.378471    -31.378461   1.000000   1.000000
    3      -27.590930    -27.590924   1.000000   1.000000
    4      -27.582624    -27.582619   1.000000   1.000000
    5      -27.554342    -27.554340   1.000000   1.000000
    6      -27.438777    -27.438775   1.000000   1.000000
    7      -27.422907    -27.422903   1.000000   1.000000
    8      -27.404544    -27.404541   1.000000   1.000000
    9      -27.299244    -27.299232   1.000000   1.000000
   10      -27.256218    -27.256205   1.000000   1.000000
   11      -27.253574    -27.253559   1.000000   1.000000
   12      -27.231607    -27.231594   1.000000   1.000000
   13      -27.168921    -27.168907   1.000000   1.000000
   14      -27.163757    -27.163743   1.000000   1.000000
   15      -13.900018    -13.900013   1.000000   1.000000
   16      -13.532294    -13.532285   1.000000   1.000000
   17      -13.456400    -13.456394   1.000000   1.000000
   18      -13.443576    -13.443566   1.000000   1.000000
   19      -13.376111    -13.376107   1.000000   1.000000
   20      -13.329389    -13.329384   1.000000   1.000000
   21       -4.892308     -4.892312   1.000000   1.000000
   22       -3.968100     -3.968105   1.000000   1.000000
   23       -2.925532     -2.925534   1.000000   1.000000
   24       -2.859305     -2.859307   1.000000   1.000000
   25       -2.670251     -2.670255   1.000000   1.000000
   26       -1.969837     -1.969841   1.000000   1.000000
   27       -1.508736     -1.508738   1.000000   1.000000
   28       -1.292677     -1.292679   1.000000   1.000000
   29       -0.760068     -0.760071   1.000000   1.000000
   30       -0.549591     -0.549592   1.000000   1.000000
   31       -0.048034     -0.048033   1.000000   1.000000
   32        0.373475      0.373473   1.000000   1.000000
   33        0.468937      0.468935   1.000000   1.000000
   34        0.887873      0.887872   1.000000   1.000000
   35        2.579181      2.579185   1.000000   1.000000
   36        2.676426      2.676430   1.000000   1.000000
   37        3.294506      3.294510   1.000000   1.000000
   38        3.745631      3.745638   1.000000   1.000000
   39        3.767644      3.767651   1.019793   1.019850
   40        4.174473      4.174479   0.004429   0.004428
   41        4.935854      4.935856   0.000000   0.000000
   42        5.284868      5.284874   0.000000   0.000000
   43        5.411419      5.411423   0.000000   0.000000
   44        5.426921      5.426929   0.000000   0.000000
   45        5.685097      5.685099   0.000000   0.000000
   46        5.883124      5.883126   0.000000   0.000000
   47        6.016176      6.016179   0.000000   0.000000
   48        6.344694      6.344699   0.000000   0.000000
   49        6.615736      6.615740   0.000000   0.000000
   50        6.735360      6.735364   0.000000   0.000000
   51        6.774334      6.774335   0.000000   0.000000
   52        7.800879      7.800880   0.000000   0.000000
   53        8.469224      8.469223   0.000000   0.000000
   54        8.496629      8.496637   0.000000   0.000000
   55        8.741126      8.741124   0.000000   0.000000
   56        9.179621      9.179614   0.000000   0.000000
   57        9.410396      9.410401   0.000000   0.000000
   58        9.471478      9.471481   0.000000   0.000000
   59        9.963021      9.963009   0.000000   0.000000
   60       10.281234     10.281233   0.000000   0.000000
   61       10.491999     10.491965   0.000000   0.000000
   62       10.496946     10.496941   0.000000   0.000000
   63       11.079022     11.082034   0.000000   0.000000
   64       11.191816     11.197836   0.000000   0.000000
 
  0.2857143E+00  0.3333333E+00  0.3330669E-15  0.3174603E-01
    1      -31.384307    -31.384297   1.000000   1.000000
    2      -31.345836    -31.345826   1.000000   1.000000
    3      -27.584378    -27.584373   1.000000   1.000000
    4      -27.580023    -27.580018   1.000000   1.000000
    5      -27.554989    -27.554984   1.000000   1.000000
    6      -27.527907    -27.527904   1.000000   1.000000
    7      -27.491257    -27.491257   1.000000   1.000000
    8      -27.421042    -27.421039   1.000000   1.000000
    9      -27.317236    -27.317222   1.000000   1.000000
   10      -27.301559    -27.301547   1.000000   1.000000
   11      -27.298474    -27.298462   1.000000   1.000000
   12      -27.246865    -27.246851   1.000000   1.000000
   13      -27.169515    -27.169500   1.000000   1.000000
   14      -27.162875    -27.162860   1.000000   1.000000
   15      -13.833900    -13.833896   1.000000   1.000000
   16      -13.773192    -13.773188   1.000000   1.000000
   17      -13.689549    -13.689544   1.000000   1.000000
   18      -13.457800    -13.457791   1.000000   1.000000
   19      -13.400308    -13.400303   1.000000   1.000000
   20      -13.377536    -13.377526   1.000000   1.000000
   21       -4.108247     -4.108250   1.000000   1.000000
   22       -3.206590     -3.206594   1.000000   1.000000
   23       -2.823562     -2.823565   1.000000   1.000000
   24       -2.216298     -2.216300   1.000000   1.000000
   25       -2.204985     -2.204988   1.000000   1.000000
   26       -1.956079     -1.956084   1.000000   1.000000
   27       -1.348300     -1.348300   1.000000   1.000000
   28       -1.265747     -1.265748   1.000000   1.000000
   29       -0.937617     -0.937620   1.000000   1.000000
   30       -0.694618     -0.694620   1.000000   1.000000
   31       -0.392467     -0.392466   1.000000   1.000000
   32       -0.148587     -0.148588   1.000000   1.000000
   33        0.022090      0.022088   1.000000   1.000000
   34        0.307516      0.307515   1.000000   1.000000
   35        1.995458      1.995460   1.000000   1.000000
   36        2.590407      2.590409   1.000000   1.000000
   37        2.619030      2.619034   1.000000   1.000000
   38        3.393232      3.393233   1.000000   1.000000
   39        3.891613      3.891623   0.931903   0.931824
   40        4.214467      4.214473   0.000000   0.000000
   41        5.155278      5.155284   0.000000   0.000000
   42        5.292423      5.292428   0.000000   0.000000
   43        5.444419      5.444424   0.000000   0.000000
   44        5.813538      5.813543   0.000000   0.000000
   45        5.944324      5.944323   0.000000   0.000000
   46        6.334391      6.334397   0.000000   0.000000
   47        6.413560      6.413564   0.000000   0.000000
   48        6.421949      6.421953   0.000000   0.000000
   49        6.900426      6.900427   0.000000   0.000000
   50        7.561901      7.561903   0.000000   0.000000
   51        7.822607      7.822608   0.000000   0.000000
   52        8.026622      8.026625   0.000000   0.000000
   53        8.209290      8.209286   0.000000   0.000000
   54        8.437187      8.437184   0.000000   0.000000
   55        9.230601      9.230596   0.000000   0.000000
   56        9.238694      9.238688   0.000000   0.000000
   57        9.486623      9.486660   0.000000   0.000000
   58        9.666365      9.666373   0.000000   0.000000
   59        9.857973      9.857977   0.000000   0.000000
   60        9.883300      9.883307   0.000000   0.000000
   61       10.448223     10.448421   0.000000   0.000000
   62       10.739362     10.739614   0.000000   0.000000
   63       10.748642     10.749496   0.000000   0.000000
   64       10.894021     10.894471   0.000000   0.000000
 
  0.4285714E+00  0.3333333E+00  0.2775558E-15  0.3174603E-01
    1      -31.357053    -31.357043   1.000000   1.000000
    2      -31.319398    -31.319388   1.000000   1.000000
    3      -27.608276    -27.608273   1.000000   1.000000
    4      -27.607820    -27.607812   1.000000   1.000000
    5      -27.601568    -27.601566   1.000000   1.000000
    6      -27.597047    -27.597040   1.000000   1.000000
    7      -27.487780    -27.487779   1.000000   1.000000
    8      -27.411724    -27.411722   1.000000   1.000000
    9      -27.327765    -27.327755   1.000000   1.000000
   10      -27.321298    -27.321285   1.000000   1.000000
   11      -27.307754    -27.307746   1.000000   1.000000
   12      -27.261962    -27.261946   1.000000   1.000000
   13      -27.181566    -27.181550   1.000000   1.000000
   14      -27.168144    -27.168129   1.000000   1.000000
   15      -14.058312    -14.058308   1.000000   1.000000
   16      -13.967939    -13.967935   1.000000   1.000000
   17      -13.770844    -13.770839   1.000000   1.000000
   18      -13.398968    -13.398959   1.000000   1.000000
   19      -13.363220    -13.363215   1.000000   1.000000
   20      -13.323968    -13.323958   1.000000   1.000000
   21       -3.440115     -3.440117   1.000000   1.000000
   22       -2.886462     -2.886467   1.000000   1.000000
   23       -2.482659     -2.482662   1.000000   1.000000
   24       -2.142695     -2.142702   1.000000   1.000000
   25       -1.803281     -1.803281   1.000000   1.000000
   26       -1.676312     -1.676315   1.000000   1.000000
   27       -1.216321     -1.216322   1.000000   1.000000
   28       -1.180121     -1.180125   1.000000   1.000000
   29       -1.057572     -1.057574   1.000000   1.000000
   30       -0.906406     -0.906408   1.000000   1.000000
   31       -0.586383     -0.586383   1.000000   1.000000
   32       -0.342529     -0.342532   1.000000   1.000000
   33       -0.340587     -0.340588   1.000000   1.000000
   34        0.403010      0.403009   1.000000   1.000000
   35        1.628658      1.628659   1.000000   1.000000
   36        1.919837      1.919841   1.000000   1.000000
   37        2.554072      2.554076   1.000000   1.000000
   38        2.805847      2.805852   1.000000   1.000000
   39        3.791129      3.791137   1.008460   1.008462
   40        4.405113      4.405119   0.000000   0.000000
   41        5.342461      5.342466   0.000000   0.000000
   42        5.759675      5.759679   0.000000   0.000000
   43        5.872197      5.872203   0.000000   0.000000
   44        6.133426      6.133424   0.000000   0.000000
   45        6.205027      6.205030   0.000000   0.000000
   46        6.309906      6.309912   0.000000   0.000000
   47        6.454339      6.454344   0.000000   0.000000
   48        6.709669      6.709672   0.000000   0.000000
   49        6.755073      6.755079   0.000000   0.000000
   50        7.194411      7.194412   0.000000   0.000000
   51        8.044378      8.044378   0.000000   0.000000
   52        8.434634      8.434632   0.000000   0.000000
   53        8.642310      8.642307   0.000000   0.000000
   54        8.819098      8.819099   0.000000   0.000000
   55        8.843273      8.843273   0.000000   0.000000
   56        9.131613      9.131613   0.000000   0.000000
   57        9.133994      9.133996   0.000000   0.000000