  21  21   0   0
  0.7968157E+01  0.3373582E-09  0.6623045E-09  0.7699608E-09  0.5000000E-15
  1.000000000000000E-004
  CAR 
 unknown system                          
      9.98758953    -32.82473896  301      4.28184465      1.00000000
    -32.825  0.0000E+00  0.0000E+00
    -32.682  0.0000E+00  0.0000E+00
    -32.539  0.0000E+00  0.0000E+00
    -32.397  0.0000E+00  0.0000E+00
    -32.254  0.0000E+00  0.0000E+00
    -32.111  0.0000E+00  0.0000E+00
    -31.968  0.0000E+00  0.0000E+00
    -31.826  0.0000E+00  0.0000E+00
    -31.683  0.1821E-27  0.2599E-28
    -31.540  0.1348E-18  0.1924E-19
    -31.398  0.1482E-11  0.2115E-12
    -31.255  0.2153E-06  0.3072E-07
    -31.112  0.2704E-03  0.3862E-04
    -30.970 -0.5556E-02 -0.7543E-03
    -30.827  0.1280E+00  0.1752E-01
    -30.684  0.1155E+00  0.3400E-01
    -30.541 -0.4864E-02  0.3330E-01
    -30.399  0.2233E-03  0.3333E-01
    -30.256  0.1424E-06  0.3333E-01
    -30.113  0.8172E-12  0.3333E-01
    -29.971  0.0000E+00  0.3333E-01
    -29.828  0.0000E+00  0.3333E-01
    -29.685  0.0000E+00  0.3333E-01
    -29.542  0.0000E+00  0.3333E-01
    -29.400  0.0000E+00  0.3333E-01
    -29.257  0.0000E+00  0.3333E-01
    -29.114  0.0000E+00  0.3333E-01
    -28.972  0.0000E+00  0.3333E-01
    -28.829  0.0000E+00  0.3333E-01
    -28.686  0.0000E+00  0.3333E-01
    -28.544  0.3445E-29  0.3333E-01
    -28.401  0.4954E-20  0.3333E-01
    -28.258  0.1089E-12  0.3333E-01
    -28.115  0.3399E-07  0.3333E-01
    -27.973  0.1194E-03  0.3335E-01
    -27.830 -0.2397E-02  0.3301E-01
    -27.687  0.9208E-01  0.4615E-01
    -27.545  0.2953E+00  0.8828E-01
    -27.402  0.3463E+00  0.1377E+00
    -27.259  0.5108E+00  0.2106E+00
    -27.116  0.5360E+00  0.2871E+00
    -26.974  0.6480E+00  0.3796E+00
    -26.831  0.5220E+00  0.4540E+00
    -26.688  0.3162E+00  0.4992E+00
    -26.546  0.2338E+00  0.5325E+00
    -26.403  0.4486E-02  0.5332E+00
    -26.260  0.1094E-02  0.5333E+00
    -26.117  0.7352E-05  0.5333E+00
    -25.975  0.1996E-09  0.5333E+00
    -25.832  0.6361E-16  0.5333E+00
    -25.689  0.0000E+00  0.5333E+00
    -25.547  0.0000E+00  0.5333E+00
    -25.404  0.0000E+00  0.5333E+00
    -25.261  0.0000E+00  0.5333E+00
    -25.119  0.0000E+00  0.5333E+00
    -24.976  0.0000E+00  0.5333E+00
    -24.833  0.0000E+00  0.5333E+00
    -24.690  0.0000E+00  0.5333E+00
    -24.548  0.0000E+00  0.5333E+00
    -24.405  0.0000E+00  0.5333E+00
    -24.262  0.0000E+00  0.5333E+00
    -24.120  0.0000E+00  0.5333E+00
    -23.977  0.0000E+00  0.5333E+00
    -23.834  0.0000E+00  0.5333E+00
    -23.691  0.0000E+00  0.5333E+00
    -23.549  0.0000E+00  0.5333E+00
    -23.406  0.0000E+00  0.5333E+00
    -23.263  0.0000E+00  0.5333E+00
    -23.121  0.0000E+00  0.5333E+00
    -22.978  0.0000E+00  0.5333E+00
    -22.835  0.0000E+00  0.5333E+00
    -22.692  0.0000E+00  0.5333E+00
    -22.550  0.0000E+00  0.5333E+00
    -22.407  0.0000E+00  0.5333E+00
    -22.264  0.0000E+00  0.5333E+00
    -22.122  0.0000E+00  0.5333E+00
    -21.979  0.0000E+00  0.5333E+00
    -21.836  0.0000E+00  0.5333E+00
    -21.694  0.0000E+00  0.5333E+00
    -21.551  0.0000E+00  0.5333E+00
    -21.408  0.0000E+00  0.5333E+00
    -21.265  0.0000E+00  0.5333E+00
    -21.123  0.0000E+00  0.5333E+00
    -20.980  0.0000E+00  0.5333E+00
    -20.837  0.0000E+00  0.5333E+00
    -20.695  0.0000E+00  0.5333E+00
    -20.552  0.0000E+00  0.5333E+00
    -20.409  0.0000E+00  0.5333E+00
    -20.266  0.0000E+00  0.5333E+00
    -20.124  0.0000E+00  0.5333E+00
    -19.981  0.0000E+00  0.5333E+00
    -19.838  0.0000E+00  0.5333E+00
    -19.696  0.0000E+00  0.5333E+00
    -19.553  0.0000E+00  0.5333E+00
    -19.410  0.0000E+00  0.5333E+00
    -19.268  0.0000E+00  0.5333E+00
    -19.125  0.0000E+00  0.5333E+00
    -18.982  0.0000E+00  0.5333E+00
    -18.839  0.0000E+00  0.5333E+00
    -18.697  0.0000E+00  0.5333E+00
    -18.554  0.0000E+00  0.5333E+00
    -18.411  0.0000E+00  0.5333E+00
    -18.269  0.0000E+00  0.5333E+00
    -18.126  0.0000E+00  0.5333E+00
    -17.983  0.0000E+00  0.5333E+00
    -17.840  0.0000E+00  0.5333E+00
    -17.698  0.0000E+00  0.5333E+00
    -17.555  0.0000E+00  0.5333E+00
    -17.412  0.0000E+00  0.5333E+00
    -17.270  0.0000E+00  0.5333E+00
    -17.127  0.0000E+00  0.5333E+00
    -16.984  0.0000E+00  0.5333E+00
    -16.841  0.0000E+00  0.5333E+00
    -16.699  0.0000E+00  0.5333E+00
    -16.556  0.0000E+00  0.5333E+00
    -16.413  0.0000E+00  0.5333E+00
    -16.271  0.0000E+00  0.5333E+00
    -16.128  0.0000E+00  0.5333E+00
    -15.985  0.0000E+00  0.5333E+00
    -15.843  0.0000E+00  0.5333E+00
    -15.700  0.0000E+00  0.5333E+00
    -15.557  0.0000E+00  0.5333E+00
    -15.414  0.0000E+00  0.5333E+00
    -15.272  0.0000E+00  0.5333E+00
    -15.129  0.0000E+00  0.5333E+00
    -14.986  0.0000E+00  0.5333E+00
    -14.844  0.0000E+00  0.5333E+00
    -14.701  0.0000E+00  0.5333E+00
    -14.558  0.8023E-33  0.5333E+00
    -14.415  0.4345E-23  0.5333E+00
    -14.273  0.3524E-15  0.5333E+00
    -14.130  0.3910E-09  0.5333E+00
    -13.987  0.4755E-05  0.5333E+00
    -13.845  0.8620E-04  0.5333E+00
    -13.702  0.3987E-02  0.5339E+00
    -13.559  0.5288E-01  0.5415E+00
    -13.416  0.3264E-01  0.5461E+00
    -13.274  0.6766E-02  0.5471E+00
    -13.131  0.6611E-01  0.5565E+00
    -12.988  0.2404E+00  0.5908E+00
    -12.846  0.2446E+00  0.6257E+00
    -12.703  0.2585E-01  0.6294E+00
    -12.560  0.2842E-01  0.6335E+00
    -12.418 -0.1056E-02  0.6333E+00
    -12.275  0.6320E-04  0.6333E+00
    -12.132  0.6145E-07  0.6333E+00
    -11.989  0.4580E-12  0.6333E+00
    -11.847  0.0000E+00  0.6333E+00
    -11.704  0.0000E+00  0.6333E+00
    -11.561  0.0000E+00  0.6333E+00
    -11.419  0.0000E+00  0.6333E+00
    -11.276  0.0000E+00  0.6333E+00
    -11.133  0.0000E+00  0.6333E+00
    -10.990  0.0000E+00  0.6333E+00
    -10.848  0.0000E+00  0.6333E+00
    -10.705  0.0000E+00  0.6333E+00
    -10.562  0.0000E+00  0.6333E+00
    -10.420  0.0000E+00  0.6333E+00
    -10.277  0.0000E+00  0.6333E+00
    -10.134  0.0000E+00  0.6333E+00
     -9.991  0.0000E+00  0.6333E+00
     -9.849  0.0000E+00  0.6333E+00
     -9.706  0.0000E+00  0.6333E+00
     -9.563  0.0000E+00  0.6333E+00
     -9.421  0.0000E+00  0.6333E+00
     -9.278  0.0000E+00  0.6333E+00
     -9.135  0.0000E+00  0.6333E+00
     -8.993  0.0000E+00  0.6333E+00
     -8.850  0.0000E+00  0.6333E+00
     -8.707  0.0000E+00  0.6333E+00
     -8.564  0.0000E+00  0.6333E+00
     -8.422  0.0000E+00  0.6333E+00
     -8.279  0.0000E+00  0.6333E+00
     -8.136  0.0000E+00  0.6333E+00
     -7.994  0.0000E+00  0.6333E+00
     -7.851  0.0000E+00  0.6333E+00
     -7.708  0.0000E+00  0.6333E+00
     -7.565  0.0000E+00  0.6333E+00
     -7.423  0.0000E+00  0.6333E+00
     -7.280  0.0000E+00  0.6333E+00
     -7.137  0.0000E+00  0.6333E+00
     -6.995  0.0000E+00  0.6333E+00
     -6.852  0.4329E-32  0.6333E+00
     -6.709  0.9730E-23  0.6333E+00
     -6.567  0.3219E-15  0.6333E+00
     -6.424  0.1401E-09  0.6333E+00
     -6.281  0.5634E-06  0.6333E+00
     -6.138 -0.1003E-04  0.6333E+00
     -5.996  0.2532E-03  0.6334E+00
     -5.853  0.3524E-02  0.6339E+00
     -5.710  0.8673E-02  0.6351E+00
     -5.568  0.5915E-02  0.6360E+00
     -5.425  0.1477E-01  0.6381E+00
     -5.282  0.1687E-01  0.6405E+00
     -5.139  0.1479E-01  0.6426E+00
     -4.997  0.1533E-01  0.6448E+00
     -4.854  0.1849E-01  0.6474E+00
     -4.711  0.1696E-01  0.6498E+00
     -4.569  0.2727E-01  0.6537E+00
     -4.426  0.1686E-01  0.6561E+00
     -4.283  0.3002E-01  0.6604E+00
     -4.140  0.3314E-01  0.6651E+00
     -3.998  0.3832E-01  0.6706E+00
     -3.855  0.4195E-01  0.6766E+00
     -3.712  0.5020E-01  0.6838E+00
     -3.570  0.4986E-01  0.6909E+00
     -3.427  0.5569E-01  0.6988E+00
     -3.284  0.6390E-01  0.7079E+00
     -3.142  0.8309E-01  0.7198E+00
     -2.999  0.6360E-01  0.7289E+00
     -2.856  0.6319E-01  0.7379E+00
     -2.713  0.6433E-01  0.7471E+00
     -2.571  0.7868E-01  0.7583E+00
     -2.428  0.8680E-01  0.7707E+00
     -2.285  0.1369E+00  0.7902E+00
     -2.143  0.1399E+00  0.8102E+00
     -2.000  0.1030E+00  0.8249E+00
     -1.857  0.1020E+00  0.8394E+00
     -1.714  0.1051E+00  0.8544E+00
     -1.572  0.8211E-01  0.8661E+00
     -1.429  0.4759E-01  0.8729E+00
     -1.286  0.1177E+00  0.8897E+00
     -1.144  0.9707E-01  0.9036E+00
     -1.001  0.1328E+00  0.9225E+00
     -0.858  0.1245E+00  0.9403E+00
     -0.715  0.1548E+00  0.9624E+00
     -0.573  0.9442E-01  0.9759E+00
     -0.430  0.9935E-01  0.9900E+00
     -0.287  0.8862E-01  0.1003E+01
     -0.145  0.8036E-01  0.1014E+01
     -0.002  0.1292E+00  0.1033E+01
      0.141  0.6560E-01  0.1042E+01
      0.283  0.7125E-01  0.1052E+01
      0.426  0.8156E-01  0.1064E+01
      0.569  0.7870E-01  0.1075E+01
      0.712  0.4106E-01  0.1081E+01
      0.854  0.6273E-01  0.1090E+01
      0.997  0.7462E-01  0.1100E+01
      1.140  0.6575E-01  0.1110E+01
      1.282  0.3077E-01  0.1114E+01
      1.425  0.1878E-01  0.1117E+01
      1.568  0.2534E-01  0.1121E+01
      1.711  0.4059E-01  0.1126E+01
      1.853  0.2540E-01  0.1130E+01
      1.996  0.3541E-01  0.1135E+01
      2.139  0.2892E-01  0.1139E+01
      2.281  0.8232E-01  0.1151E+01
      2.424  0.8439E-01  0.1163E+01
      2.567  0.8395E-01  0.1175E+01
      2.709  0.8803E-01  0.1187E+01
      2.852  0.9606E-01  0.1201E+01
      2.995  0.1116E+00  0.1217E+01
      3.138  0.9860E-01  0.1231E+01
      3.280  0.9823E-01  0.1245E+01
      3.423  0.9318E-01  0.1258E+01
      3.566  0.7817E-01  0.1270E+01
      3.708  0.7811E-01  0.1281E+01
      3.851  0.1218E+00  0.1298E+01
      3.994  0.8744E-01  0.1311E+01
      4.137  0.8269E-01  0.1322E+01
      4.279  0.7518E-01  0.1333E+01
      4.422  0.6004E-01  0.1342E+01
      4.565  0.1105E+00  0.1358E+01
      4.707  0.1118E+00  0.1373E+01
      4.850  0.1155E+00  0.1390E+01
      4.993  0.1081E+00  0.1405E+01
      5.136  0.1135E+00  0.1422E+01
      5.278  0.8045E-01  0.1433E+01
      5.421  0.1171E+00  0.1450E+01
      5.564  0.9224E-01  0.1463E+01
      5.706  0.9085E-01  0.1476E+01
      5.849  0.9796E-01  0.1490E+01
      5.992  0.1408E+00  0.1510E+01
      6.134  0.1813E+00  0.1536E+01
      6.277  0.1424E+00  0.1556E+01
      6.420  0.1494E+00  0.1577E+01
      6.563  0.1466E+00  0.1598E+01
      6.705  0.1393E+00  0.1618E+01
      6.848  0.1486E+00  0.1639E+01
      6.991  0.1340E+00  0.1659E+01
      7.133  0.1253E+00  0.1676E+01
      7.276  0.1104E+00  0.1692E+01
      7.419  0.9205E-01  0.1705E+01
      7.562  0.5995E-01  0.1714E+01
      7.704  0.6053E-01  0.1723E+01
      7.847  0.4382E-01  0.1729E+01
      7.990  0.2671E-01  0.1733E+01
      8.132  0.5052E-02  0.1733E+01
      8.275 -0.1840E-03  0.1733E+01
      8.418  0.1344E-04  0.1733E+01
      8.561  0.1279E-07  0.1733E+01
      8.703  0.9762E-13  0.1733E+01
      8.846  0.0000E+00  0.1733E+01
      8.989  0.0000E+00  0.1733E+01
      9.131  0.0000E+00  0.1733E+01
      9.274  0.0000E+00  0.1733E+01
      9.417  0.0000E+00  0.1733E+01
      9.559  0.0000E+00  0.1733E+01
      9.702  0.0000E+00  0.1733E+01
      9.845  0.0000E+00  0.1733E+01
      9.988  0.0000E+00  0.1733E+01
