unknown system                          
           1
     7.011023    0.107316   -0.465378
    -1.029086    7.024276   -0.872986
    -2.276163   -4.488887    6.851990
   Sr   H    Sr   H    Nb   H    Sr   H    Sr   H 
   1   1   1   3   1   6   3   2   1   4
Direct configuration=     1
   0.17619068  0.86652470  0.94361856
   0.46988947  0.02635741  0.62125211
   0.10991506  0.74202449  0.31272633
   0.99250630  0.00617433  0.19087316
   0.58448418  0.03190063  0.17173949
   0.92091950  0.35918905  0.24766214
   0.15656711  0.36071964  0.42758573
   0.18339536  0.27641059  0.18688921
   0.06970219  0.62316926  0.56043013
   0.10820990  0.24184564  0.57163850
   0.78611834  0.58137347  0.74382192
   0.38935252  0.24178970  0.44169583
   0.42054426  0.18109227  0.97086513
   0.67636202  0.98558905  0.88852727
   0.73137919  0.10960242  0.52689813
   0.63522262  0.47784112  0.37564599
   0.36082405  0.61594205  0.48990327
   0.32595246  0.69115450  0.12633410
   0.49782498  0.45008607  0.89117324
   0.75013299  0.71207997  0.27677222
   0.35426636  0.61484646  0.73183069
   0.87562095  0.91565297  0.68867395
   0.82409451  0.36344321  0.93227191
unknown system                          
           1
     7.010136    0.108015   -0.465998
    -1.028249    7.021660   -0.874654
    -2.276837   -4.489044    6.853339
   Sr   H    Sr   H    Nb   H    Sr   H    Sr   H 
   1   1   1   3   1   6   3   2   1   4
Direct configuration=     2
   0.17619041  0.86649257  0.94363605
   0.47000950  0.02650031  0.62136032
   0.10998668  0.74221898  0.31280700
   0.99237650  0.00600750  0.19068478
   0.58458225  0.03163599  0.17161534
   0.92093399  0.35936546  0.24773595
   0.15657611  0.36025912  0.42749331
   0.18322490  0.27645585  0.18693512
   0.06955742  0.62309188  0.56053027
   0.10824111  0.24154181  0.57132377
   0.78601209  0.58138004  0.74373526
   0.38920670  0.24155893  0.44133262
   0.42057594  0.18114409  0.97090308
   0.67641163  0.98565339  0.88853213
   0.73133480  0.10972178  0.52698650
   0.63523292  0.47780384  0.37561058
   0.36081453  0.61606437  0.49000500
   0.32598539  0.69120927  0.12644891
   0.49796503  0.45037525  0.89142176
   0.75020250  0.71210188  0.27691268
   0.35423397  0.61478638  0.73169858
   0.87565411  0.91579615  0.68878195
   0.82416652  0.36364419  0.93233805
unknown system                          
           1
     7.007473    0.110111   -0.467860
    -1.025739    7.013810   -0.879658
    -2.278858   -4.489516    6.857383
   Sr   H    Sr   H    Nb   H    Sr   H    Sr   H 
   1   1   1   3   1   6   3   2   1   4
Direct configuration=     3
   0.17618960  0.86639613  0.94368849
   0.47036968  0.02692919  0.62168506
   0.11020163  0.74280273  0.31304918
   0.99198701  0.00550681  0.19011956
   0.58487644  0.03084164  0.17124276
   0.92097751  0.35989499  0.24795751
   0.15660302  0.35887680  0.42721568
   0.18271344  0.27659173  0.18707278
   0.06912302  0.62285957  0.56083052
   0.10833468  0.24062989  0.57037949
   0.78569329  0.58139979  0.74347532
   0.38876911  0.24086636  0.44024296
   0.42067101  0.18129963  0.97101697
   0.67656049  0.98584648  0.88854677
   0.73120163  0.11008005  0.52725163
   0.63526381  0.47769193  0.37550433
   0.36078601  0.61643150  0.49031023
   0.32608421  0.69137363  0.12679333
   0.49838530  0.45124319  0.89216749
   0.75041107  0.71216757  0.27733399
   0.35413677  0.61460607  0.73130227
   0.87575364  0.91622587  0.68910603
   0.82438263  0.36424746  0.93253664
unknown system                          
           1
     7.007266    0.110318   -0.468058
    -1.025496    7.013110   -0.880121
    -2.279085   -4.489573    6.857860
   Sr   H    Sr   H    Nb   H    Sr   H    Sr   H 
   1   1   1   3   1   6   3   2   1   4
Direct configuration=     4
   0.17618856  0.86638501  0.94369104
   0.47040151  0.02696866  0.62171501
   0.11022242  0.74285488  0.31307521
   0.99194535  0.00544087  0.19005787
   0.58490237  0.03076741  0.17120791
   0.92099463  0.35993953  0.24798619
   0.15658540  0.35884147  0.42719568
   0.18266755  0.27659685  0.18707902
   0.06908931  0.62281868  0.56084930
   0.10834062  0.24053504  0.57030204
   0.78566455  0.58140125  0.74345177
   0.38874127  0.24079525  0.44014341
   0.42067836  0.18131318  0.97102648
   0.67657351  0.98586069  0.88854594
   0.73119314  0.11011277  0.52727647
   0.63526703  0.47768498  0.37549703
   0.36077339  0.61644958  0.49033364
   0.32609398  0.69138773  0.12682456
   0.49842286  0.45132559  0.89223714
   0.75043054  0.71217505  0.27737320
   0.35413143  0.61458624  0.73126992
   0.87576354  0.91626496  0.68913470
   0.82440368  0.36430333  0.93255545
unknown system                          
           1
     7.006645    0.110940   -0.468653
    -1.024767    7.011013   -0.881511
    -2.279765   -4.489747    6.859290
   Sr   H    Sr   H    Nb   H    Sr   H    Sr   H 
   1   1   1   3   1   6   3   2   1   4
Direct configuration=     5
   0.17618543  0.86635165  0.94369871
   0.47049702  0.02708709  0.62180484
   0.11028479  0.74301136  0.31315331
   0.99182036  0.00524302  0.18987280
   0.58498015  0.03054469  0.17110336
   0.92104597  0.36007317  0.24807225
   0.15653254  0.35873547  0.42713568
   0.18252985  0.27661221  0.18709773
   0.06898817  0.62269598  0.56090562
   0.10835844  0.24025047  0.57006968
   0.78557832  0.58140566  0.74338113
   0.38865776  0.24058190  0.43984478
   0.42070039  0.18135383  0.97105503
   0.67661255  0.98590333  0.88854345
   0.73116768  0.11021095  0.52735099
   0.63527669  0.47766414  0.37547515
   0.36073551  0.61650383  0.49040387
   0.32612330  0.69143001  0.12691822
   0.49853555  0.45157283  0.89244608
   0.75048898  0.71219747  0.27749084
   0.35411541  0.61452675  0.73117289
   0.87579324  0.91638223  0.68922071
   0.82446685  0.36447097  0.93261189
