       N       E                     dE             d eps       ncg     rms          rms(c)
DAV:   1     0.120165762669E+03    0.12017E+03   -0.99890E+03 14968   0.675E+02
DAV:   2    -0.321221525412E+02   -0.15229E+03   -0.14451E+03 18464   0.268E+02
DAV:   3    -0.416134546433E+02   -0.94913E+01   -0.93631E+01 24176   0.525E+01
DAV:   4    -0.420908691240E+02   -0.47741E+00   -0.47609E+00 21832   0.988E+00
DAV:   5    -0.420976729705E+02   -0.68038E-02   -0.68031E-02 22840   0.106E+00    0.394E+01
DAV:   6    -0.393714378345E+02    0.27262E+01   -0.16063E+01 22008   0.240E+01    0.117E+01
DAV:   7    -0.391108326155E+02    0.26061E+00   -0.10234E+01 23808   0.206E+01    0.189E+01
DAV:   8    -0.378340624609E+02    0.12768E+01   -0.20969E+00 21568   0.945E+00    0.382E+00
DAV:   9    -0.378109813811E+02    0.23081E-01   -0.48389E-01 21960   0.322E+00    0.112E+00
DAV:  10    -0.378072525800E+02    0.37288E-02   -0.75626E-02 20720   0.126E+00    0.682E-01
DAV:  11    -0.378045495599E+02    0.27030E-02   -0.16161E-02 20560   0.502E-01    0.174E-01
DAV:  12    -0.378046137033E+02   -0.64143E-04   -0.76693E-04 18784   0.161E-01
   1 F= -.37804614E+02 E0= -.37804682E+02  d E =-.378046E+02
       N       E                     dE             d eps       ncg     rms          rms(c)
DAV:   1    -0.363940425082E+02    0.14105E+01   -0.47506E+02 14592   0.188E+02    0.981E+00
DAV:   2    -0.409594728126E+02   -0.45654E+01   -0.55229E+01 14704   0.431E+01    0.682E+00
DAV:   3    -0.408915857696E+02    0.67887E-01   -0.11375E+00 21472   0.705E+00    0.453E+00
DAV:   4    -0.408673597263E+02    0.24226E-01   -0.18414E-01 22568   0.248E+00    0.197E+00
DAV:   5    -0.408725697741E+02   -0.52100E-02   -0.38945E-02 25920   0.122E+00    0.830E-01
DAV:   6    -0.408709909213E+02    0.15789E-02   -0.13050E-02 21192   0.584E-01    0.292E-01
DAV:   7    -0.408709178101E+02    0.73111E-04   -0.10851E-03 18624   0.232E-01    0.608E-02
DAV:   8    -0.408709228548E+02   -0.50447E-05   -0.12547E-04 13696   0.704E-02
   2 F= -.40870923E+02 E0= -.40870931E+02  d E =-.306631E+01
       N       E                     dE             d eps       ncg     rms          rms(c)
DAV:   1    -0.408401607145E+02    0.30757E-01   -0.31923E+00 14824   0.155E+01    0.106E+00
DAV:   2    -0.408742690130E+02   -0.34108E-01   -0.43115E-01 15024   0.387E+00    0.501E-01
DAV:   3    -0.408732256572E+02    0.10434E-02   -0.16103E-02 20960   0.686E-01    0.379E-01
DAV:   4    -0.408725493947E+02    0.67626E-03   -0.35469E-03 21560   0.367E-01    0.187E-01
DAV:   5    -0.408724921172E+02    0.57277E-04   -0.70799E-04 21016   0.139E-01
   3 F= -.40872492E+02 E0= -.40872474E+02  d E =-.306788E+01
       N       E                     dE             d eps       ncg     rms          rms(c)
DAV:   1    -0.422317006050E+02   -0.13592E+01   -0.79307E+01 16016   0.730E+01    0.887E+00
DAV:   2    -0.423662290371E+02   -0.13453E+00   -0.93307E+00 17936   0.208E+01    0.471E+00
DAV:   3    -0.421725066171E+02    0.19372E+00   -0.90174E-01 25520   0.551E+00    0.199E+00
DAV:   4    -0.421162958166E+02    0.56211E-01   -0.22296E-01 25952   0.358E+00    0.146E+00
DAV:   5    -0.421139839516E+02    0.23119E-02   -0.30153E-02 21840   0.968E-01    0.954E-01
DAV:   6    -0.421164203976E+02   -0.24364E-02   -0.17958E-02 27904   0.675E-01    0.183E-01
DAV:   7    -0.421162670646E+02    0.15333E-03   -0.76053E-04 18568   0.170E-01    0.103E-01
DAV:   8    -0.421162551881E+02    0.11876E-04   -0.11004E-04 12576   0.839E-02
   4 F= -.42116255E+02 E0= -.42116253E+02  d E =-.124376E+01
       N       E                     dE             d eps       ncg     rms          rms(c)
DAV:   1    -0.428197580969E+02   -0.70349E+00   -0.12085E+02 17024   0.925E+01    0.125E+01
DAV:   2    -0.429382501201E+02   -0.11849E+00   -0.12855E+01 18080   0.244E+01    0.452E+00
DAV:   3    -0.427008932743E+02    0.23736E+00   -0.11935E+00 26576   0.634E+00    0.221E+00
DAV:   4    -0.426351973801E+02    0.65696E-01   -0.28567E-01 25704   0.419E+00    0.167E+00
DAV:   5    -0.426355274971E+02   -0.33012E-03   -0.30287E-02 21184   0.104E+00    0.117E+00
DAV:   6    -0.426396178064E+02   -0.40903E-02   -0.22416E-02 28480   0.751E-01    0.239E-01
DAV:   7    -0.426396835560E+02   -0.65750E-04   -0.53594E-04 18208   0.154E-01
   5 F= -.42639684E+02 E0= -.42639542E+02  d E =-.176719E+01
       N       E                     dE             d eps       ncg     rms          rms(c)
DAV:   1    -0.433403498237E+02   -0.70073E+00   -0.57113E+01 17024   0.621E+01    0.805E+00
DAV:   2    -0.433784489822E+02   -0.38099E-01   -0.46840E+00 18480   0.148E+01    0.373E+00
DAV:   3    -0.432836884508E+02    0.94761E-01   -0.41197E-01 24752   0.350E+00    0.139E+00
DAV:   4    -0.432706695273E+02    0.13019E-01   -0.10354E-01 25712   0.242E+00    0.131E+00
DAV:   5    -0.432720256502E+02   -0.13561E-02   -0.70429E-03 20824   0.586E-01    0.811E-01
DAV:   6    -0.432741233834E+02   -0.20977E-02   -0.84681E-03 25960   0.497E-01    0.195E-01
DAV:   7    -0.432740563452E+02    0.67038E-04   -0.35456E-04 18552   0.125E-01
   6 F= -.43274056E+02 E0= -.43273947E+02  d E =-.634373E+00
       N       E                     dE             d eps       ncg     rms          rms(c)
DAV:   1    -0.432794670004E+02   -0.53436E-02   -0.54227E-01 17080   0.620E+00    0.781E-01
DAV:   2    -0.432798040589E+02   -0.33706E-03   -0.44395E-02 18960   0.145E+00    0.391E-01
DAV:   3    -0.432789195989E+02    0.88446E-03   -0.41201E-03 24872   0.353E-01    0.151E-01
DAV:   4    -0.432788304715E+02    0.89127E-04   -0.86963E-04 22952   0.218E-01
   7 F= -.43278830E+02 E0= -.43278731E+02  d E =-.639147E+00
       N       E                     dE             d eps       ncg     rms          rms(c)
DAV:   1    -0.430218257661E+02    0.25709E+00   -0.94027E+01 17024   0.899E+01    0.636E+00
DAV:   2    -0.438375345570E+02   -0.81571E+00   -0.95071E+00 15792   0.188E+01    0.300E+00
DAV:   3    -0.438136861234E+02    0.23848E-01   -0.18136E-01 21488   0.334E+00    0.132E+00
DAV:   4    -0.438093645630E+02    0.43216E-02   -0.24490E-02 21080   0.990E-01    0.478E-01
DAV:   5    -0.438092274644E+02    0.13710E-03   -0.50111E-03 21832   0.543E-01    0.323E-01
DAV:   6    -0.438092932230E+02   -0.65759E-04   -0.56058E-04 19296   0.164E-01
   8 F= -.43809293E+02 E0= -.43809233E+02  d E =-.530463E+00
       N       E                     dE             d eps       ncg     rms          rms(c)
DAV:   1    -0.438088684797E+02    0.35898E-03   -0.42429E-01 17024   0.612E+00    0.387E-01
DAV:   2    -0.438123474469E+02   -0.34790E-02   -0.41616E-02 16120   0.126E+00    0.220E-01
DAV:   3    -0.438122638041E+02    0.83643E-04   -0.80876E-04 21184   0.211E-01
   9 F= -.43812264E+02 E0= -.43812212E+02  d E =-.533433E+00
       N       E                     dE             d eps       ncg     rms          rms(c)
DAV:   1    -0.436574961306E+02    0.15485E+00   -0.44919E+01 15816   0.625E+01    0.307E+00
DAV:   2    -0.440960719792E+02   -0.43858E+00   -0.57687E+00 15936   0.150E+01    0.157E+00
DAV:   3    -0.440870255331E+02    0.90464E-02   -0.11084E-01 20144   0.229E+00    0.105E+00
DAV:   4    -0.440818991769E+02    0.51264E-02   -0.21734E-02 24288   0.103E+00    0.515E-01
DAV:   5    -0.440819206819E+02   -0.21505E-04   -0.28894E-03 20504   0.331E-01    0.268E-01
DAV:   6    -0.440820237658E+02   -0.10308E-03   -0.63903E-04 23064   0.190E-01    0.531E-02
DAV:   7    -0.440820224566E+02    0.13092E-05   -0.51090E-05 12888   0.566E-02
  10 F= -.44082022E+02 E0= -.44082017E+02  d E =-.269759E+00
       N       E                     dE             d eps       ncg     rms          rms(c)
DAV:   1    -0.440813015981E+02    0.72217E-03   -0.22578E-01 17056   0.439E+00    0.216E-01
DAV:   2    -0.440833519132E+02   -0.20503E-02   -0.26954E-02 16480   0.101E+00    0.121E-01
DAV:   3    -0.440833056087E+02    0.46305E-04   -0.55105E-04 19560   0.160E-01
  11 F= -.44083306E+02 E0= -.44083304E+02  d E =-.271042E+00
       N       E                     dE             d eps       ncg     rms          rms(c)
DAV:   1    -0.444003541051E+02   -0.31700E+00   -0.21714E+01 14616   0.357E+01    0.390E+00
DAV:   2    -0.443535346845E+02    0.46819E-01   -0.16740E+00 19784   0.961E+00    0.174E+00
DAV:   3    -0.443091771040E+02    0.44358E-01   -0.11910E-01 20792   0.238E+00    0.122E+00
DAV:   4    -0.442994406233E+02    0.97365E-02   -0.37870E-02 23384   0.137E+00    0.713E-01
DAV:   5    -0.442996250249E+02   -0.18440E-03   -0.42296E-03 20632   0.396E-01    0.427E-01
DAV:   6    -0.442996520577E+02   -0.27033E-04   -0.14166E-03 23528   0.243E-01    0.636E-02
DAV:   7    -0.442996243464E+02    0.27711E-04   -0.16745E-04 14120   0.885E-02
  12 F= -.44299624E+02 E0= -.44299612E+02  d E =-.216319E+00
       N       E                     dE             d eps       ncg     rms          rms(c)
DAV:   1    -0.443226659600E+02   -0.23014E-01   -0.22010E+00 14680   0.113E+01    0.125E+00
DAV:   2    -0.443176294514E+02    0.50365E-02   -0.16455E-01 19624   0.300E+00    0.550E-01
DAV:   3    -0.443130665589E+02    0.45629E-02   -0.11459E-02 20752   0.740E-01    0.354E-01
DAV:   4    -0.443121651252E+02    0.90143E-03   -0.36296E-03 23920   0.431E-01    0.211E-01
DAV:   5    -0.443121788942E+02   -0.13769E-04   -0.36635E-04 17800   0.119E-01
  13 F= -.44312179E+02 E0= -.44312073E+02  d E =-.228873E+00
       N       E                     dE             d eps       ncg     rms          rms(c)
DAV:   1    -0.442059198720E+02    0.10625E+00   -0.29218E+01 16656   0.504E+01    0.417E+00
DAV:   2    -0.444701336303E+02   -0.26421E+00   -0.35883E+00 15600   0.114E+01    0.147E+00
DAV:   3    -0.444507748837E+02    0.19359E-01   -0.81218E-02 21864   0.201E+00    0.630E-01
DAV:   4    -0.444475622762E+02    0.32126E-02   -0.20760E-02 23544   0.101E+00    0.452E-01
DAV:   5    -0.444477034137E+02   -0.14114E-03   -0.16276E-03 19952   0.266E-01    0.280E-01
DAV:   6    -0.444478097632E+02   -0.10635E-03   -0.89355E-04 24872   0.184E-01    0.359E-02
DAV:   7    -0.444477910912E+02    0.18672E-04   -0.78149E-05 13600   0.657E-02
  14 F= -.44447791E+02 E0= -.44447822E+02  d E =-.135612E+00
       N       E                     dE             d eps       ncg     rms          rms(c)
DAV:   1    -0.444454417975E+02    0.23680E-02   -0.56228E-01 17024   0.704E+00    0.504E-01
DAV:   2    -0.444502597204E+02   -0.48179E-02   -0.67948E-02 15664   0.158E+00    0.214E-01
DAV:   3    -0.444499215182E+02    0.33820E-03   -0.15397E-03 21936   0.276E-01    0.976E-02
DAV:   4    -0.444498568306E+02    0.64688E-04   -0.35796E-04 16136   0.141E-01
  15 F= -.44449857E+02 E0= -.44449886E+02  d E =-.137678E+00
       N       E                     dE             d eps       ncg     rms          rms(c)
DAV:   1    -0.445372343989E+02   -0.87313E-01   -0.11709E+01 17024   0.279E+01    0.255E+00
DAV:   2    -0.445711234180E+02   -0.33889E-01   -0.87419E-01 19104   0.641E+00    0.101E+00
DAV:   3    -0.445620628100E+02    0.90606E-02   -0.38495E-02 23248   0.122E+00    0.536E-01
DAV:   4    -0.445603315401E+02    0.17313E-02   -0.95560E-03 26152   0.722E-01    0.385E-01
DAV:   5    -0.445604701977E+02   -0.13866E-03   -0.64820E-04 19232   0.174E-01    0.225E-01
DAV:   6    -0.445605724965E+02   -0.10230E-03   -0.43539E-04 22432   0.120E-01    0.331E-02
DAV:   7    -0.445605671695E+02    0.53270E-05   -0.34158E-05 10272   0.469E-02
  16 F= -.44560567E+02 E0= -.44560504E+02  d E =-.110710E+00
       N       E                     dE             d eps       ncg     rms          rms(c)
DAV:   1    -0.445670921273E+02   -0.65196E-02   -0.20234E+00 17024   0.117E+01    0.107E+00
DAV:   2    -0.445727960356E+02   -0.57039E-02   -0.15400E-01 19512   0.270E+00    0.423E-01
DAV:   3    -0.445712782224E+02    0.15178E-02   -0.68720E-03 23472   0.524E-01    0.236E-01
DAV:   4    -0.445709599365E+02    0.31829E-03   -0.16772E-03 26264   0.295E-01    0.160E-01
DAV:   5    -0.445709870324E+02   -0.27096E-04   -0.10184E-04 13256   0.701E-02
  17 F= -.44570987E+02 E0= -.44570963E+02  d E =-.121130E+00
       N       E                     dE             d eps       ncg     rms          rms(c)
DAV:   1    -0.445701824798E+02    0.77746E-03   -0.10943E+01 16920   0.275E+01    0.134E+00
DAV:   2    -0.446485300999E+02   -0.78348E-01   -0.10005E+00 17232   0.593E+00    0.760E-01
DAV:   3    -0.446456868988E+02    0.28432E-02   -0.17449E-02 20688   0.910E-01    0.417E-01
DAV:   4    -0.446442859124E+02    0.14010E-02   -0.50054E-03 20656   0.506E-01    0.862E-02
DAV:   5    -0.446443173838E+02   -0.31471E-04   -0.60763E-04 18496   0.176E-01
  18 F= -.44644317E+02 E0= -.44644292E+02  d E =-.733304E-01
       N       E                     dE             d eps       ncg     rms          rms(c)
DAV:   1    -0.446443014342E+02   -0.15522E-04   -0.21651E-02 17904   0.125E+00    0.617E-02
DAV:   2    -0.446444771631E+02   -0.17573E-03   -0.20993E-03 17976   0.272E-01    0.344E-02
DAV:   3    -0.446444708062E+02    0.63569E-05   -0.28204E-05 13192   0.426E-02
  19 F= -.44644471E+02 E0= -.44644444E+02  d E =-.734838E-01
       N       E                     dE             d eps       ncg     rms          rms(c)
DAV:   1    -0.447030383202E+02   -0.58561E-01   -0.25973E+00 14624   0.127E+01    0.155E+00
DAV:   2    -0.447018850278E+02    0.11533E-02   -0.20037E-01 19912   0.346E+00    0.598E-01
DAV:   3    -0.446978295304E+02    0.40555E-02   -0.11634E-02 19800   0.707E-01    0.338E-01
DAV:   4    -0.446968863695E+02    0.94316E-03   -0.47996E-03 26640   0.450E-01    0.337E-01
DAV:   5    -0.446969698881E+02   -0.83519E-04   -0.21339E-04 15864   0.977E-02
  20 F= -.44696970E+02 E0= -.44696925E+02  d E =-.524991E-01
       N       E                     dE             d eps       ncg     rms          rms(c)
DAV:   1    -0.447148172761E+02   -0.17931E-01   -0.45233E+00 14640   0.167E+01    0.198E+00
DAV:   2    -0.447118405970E+02    0.29767E-02   -0.34388E-01 19880   0.453E+00    0.808E-01
DAV:   3    -0.447046962841E+02    0.71443E-02   -0.20263E-02 19704   0.925E-01    0.438E-01
DAV:   4    -0.447030212361E+02    0.16750E-02   -0.85671E-03 26648   0.595E-01    0.444E-01
DAV:   5    -0.447031848478E+02   -0.16361E-03   -0.38571E-04 16984   0.130E-01    0.280E-01
DAV:   6    -0.447032388302E+02   -0.53982E-04   -0.69195E-04 24896   0.154E-01
  21 F= -.44703239E+02 E0= -.44703228E+02  d E =-.587680E-01
       N       E                     dE             d eps       ncg     rms          rms(c)
DAV:   1    -0.447110937526E+02   -0.79089E-02   -0.71546E-01 14656   0.661E+00    0.830E-01
DAV:   2    -0.447108469956E+02    0.24676E-03   -0.55037E-02 19808   0.178E+00    0.305E-01
DAV:   3    -0.447097318865E+02    0.11151E-02   -0.30015E-03 19584   0.358E-01    0.163E-01
DAV:   4    -0.447094713620E+02    0.26052E-03   -0.13592E-03 26616   0.241E-01    0.167E-01
DAV:   5    -0.447094946897E+02   -0.23328E-04   -0.51057E-05 11768   0.505E-02
  22 F= -.44709495E+02 E0= -.44709467E+02  d E =-.650239E-01
       N       E                     dE             d eps       ncg     rms          rms(c)
DAV:   1    -0.447156147460E+02   -0.61434E-02   -0.47967E+00 17024   0.201E+01    0.152E+00
DAV:   2    -0.447506607125E+02   -0.35046E-01   -0.51585E-01 15480   0.443E+00    0.899E-01
DAV:   3    -0.447479259133E+02    0.27348E-02   -0.12769E-02 22952   0.800E-01    0.413E-01
DAV:   4    -0.447476377585E+02    0.28815E-03   -0.31185E-03 23064   0.386E-01    0.195E-01
DAV:   5    -0.447476449307E+02   -0.71722E-05   -0.29695E-04 18736   0.131E-01
  23 F= -.44747645E+02 E0= -.44747612E+02  d E =-.381502E-01
       N       E                     dE             d eps       ncg     rms          rms(c)
DAV:   1    -0.447464289591E+02    0.12088E-02   -0.59305E-01 17024   0.706E+00    0.546E-01
DAV:   2    -0.447507680882E+02   -0.43391E-02   -0.63633E-02 15848   0.155E+00    0.303E-01
DAV:   3    -0.447504094670E+02    0.35862E-03   -0.15937E-03 22912   0.281E-01    0.129E-01
DAV:   4    -0.447503771302E+02    0.32337E-04   -0.37412E-04 18672   0.136E-01
  24 F= -.44750377E+02 E0= -.44750339E+02  d E =-.408824E-01
       N       E                     dE             d eps       ncg     rms          rms(c)
DAV:   1    -0.448014087442E+02   -0.50999E-01   -0.30518E+00 14592   0.128E+01    0.147E+00
DAV:   2    -0.447986004862E+02    0.28083E-02   -0.16657E-01 20720   0.320E+00    0.540E-01
DAV:   3    -0.447953175162E+02    0.32830E-02   -0.10158E-02 20712   0.691E-01    0.333E-01
DAV:   4    -0.447946591330E+02    0.65838E-03   -0.34859E-03 26616   0.403E-01    0.237E-01
DAV:   5    -0.447947155013E+02   -0.56368E-04   -0.18770E-04 15832   0.909E-02
  25 F= -.44794716E+02 E0= -.44794648E+02  d E =-.443384E-01
       N       E                     dE             d eps       ncg     rms          rms(c)
DAV:   1    -0.448486421973E+02   -0.53983E-01   -0.11028E+01 14592   0.245E+01    0.300E+00
DAV:   2    -0.448382338301E+02    0.10408E-01   -0.60573E-01 20696   0.616E+00    0.983E-01
DAV:   3    -0.448265848444E+02    0.11649E-01   -0.35804E-02 20472   0.130E+00    0.617E-01
DAV:   4    -0.448244095875E+02    0.21753E-02   -0.12898E-02 26840   0.766E-01    0.459E-01
DAV:   5    -0.448246187154E+02   -0.20913E-03   -0.68565E-04 18600   0.173E-01    0.256E-01
DAV:   6    -0.448247464778E+02   -0.12776E-03   -0.54716E-04 23424   0.148E-01    0.429E-02
DAV:   7    -0.448247401286E+02    0.63491E-05   -0.43669E-05 11096   0.529E-02
  26 F= -.44824740E+02 E0= -.44824609E+02  d E =-.743630E-01
       N       E                     dE             d eps       ncg     rms          rms(c)
DAV:   1    -0.448509618863E+02   -0.26215E-01   -0.52908E+00 16120   0.185E+01    0.998E-01
DAV:   2    -0.448698244728E+02   -0.18863E-01   -0.34270E-01 18816   0.381E+00    0.574E-01
DAV:   3    -0.448664811991E+02    0.33433E-02   -0.93649E-03 20832   0.707E-01    0.290E-01
DAV:   4    -0.448657931298E+02    0.68807E-03   -0.32790E-03 21448   0.381E-01    0.109E-01
DAV:   5    -0.448658069032E+02   -0.13773E-04   -0.39222E-04 16912   0.138E-01
  27 F= -.44865807E+02 E0= -.44865666E+02  d E =-.410668E-01
       N       E                     dE             d eps       ncg     rms          rms(c)
DAV:   1    -0.448643397972E+02    0.14533E-02   -0.58176E+00 16176   0.193E+01    0.104E+00
DAV:   2    -0.448850296149E+02   -0.20690E-01   -0.37612E-01 18776   0.399E+00    0.610E-01
DAV:   3    -0.448813750507E+02    0.36546E-02   -0.10257E-02 20992   0.741E-01    0.306E-01
DAV:   4    -0.448806382540E+02    0.73680E-03   -0.35032E-03 21584   0.394E-01    0.113E-01
DAV:   5    -0.448806546112E+02   -0.16357E-04   -0.41817E-04 17080   0.142E-01
  28 F= -.44880655E+02 E0= -.44880553E+02  d E =-.559145E-01
       N       E                     dE             d eps       ncg     rms          rms(c)
DAV:   1    -0.449055178239E+02   -0.24880E-01   -0.14663E+00 15808   0.925E+00    0.481E-01
DAV:   2    -0.449099208664E+02   -0.44030E-02   -0.81569E-02 19032   0.187E+00    0.288E-01
DAV:   3    -0.449096159973E+02    0.30487E-03   -0.23005E-03 21184   0.330E-01    0.164E-01
DAV:   4    -0.449094919902E+02    0.12401E-03   -0.53167E-04 21776   0.159E-01    0.792E-02
DAV:   5    -0.449094971167E+02   -0.51264E-05   -0.45006E-05 11592   0.469E-02
  29 F= -.44909497E+02 E0= -.44909404E+02  d E =-.288425E-01
       N       E                     dE             d eps       ncg     rms          rms(c)
DAV:   1    -0.449153825353E+02   -0.58905E-02   -0.13133E+01 15808   0.277E+01    0.143E+00
DAV:   2    -0.449564172326E+02   -0.41035E-01   -0.74083E-01 19072   0.560E+00    0.883E-01
DAV:   3    -0.449535067998E+02    0.29104E-02   -0.20855E-02 21368   0.999E-01    0.486E-01
DAV:   4    -0.449523574832E+02    0.11493E-02   -0.46528E-03 25880   0.459E-01    0.230E-01
DAV:   5    -0.449524034982E+02   -0.46015E-04   -0.32566E-04 17216   0.112E-01
  30 F= -.44952403E+02 E0= -.44952303E+02  d E =-.717489E-01
       N       E                     dE             d eps       ncg     rms          rms(c)
DAV:   1    -0.449646437378E+02   -0.12286E-01   -0.16131E+00 17024   0.115E+01    0.403E-01
DAV:   2    -0.449787721864E+02   -0.14128E-01   -0.16240E-01 15320   0.224E+00    0.188E-01
DAV:   3    -0.449789079868E+02   -0.13580E-03   -0.26545E-03 22840   0.326E-01    0.113E-01
DAV:   4    -0.449788730700E+02    0.34917E-04   -0.24156E-04 15304   0.135E-01
  31 F= -.44978873E+02 E0= -.44978797E+02  d E =-.264696E-01
       N       E                     dE             d eps       ncg     rms          rms(c)
DAV:   1    -0.449021615307E+02    0.76746E-01   -0.10753E+01 16400   0.298E+01    0.112E+00
DAV:   2    -0.450067370137E+02   -0.10458E+00   -0.11976E+00 15120   0.603E+00    0.514E-01
DAV:   3    -0.450078217902E+02   -0.10848E-02   -0.19276E-02 22544   0.857E-01    0.316E-01
DAV:   4    -0.450075877857E+02    0.23400E-03   -0.19627E-03 20568   0.370E-01    0.689E-02
DAV:   5    -0.450076169859E+02   -0.29200E-04   -0.32173E-04 19016   0.120E-01
  32 F= -.45007617E+02 E0= -.45007632E+02  d E =-.552135E-01
       N       E                     dE             d eps       ncg     rms          rms(c)
DAV:   1    -0.450260090387E+02   -0.18421E-01   -0.75535E-01 17048   0.709E+00    0.329E-01
DAV:   2    -0.450296634788E+02   -0.36544E-02   -0.49481E-02 18096   0.140E+00    0.184E-01
DAV:   3    -0.450295036895E+02    0.15979E-03   -0.10124E-03 21872   0.229E-01    0.101E-01
DAV:   4    -0.450294260968E+02    0.77593E-04   -0.19850E-04 15208   0.119E-01
  33 F= -.45029426E+02 E0= -.45029450E+02  d E =-.218091E-01
       N       E                     dE             d eps       ncg     rms          rms(c)
DAV:   1    -0.450405866687E+02   -0.11083E-01   -0.67791E+00 17024   0.212E+01    0.101E+00
DAV:   2    -0.450731996058E+02   -0.32613E-01   -0.43886E-01 18008   0.420E+00    0.538E-01
DAV:   3    -0.450717254540E+02    0.14742E-02   -0.90150E-03 21424   0.675E-01    0.304E-01
DAV:   4    -0.450710456715E+02    0.67978E-03   -0.22714E-03 23744   0.359E-01    0.120E-01
DAV:   5    -0.450710840002E+02   -0.38329E-04   -0.35274E-04 17064   0.117E-01
  34 F= -.45071084E+02 E0= -.45071103E+02  d E =-.634670E-01
       N       E                     dE             d eps       ncg     rms          rms(c)
DAV:   1    -0.449174521721E+02    0.15359E+00   -0.26854E+01 16944   0.422E+01    0.212E+00
DAV:   2    -0.450470380611E+02   -0.12959E+00   -0.17390E+00 17768   0.844E+00    0.105E+00
DAV:   3    -0.450408778084E+02    0.61603E-02   -0.36282E-02 20736   0.133E+00    0.616E-01
DAV:   4    -0.450380294628E+02    0.28483E-02   -0.99125E-03 24136   0.737E-01    0.254E-01
DAV:   5    -0.450381775228E+02   -0.14806E-03   -0.14524E-03 17672   0.239E-01    0.145E-01
DAV:   6    -0.450382072701E+02   -0.29747E-04   -0.14207E-04 14976   0.926E-02
  35 F= -.45038207E+02 E0= -.45038222E+02  d E =-.305903E-01
       N       E                     dE             d eps       ncg     rms          rms(c)
DAV:   1    -0.450164407266E+02    0.21737E-01   -0.13899E+01 16880   0.304E+01    0.134E+00
DAV:   2    -0.450829897676E+02   -0.66549E-01   -0.92451E-01 17944   0.611E+00    0.767E-01
DAV:   3    -0.450799529074E+02    0.30369E-02   -0.18978E-02 21928   0.101E+00    0.425E-01
DAV:   4    -0.450783935649E+02    0.15593E-02   -0.47788E-03 23296   0.501E-01    0.157E-01
DAV:   5    -0.450784509158E+02   -0.57351E-04   -0.65681E-04 18024   0.158E-01
  36 F= -.45078451E+02 E0= -.45078463E+02  d E =-.708339E-01
       N       E                     dE             d eps       ncg     rms          rms(c)
DAV:   1    -0.451022182606E+02   -0.23825E-01   -0.20560E+00 17024   0.118E+01    0.113E+00
DAV:   2    -0.451106656521E+02   -0.84474E-02   -0.16502E-01 18840   0.271E+00    0.403E-01
DAV:   3    -0.451092178707E+02    0.14478E-02   -0.51374E-03 24040   0.475E-01    0.204E-01
DAV:   4    -0.451089112567E+02    0.30661E-03   -0.14254E-03 26104   0.260E-01    0.141E-01
DAV:   5    -0.451089363244E+02   -0.25068E-04   -0.12913E-04 13184   0.745E-02
  37 F= -.45108936E+02 E0= -.45108946E+02  d E =-.304854E-01
       N       E                     dE             d eps       ncg     rms          rms(c)
DAV:   1    -0.451092347507E+02   -0.32349E-03   -0.46887E+00 17024   0.179E+01    0.174E+00
DAV:   2    -0.451282232699E+02   -0.18989E-01   -0.37686E-01 18984   0.410E+00    0.602E-01
DAV:   3    -0.451248193988E+02    0.34039E-02   -0.11842E-02 23968   0.722E-01    0.300E-01
DAV:   4    -0.451241518796E+02    0.66752E-03   -0.33605E-03 26224   0.395E-01    0.215E-01
DAV:   5    -0.451242106714E+02   -0.58792E-04   -0.32348E-04 17000   0.113E-01
  38 F= -.45124211E+02 E0= -.45124230E+02  d E =-.457598E-01
       N       E                     dE             d eps       ncg     rms          rms(c)
DAV:   1    -0.451467758440E+02   -0.22624E-01   -0.17174E+00 14592   0.816E+00    0.589E-01
DAV:   2    -0.451477755844E+02   -0.99974E-03   -0.50247E-02 19472   0.175E+00    0.429E-01
DAV:   3    -0.451468724702E+02    0.90311E-03   -0.19843E-03 21264   0.298E-01    0.214E-01
DAV:   4    -0.451466139839E+02    0.25849E-03   -0.78469E-04 19560   0.197E-01    0.427E-02
DAV:   5    -0.451466198830E+02   -0.58991E-05   -0.78310E-05 10808   0.652E-02
  39 F= -.45146620E+02 E0= -.45146654E+02  d E =-.224092E-01
       N       E                     dE             d eps       ncg     rms          rms(c)
DAV:   1    -0.451527564879E+02   -0.61425E-02   -0.10965E+00 14592   0.652E+00    0.470E-01
DAV:   2    -0.451534392229E+02   -0.68273E-03   -0.32027E-02 19480   0.139E+00    0.340E-01
DAV:   3    -0.451528764133E+02    0.56281E-03   -0.12534E-03 21016   0.237E-01    0.168E-01
DAV:   4    -0.451527153352E+02    0.16108E-03   -0.49270E-04 19456   0.156E-01    0.337E-02
DAV:   5    -0.451527190441E+02   -0.37089E-05   -0.48200E-05 10096   0.513E-02
  40 F= -.45152719E+02 E0= -.45152754E+02  d E =-.285084E-01
       N       E                     dE             d eps       ncg     rms          rms(c)
DAV:   1    -0.451595872957E+02   -0.68720E-02   -0.25234E+00 17024   0.134E+01    0.480E-01
DAV:   2    -0.451780330974E+02   -0.18446E-01   -0.21568E-01 15408   0.261E+00    0.247E-01
DAV:   3    -0.451779363907E+02    0.96707E-04   -0.36320E-03 22760   0.395E-01    0.137E-01
DAV:   4    -0.451778201202E+02    0.11627E-03   -0.62094E-04 16712   0.175E-01    0.308E-02
DAV:   5    -0.451778258222E+02   -0.57020E-05   -0.96145E-05 14232   0.761E-02
  41 F= -.45177826E+02 E0= -.45177850E+02  d E =-.251068E-01
       N       E                     dE             d eps       ncg     rms          rms(c)
DAV:   1    -0.451607903109E+02    0.17030E-01   -0.38991E+00 17024   0.167E+01    0.601E-01
DAV:   2    -0.451893414215E+02   -0.28551E-01   -0.33409E-01 15336   0.325E+00    0.307E-01
DAV:   3    -0.451891767273E+02    0.16469E-03   -0.55899E-03 22688   0.490E-01    0.171E-01
DAV:   4    -0.451889988575E+02    0.17787E-03   -0.10122E-03 18520   0.220E-01    0.369E-02
DAV:   5    -0.451890066240E+02   -0.77664E-05   -0.14648E-04 15944   0.857E-02
  42 F= -.45189007E+02 E0= -.45189014E+02  d E =-.362876E-01
       N       E                     dE             d eps       ncg     rms          rms(c)
DAV:   1    -0.451984116046E+02   -0.94127E-02   -0.22365E+00 16776   0.118E+01    0.475E-01
DAV:   2    -0.452091736176E+02   -0.10762E-01   -0.13177E-01 18272   0.239E+00    0.314E-01
DAV:   3    -0.452089673047E+02    0.20631E-03   -0.26215E-03 20488   0.339E-01    0.194E-01
DAV:   4    -0.452088700773E+02    0.97227E-04   -0.76633E-04 19176   0.191E-01
  43 F= -.45208870E+02 E0= -.45208860E+02  d E =-.198635E-01
       N       E                     dE             d eps       ncg     rms          rms(c)
DAV:   1    -0.452057200090E+02    0.32473E-02   -0.19520E+00 16888   0.110E+01    0.440E-01
DAV:   2    -0.452150058170E+02   -0.92858E-02   -0.11367E-01 18024   0.222E+00    0.293E-01
DAV:   3    -0.452148289977E+02    0.17682E-03   -0.22475E-03 20712   0.314E-01    0.182E-01
DAV:   4    -0.452147509907E+02    0.78007E-04   -0.66267E-04 18576   0.176E-01
  44 F= -.45214751E+02 E0= -.45214705E+02  d E =-.257444E-01
       N       E                     dE             d eps       ncg     rms          rms(c)
DAV:   1    -0.452321146735E+02   -0.17286E-01   -0.17565E+00 14592   0.924E+00    0.806E-01
DAV:   2    -0.452344194284E+02   -0.23048E-02   -0.76519E-02 19632   0.220E+00    0.313E-01
DAV:   3    -0.452339222622E+02    0.49717E-03   -0.33040E-03 21064   0.368E-01    0.189E-01
DAV:   4    -0.452338593391E+02    0.62923E-04   -0.82526E-04 25008   0.190E-01
  45 F= -.45233859E+02 E0= -.45233778E+02  d E =-.191083E-01
       N       E                     dE             d eps       ncg     rms          rms(c)
DAV:   1    -0.452397914682E+02   -0.58692E-02   -0.58374E+00 14592   0.169E+01    0.155E+00
DAV:   2    -0.452467541979E+02   -0.69627E-02   -0.25513E-01 19624   0.403E+00    0.587E-01
DAV:   3    -0.452449666685E+02    0.17875E-02   -0.11332E-02 21840   0.680E-01    0.358E-01
DAV:   4    -0.452447899329E+02    0.17674E-03   -0.28989E-03 26480   0.359E-01    0.283E-01
DAV:   5    -0.452448900490E+02   -0.10012E-03   -0.15813E-04 14712   0.859E-02    0.135E-01
DAV:   6    -0.452449381512E+02   -0.48102E-04   -0.18344E-04 17848   0.936E-02
  46 F= -.45244938E+02 E0= -.45244776E+02  d E =-.301872E-01
       N       E                     dE             d eps       ncg     rms          rms(c)
DAV:   1    -0.452486794819E+02   -0.37894E-02   -0.18398E+00 17024   0.116E+01    0.569E-01
DAV:   2    -0.452596019874E+02   -0.10923E-01   -0.14663E-01 16816   0.244E+00    0.288E-01
DAV:   3    -0.452592769415E+02    0.32505E-03   -0.26109E-03 21288   0.378E-01    0.165E-01
DAV:   4    -0.452591496341E+02    0.12731E-03   -0.56932E-04 18144   0.184E-01    0.451E-02
DAV:   5    -0.452591535525E+02   -0.39184E-05   -0.86889E-05 13400   0.723E-02
  47 F= -.45259154E+02 E0= -.45258985E+02  d E =-.142154E-01
       N       E                     dE             d eps       ncg     rms          rms(c)
DAV:   1    -0.452538845091E+02    0.52651E-02   -0.16077E+00 17008   0.108E+01    0.528E-01
DAV:   2    -0.452635274979E+02   -0.96430E-02   -0.12837E-01 16848   0.228E+00    0.270E-01
DAV:   3    -0.452632581253E+02    0.26937E-03   -0.22188E-03 21368   0.349E-01    0.155E-01
DAV:   4    -0.452631501747E+02    0.10795E-03   -0.48106E-04 18112   0.170E-01    0.430E-02
DAV:   5    -0.452631532317E+02   -0.30570E-05   -0.73821E-05 12808   0.670E-02
  48 F= -.45263153E+02 E0= -.45262991E+02  d E =-.182151E-01
       N       E                     dE             d eps       ncg     rms          rms(c)
DAV:   1    -0.452740395394E+02   -0.10889E-01   -0.12736E+00 17024   0.911E+00    0.697E-01
DAV:   2    -0.452788312446E+02   -0.47917E-02   -0.10298E-01 18496   0.212E+00    0.289E-01
DAV:   3    -0.452780471775E+02    0.78407E-03   -0.30906E-03 23264   0.376E-01    0.167E-01
DAV:   4    -0.452778039938E+02    0.24318E-03   -0.80591E-04 24632   0.202E-01    0.108E-01
DAV:   5    -0.452778114571E+02   -0.74633E-05   -0.72285E-05 11432   0.586E-02
  49 F= -.45277811E+02 E0= -.45277673E+02  d E =-.146582E-01
       N       E                     dE             d eps       ncg     rms          rms(c)
DAV:   1    -0.452786143890E+02   -0.81040E-03   -0.29876E-01 17016   0.440E+00    0.341E-01
DAV:   2    -0.452797375066E+02   -0.11231E-02   -0.24148E-02 18504   0.103E+00    0.143E-01
DAV:   3    -0.452795479322E+02    0.18957E-03   -0.72075E-04 21968   0.182E-01    0.812E-02
DAV:   4    -0.452794861821E+02    0.61750E-04   -0.15559E-04 14056   0.101E-01
  50 F= -.45279486E+02 E0= -.45279361E+02  d E =-.163330E-01
       N       E                     dE             d eps       ncg     rms          rms(c)
DAV:   1    -0.452861668567E+02   -0.66189E-02   -0.10537E+00 17024   0.887E+00    0.443E-01
DAV:   2    -0.452926287554E+02   -0.64619E-02   -0.90190E-02 16064   0.187E+00    0.229E-01
DAV:   3    -0.452922751350E+02    0.35362E-03   -0.15776E-03 21576   0.280E-01    0.131E-01
DAV:   4    -0.452921257218E+02    0.14941E-03   -0.42124E-04 17904   0.165E-01    0.353E-02
DAV:   5    -0.452921292171E+02   -0.34953E-05   -0.55512E-05 11944   0.583E-02
  51 F= -.45292129E+02 E0= -.45292018E+02  d E =-.126430E-01
       N       E                     dE             d eps       ncg     rms          rms(c)
DAV:   1    -0.452901020119E+02    0.20237E-02   -0.11413E+00 17024   0.924E+00    0.450E-01
DAV:   2    -0.452971911693E+02   -0.70892E-02   -0.97779E-02 16072   0.195E+00    0.235E-01
DAV:   3    -0.452968342504E+02    0.35692E-03   -0.16726E-03 21640   0.288E-01    0.134E-01
DAV:   4    -0.452966713550E+02    0.16290E-03   -0.43850E-04 17912   0.170E-01    0.353E-02
DAV:   5    -0.452966750769E+02   -0.37218E-05   -0.58115E-05 11968   0.595E-02
  52 F= -.45296675E+02 E0= -.45296579E+02  d E =-.171889E-01
       N       E                     dE             d eps       ncg     rms          rms(c)
DAV:   1    -0.453044535936E+02   -0.77822E-02   -0.51689E-01 14592   0.524E+00    0.599E-01
DAV:   2    -0.453048775879E+02   -0.42399E-03   -0.28272E-02 20304   0.134E+00    0.194E-01
DAV:   3    -0.453044468218E+02    0.43077E-03   -0.12883E-03 20368   0.239E-01    0.116E-01
DAV:   4    -0.453043757909E+02    0.71031E-04   -0.46434E-04 22976   0.137E-01
  53 F= -.45304376E+02 E0= -.45304286E+02  d E =-.770071E-02
       N       E                     dE             d eps       ncg     rms          rms(c)
DAV:   1    -0.453080782626E+02   -0.36314E-02   -0.87363E-01 14592   0.682E+00    0.789E-01
DAV:   2    -0.453086775888E+02   -0.59933E-03   -0.48016E-02 20264   0.175E+00    0.254E-01
DAV:   3    -0.453079212180E+02    0.75637E-03   -0.22870E-03 21304   0.315E-01    0.160E-01
DAV:   4    -0.453078145044E+02    0.10671E-03   -0.81528E-04 24864   0.182E-01    0.132E-01
DAV:   5    -0.453078373718E+02   -0.22867E-04   -0.55087E-05 10976   0.516E-02
  54 F= -.45307837E+02 E0= -.45307757E+02  d E =-.111623E-01
       N       E                     dE             d eps       ncg     rms          rms(c)
DAV:   1    -0.453086291358E+02   -0.81463E-03   -0.80034E-01 17024   0.792E+00    0.360E-01
DAV:   2    -0.453138132252E+02   -0.51841E-02   -0.70726E-02 16064   0.169E+00    0.195E-01
DAV:   3    -0.453136140560E+02    0.19917E-03   -0.12687E-03 20760   0.253E-01    0.116E-01
DAV:   4    -0.453135112897E+02    0.10277E-03   -0.28885E-04 16256   0.138E-01    0.383E-02
DAV:   5    -0.453135169185E+02   -0.56288E-05   -0.54502E-05 11056   0.633E-02
  55 F= -.45313517E+02 E0= -.45313433E+02  d E =-.567955E-02
       N       E                     dE             d eps       ncg     rms          rms(c)
DAV:   1    -0.453129204158E+02    0.59087E-03   -0.21543E-01 17024   0.411E+00    0.184E-01
DAV:   2    -0.453143376507E+02   -0.14172E-02   -0.19113E-02 16072   0.878E-01    0.101E-01
DAV:   3    -0.453142854747E+02    0.52176E-04   -0.32661E-04 18856   0.132E-01
  56 F= -.45314285E+02 E0= -.45314201E+02  d E =-.644810E-02
       N       E                     dE             d eps       ncg     rms          rms(c)
DAV:   1    -0.453194884271E+02   -0.51508E-02   -0.52977E-01 14592   0.528E+00    0.440E-01
DAV:   2    -0.453202798784E+02   -0.79145E-03   -0.28272E-02 20472   0.126E+00    0.191E-01
DAV:   3    -0.453199174117E+02    0.36247E-03   -0.96233E-04 22080   0.215E-01    0.100E-01
DAV:   4    -0.453197846546E+02    0.13276E-03   -0.29095E-04 18488   0.135E-01    0.540E-02
DAV:   5    -0.453197860345E+02   -0.13798E-05   -0.41851E-05  9944   0.492E-02
  57 F= -.45319786E+02 E0= -.45319702E+02  d E =-.550056E-02
       N       E                     dE             d eps       ncg     rms          rms(c)
DAV:   1    -0.453218808216E+02   -0.20962E-02   -0.87792E-01 14608   0.678E+00    0.549E-01
DAV:   2    -0.453232109606E+02   -0.13301E-02   -0.46442E-02 20496   0.161E+00    0.242E-01
DAV:   3    -0.453226313637E+02    0.57960E-03   -0.15690E-03 22192   0.273E-01    0.128E-01
DAV:   4    -0.453224184169E+02    0.21295E-03   -0.47266E-04 19352   0.170E-01    0.683E-02
DAV:   5    -0.453224200833E+02   -0.16664E-05   -0.62975E-05 10656   0.575E-02
  58 F= -.45322420E+02 E0= -.45322334E+02  d E =-.813461E-02
       N       E                     dE             d eps       ncg     rms          rms(c)
DAV:   1    -0.453250172355E+02   -0.25988E-02   -0.65140E-01 17024   0.664E+00    0.550E-01
DAV:   2    -0.453270726120E+02   -0.20554E-02   -0.48510E-02 17960   0.148E+00    0.220E-01
DAV:   3    -0.453265878606E+02    0.48475E-03   -0.15953E-03 24344   0.274E-01    0.125E-01
DAV:   4    -0.453264602406E+02    0.12762E-03   -0.38227E-04 18984   0.143E-01    0.694E-02
DAV:   5    -0.453264637748E+02   -0.35342E-05   -0.46060E-05 10208   0.481E-02
  59 F= -.45326464E+02 E0= -.45326376E+02  d E =-.404369E-02
       N       E                     dE             d eps       ncg     rms          rms(c)
DAV:   1    -0.453265448097E+02   -0.84569E-04   -0.10974E-01 17024   0.272E+00    0.227E-01
DAV:   2    -0.453268972315E+02   -0.35242E-03   -0.81836E-03 18192   0.609E-01    0.912E-02
DAV:   3    -0.453268108516E+02    0.86380E-04   -0.22677E-04 16776   0.112E-01
  60 F= -.45326811E+02 E0= -.45326723E+02  d E =-.439077E-02
