   17   17   60    1
  0.5844190E+01  0.2845653E-09  0.6198505E-09  0.5791417E-09  0.5000000E-15
  1.000000000000000E-004
  CAR 
 unknown system                          
     17    296     20
 
  0.3742002E-15  0.3742002E-15  0.3742002E-15  0.1700680E-02
    1      -12.369567   1.000000
    2      -10.417941   1.000000
    3       -8.972810   1.000000
    4       -8.448709   1.000000
    5       -7.881442   1.000000
    6       -7.258464   1.000000
    7       -6.725439   1.000000
    8       -6.173643   1.000000
    9        2.467515   0.000000
   10        3.786437   0.000000
   11        5.345603   0.000000
   12        5.916024   0.000000
   13        6.002315   0.000000
   14        6.811832   0.000000
   15        6.950371   0.000000
   16        7.436917   0.000000
   17        7.595129   0.000000
   18        9.746095   0.000000
   19       10.260012   0.000000
   20       11.447932   0.000000
 
  0.7142857E-01  0.3744834E-15  0.3712308E-15  0.3401361E-02
    1      -12.282604   1.000000
    2      -10.342479   1.000000
    3       -8.910629   1.000000
    4       -8.422884   1.000000
    5       -7.816433   1.000000
    6       -7.213415   1.000000
    7       -6.718253   1.000000
    8       -6.155004   1.000000
    9        2.553445   0.000000
   10        3.789191   0.000000
   11        4.408619   0.000000
   12        5.338711   0.000000
   13        5.862433   0.000000
   14        6.057757   0.000000
   15        7.041426   0.000000
   16        7.384960   0.000000
   17        9.478263   0.000000
   18        9.741116   0.000000
   19        9.877407   0.000000
   20       11.137725   0.000000
 
  0.1428571E+00  0.3744834E-15  0.3677614E-15  0.3401361E-02
    1      -12.008684   1.000000
    2      -10.107891   1.000000
    3       -8.723390   1.000000
    4       -8.328612   1.000000
    5       -7.635468   1.000000
    6       -7.081941   1.000000
    7       -6.673129   1.000000
    8       -6.110048   1.000000
    9        2.020859   0.000000
   10        2.864805   0.000000
   11        3.943174   0.000000
   12        5.004403   0.000000
   13        5.481823   0.000000
   14        6.053531   0.000000
   15        6.581172   0.000000
   16        7.045491   0.000000
   17        8.995747   0.000000
   18        9.262379   0.000000
   19       10.295097   0.000000
   20       11.436398   0.000000
 
  0.2142857E+00  0.3740497E-15  0.3469447E-15  0.3401361E-02
    1      -11.557154   1.000000
    2       -9.730319   1.000000
    3       -8.430926   1.000000
    4       -8.155140   1.000000
    5       -7.386684   1.000000
    6       -6.920042   1.000000
    7       -6.591057   1.000000
    8       -6.102938   1.000000
    9       -0.075087   0.000000
   10        3.215494   0.000000
   11        3.925359   0.000000
   12        4.541448   0.000000
   13        4.945153   0.000000
   14        5.756128   0.000000
   15        5.981306   0.000000
   16        6.521292   0.000000
   17        8.472662   0.000000
   18        8.768638   0.000000
   19        9.856477   0.000000
   20       10.583162   0.000000
 
  0.2857143E+00  0.3742666E-15  0.3608225E-15  0.3401361E-02
    1      -10.942838   1.000000
    2       -9.223963   1.000000
    3       -8.070834   1.000000
    4       -7.890998   1.000000
    5       -7.119820   1.000000
    6       -6.808250   1.000000
    7       -6.502141   1.000000
    8       -6.177380   1.000000
    9       -1.985538   1.051397
   10        3.261254   0.000000
   11        3.776539   0.000000
   12        4.215195   0.000000
   13        4.442977   0.000000
   14        5.066167   0.000000
   15        5.492231   0.000000
   16        6.166020   0.000000
   17        7.845737   0.000000
   18        8.673860   0.000000
   19        9.449349   0.000000
   20        9.876985   0.000000
 
  0.3571429E+00  0.3760013E-15  0.3469447E-15  0.3401361E-02
    1      -10.177379   1.000000
    2       -8.625138   1.000000
    3       -7.711657   1.000000
    4       -7.537182   1.000000
    5       -6.946692   1.000000
    6       -6.789853   1.000000
    7       -6.590121   1.000000
    8       -6.194951   1.000000
    9       -3.662461   1.000000
   10        2.863039   0.000000
   11        3.421740   0.000000
   12        3.807470   0.000000
   13        4.162318   0.000000
   14        4.782489   0.000000
   15        5.258105   0.000000
   16        5.864936   0.000000
   17        7.568818   0.000000
   18        8.175575   0.000000
   19        9.447954   0.000000
   20        9.608996   0.000000
 
  0.4285714E+00  0.3768687E-15  0.3608225E-15  0.3401361E-02
    1       -9.312909   1.000000
    2       -8.092803   1.000000
    3       -7.518108   1.000000
    4       -7.196404   1.000000
    5       -7.104791   1.000000
    6       -6.743439   1.000000
    7       -6.608072   1.000000
    8       -6.166695   1.000000
    9       -5.038204   1.000000
   10        2.539777   0.000000
   11        3.131288   0.000000
   12        3.447999   0.000000
   13        3.864891   0.000000
   14        4.415524   0.000000
   15        5.153044   0.000000
   16        6.165036   0.000000
   17        7.322488   0.000000
   18        8.027454   0.000000
   19        9.038390   0.000000
   20        9.931308   0.000000
 
  0.5000000E+00  0.3773024E-15  0.3330669E-15  0.1700680E-02
    1       -8.580784   1.000000
    2       -8.268633   1.000000
    3       -7.604831   1.000000
    4       -7.041091   1.000000
    5       -6.925474   1.000000
    6       -6.690368   1.000000
    7       -6.479447   1.000000
    8       -6.199395   1.000000
    9       -5.796550   1.000000
   10        2.426563   0.000000
   11        2.975535   0.000000
   12        3.399134   0.000000
   13        3.865433   0.000000
   14        4.083599   0.000000
   15        5.064970   0.000000
   16        6.424894   0.000000
   17        7.289579   0.000000
   18        8.240645   0.000000
   19        8.501826   0.000000
   20       10.154114   0.000000
 
  0.3741582E-15  0.1666667E+00  0.3751340E-15  0.3401361E-02
    1      -12.323556   1.000000
    2      -10.538970   1.000000
    3       -9.163657   1.000000
    4       -8.125875   1.000000
    5       -7.827963   1.000000
    6       -7.333516   1.000000
    7       -6.774849   1.000000
    8       -6.126097   1.000000
    9        2.578327   0.000000
   10        3.659796   0.000000
   11        4.952670   0.000000
   12        5.687280   0.000000
   13        6.222030   0.000000
   14        6.636299   0.000000
   15        7.030939   0.000000
   16        7.490177   0.000000
   17        8.021493   0.000000
   18        9.552417   0.000000
   19       10.617021   0.000000
   20       11.154560   0.000000
 
  0.7142857E-01  0.1666667E+00  0.3712308E-15  0.3401361E-02
    1      -12.235227   1.000000
    2      -10.463446   1.000000
    3       -9.105551   1.000000
    4       -8.120658   1.000000
    5       -7.766014   1.000000
    6       -7.242615   1.000000
    7       -6.766352   1.000000
    8       -6.134619   1.000000
    9        2.631645   0.000000
   10        3.717745   0.000000
   11        4.328860   0.000000
   12        5.068940   0.000000
   13        5.615609   0.000000
   14        6.229824   0.000000
   15        6.991491   0.000000
   16        7.830568   0.000000
   17        9.211683   0.000000
   18        9.716902   0.000000
   19       10.515739   0.000000
   20       10.721208   0.000000
 
  0.1428571E+00  0.1666667E+00  0.3608225E-15  0.3401361E-02
    1      -11.962312   1.000000
    2      -10.231467   1.000000
    3       -8.929778   1.000000
    4       -8.042916   1.000000
    5       -7.596331   1.000000
    6       -7.063084   1.000000
    7       -6.719506   1.000000
    8       -6.117036   1.000000
    9        1.996867   0.000000
   10        2.919741   0.000000
   11        3.845410   0.000000
   12        4.861757   0.000000
   13        5.370391   0.000000
   14        6.037829   0.000000
   15        6.514518   0.000000
   16        7.454582   0.000000
   17        8.651794   0.000000
   18        9.736313   0.000000
   19       10.105833   0.000000
   20       11.091599   0.000000
 
  0.2142857E+00  0.1666667E+00  0.3608225E-15  0.3401361E-02
    1      -11.508069   1.000000
    2       -9.846290   1.000000
    3       -8.657140   1.000000
    4       -7.864675   1.000000
    5       -7.371994   1.000000
    6       -6.852813   1.000000
    7       -6.628582   1.000000
    8       -6.114669   1.000000
    9       -0.093467   0.000000
   10        3.195076   0.000000
   11        3.800132   0.000000
   12        4.522504   0.000000
   13        5.093275   0.000000
   14        5.467437   0.000000
   15        6.019103   0.000000
   16        6.833370   0.000000
   17        8.223201   0.000000
   18        9.226441   0.000000
   19        9.558172   0.000000
   20       10.329488   0.000000
 
  0.2857143E+00  0.1666667E+00  0.3469447E-15  0.3401361E-02
    1      -10.891531   1.000000
    2       -9.332753   1.000000
    3       -8.322924   1.000000
    4       -7.589399   1.000000
    5       -7.141630   1.000000
    6       -6.753069   1.000000
    7       -6.464844   1.000000
    8       -6.206122   1.000000
    9       -2.006992   1.037819
   10        3.305726   0.000000
   11        3.490450   0.000000
   12        4.267002   0.000000
   13        4.480075   0.000000
   14        5.076460   0.000000
   15        5.547115   0.000000
   16        6.321300   0.000000
   17        7.920053   0.000000
   18        8.751169   0.000000
   19        9.302291   0.000000
   20        9.778340   0.000000
 
  0.3571429E+00  0.1666667E+00  0.3747003E-15  0.3401361E-02
    1      -10.125089   1.000000
    2       -8.714540   1.000000
    3       -7.968155   1.000000
    4       -7.249451   1.000000
    5       -6.965842   1.000000
    6       -6.849044   1.000000
    7       -6.453247   1.000000
    8       -6.219384   1.000000
    9       -3.682259   1.000000
   10        2.939074   0.000000
   11        3.277374   0.000000
   12        3.721574   0.000000
   13        4.272671   0.000000
   14        4.693878   0.000000
   15        5.208840   0.000000
   16        6.176325   0.000000
   17        7.777135   0.000000
   18        8.151912   0.000000
   19        9.217407   0.000000
   20        9.811620   0.000000
 
  0.4285714E+00  0.1666667E+00  0.3885781E-15  0.3401361E-02
    1       -9.258997   1.000000
    2       -8.112969   1.000000
    3       -7.680509   1.000000
    4       -7.248467   1.000000
    5       -6.966996   1.000000
    6       -6.814006   1.000000
    7       -6.558865   1.000000
    8       -6.096292   1.000000
    9       -5.045432   1.000000
   10        2.604747   0.000000
   11        3.083175   0.000000
   12        3.458566   0.000000
   13        3.970095   0.000000
   14        4.258909   0.000000
   15        5.171622   0.000000
   16        6.289811   0.000000
   17        7.448493   0.000000
   18        8.252339   0.000000
   19        8.938736   0.000000
   20        9.850202   0.000000
 
  0.5000000E+00  0.1666667E+00  0.3608225E-15  0.3401361E-02
    1       -8.526127   1.000000
    2       -8.224058   1.000000
    3       -7.582580   1.000000
    4       -7.182842   1.000000
    5       -7.106257   1.000000
    6       -6.819070   1.000000
    7       -6.282130   1.000000
    8       -6.116189   1.000000
    9       -5.760011   1.000000
   10        2.422603   0.000000
   11        3.029655   0.000000
   12        3.488728   0.000000
   13        3.771662   0.000000
   14        4.154368   0.000000
   15        5.174115   0.000000
   16        6.446604   0.000000
   17        7.273439   0.000000
   18        8.123773   0.000000
   19        8.654817   0.000000
   20        9.830428   0.000000
 
 -0.4285714E+00  0.1666667E+00  0.4024558E-15  0.3401361E-02
    1       -9.247378   1.000000
    2       -8.128347   1.000000
    3       -7.628663   1.000000
    4       -7.309412   1.000000
    5       -7.028565   1.000000
    6       -6.778003   1.000000
    7       -6.587625   1.000000
    8       -6.037188   1.000000
    9       -5.035350   1.000000
   10        2.479105   0.000000
   11        3.240428   0.000000
   12        3.391763   0.000000
   13        3.949738   0.000000
   14        4.532271   0.000000
   15        5.382520   0.000000
   16        6.202271   0.000000
   17        7.151714   0.000000
   18        7.688851   0.000000
   19        8.933353   0.000000
   20        9.521742   0.000000
 
 -0.3571429E+00  0.1666667E+00  0.4163336E-15  0.3401361E-02
    1      -10.114814   1.000000
    2       -8.723508   1.000000
    3       -7.946202   1.000000
    4       -7.314509   1.000000
    5       -6.927660   1.000000
    6       -6.804037   1.000000
    7       -6.662839   1.000000
    8       -6.052476   1.000000
    9       -3.671491   1.000000
   10        2.783981   0.000000
   11        3.511990   0.000000
   12        3.696788   0.000000
   13        4.312314   0.000000
   14        5.024615   0.000000
   15        5.359680   0.000000
   16        5.955611   0.000000
   17        7.101147   0.000000
   18        8.027424   0.000000
   19        8.763817   0.000000
   20        9.692351   0.000000
 
 -0.2857143E+00  0.1666667E+00  0.3747003E-15  0.3401361E-02
    1      -10.885629   1.000000
    2       -9.336040   1.000000
    3       -8.318705   1.000000
    4       -7.608317   1.000000
    5       -7.066904   1.000000
    6       -6.911016   1.000000
    7       -6.510692   1.000000
    8       -6.062007   1.000000
    9       -1.994041   1.048010
   10        3.199639   0.000000
   11        3.902481   0.000000
   12        4.064013   0.000000
   13        4.666079   0.000000
   14        4.972468   0.000000
   15        5.665573   0.000000
   16        6.168250   0.000000
   17        7.411688   0.000000
   18        8.409500   0.000000
   19        9.241565   0.000000
   20        9.943317   0.000000
 
 -0.2142857E+00  0.1666667E+00  0.3677614E-15  0.3401361E-02
    1      -11.506494   1.000000
    2       -9.848675   1.000000
    3       -8.666300   1.000000
    4       -7.855411   1.000000
    5       -7.290940   1.000000
    6       -7.095015   1.000000
    7       -6.555097   1.000000
    8       -6.027823   1.000000
    9       -0.078621   0.000000
   10        3.264618   0.000000
   11        3.985097   0.000000
   12        4.373956   0.000000
   13        4.913837   0.000000
   14        5.601739   0.000000
   15        6.195889   0.000000
   16        6.475990   0.000000
   17        8.037770   0.000000
   18        8.729863   0.000000
   19       10.003216   0.000000
   20       10.602618   0.000000
 
 -0.1428571E+00  0.1666667E+00  0.3851086E-15  0.3401361E-02
    1      -11.957592   1.000000
    2      -10.226398   1.000000
    3       -8.938231   1.000000
    4       -8.017379   1.000000
    5       -7.536187   1.000000
    6       -7.249816   1.000000
    7       -6.660416   1.000000
    8       -6.036852   1.000000
    9        2.023234   0.000000
   10        2.967988   0.000000
   11        3.862886   0.000000
   12        4.736129   0.000000
   13        5.352481   0.000000
   14        6.054043   0.000000
   15        6.659556   0.000000
   16        7.183286   0.000000
   17        8.576288   0.000000
   18        9.438742   0.000000
   19       10.482794   0.000000
   20       11.398481   0.000000
 
 -0.7142857E-01  0.1666667E+00  0.3764350E-15  0.3401361E-02
    1      -12.232447   1.000000
    2      -10.459257   1.000000
    3       -9.107114   1.000000
    4       -8.098914   1.000000
    5       -7.739067   1.000000
    6       -7.336854   1.000000
    7       -6.741217   1.000000
    8       -6.083950   1.000000
    9        2.673579   0.000000
   10        3.682901   0.000000
   11        4.334863   0.000000
   12        5.014361   0.000000
   13        5.665539   0.000000
   14        6.219605   0.000000
   15        6.933406   0.000000
   16        7.820075   0.000000
   17        9.198377   0.000000
   18        9.745245   0.000000
   19       10.156393   0.000000
   20       11.053105   0.000000
 
  0.3747545E-15  0.3333333E+00  0.3773024E-15  0.3401361E-02
    1      -12.208542   1.000000
    2      -10.801721   1.000000
    3       -9.288097   1.000000
    4       -7.888870   1.000000
    5       -7.698211   1.000000
    6       -7.284757   1.000000
    7       -6.877895   1.000000
    8       -6.090862   1.000000
    9        2.787266   0.000000
   10        3.439759   0.000000
   11        4.511579   0.000000
   12        5.394576   0.000000
   13        6.251436   0.000000
   14        6.484501   0.000000
   15        7.062477   0.000000
   16        7.473047   0.000000
   17        8.752978   0.000000
   18        9.544296   0.000000
   19       10.577475   0.000000
   20       11.295319   0.000000
 
  0.7142857E-01  0.3333333E+00  0.3747003E-15  0.3401361E-02
    1      -12.116217   1.000000
    2      -10.725303   1.000000
    3       -9.230732   1.000000
    4       -7.923578   1.000000
    5       -7.569733   1.000000
    6       -7.238290   1.000000
    7       -6.843746   1.000000
    8       -6.097890   1.000000
    9        2.792840   0.000000
   10        3.511709   0.000000
   11        4.299249   0.000000
   12        4.683285   0.000000
   13        5.414204   0.000000
   14        6.227164   0.000000
   15        6.857140   0.000000
   16        8.421302   0.000000
   17        9.224354   0.000000
   18        9.723179   0.000000
   19       10.180010   0.000000
   20       10.979678   0.000000
 
  0.1428571E+00  0.3333333E+00  0.3747003E-15  0.3401361E-02
    1      -11.841152   1.000000
    2      -10.493954   1.000000
    3       -9.056047   1.000000
    4       -7.888467   1.000000
    5       -7.371635   1.000000
    6       -7.097993   1.000000
    7       -6.745816   1.000000
    8       -6.083317   1.000000
    9        1.983683   0.000000
   10        3.019259   0.000000
   11        3.626167   0.000000
   12        4.659763   0.000000
   13        5.296511   0.000000
   14        5.931424   0.000000
   15        6.517318   0.000000
   16        7.771767   0.000000
   17        8.527193   0.000000
   18        9.378419   0.000000
   19       10.111621   0.000000
   20       10.829793   0.000000
 
  0.2142857E+00  0.3333333E+00  0.3608225E-15  0.3401361E-02
    1      -11.384163   1.000000
    2      -10.113981   1.000000
    3       -8.776807   1.000000
    4       -7.751771   1.000000
    5       -7.174458   1.000000
    6       -6.891696   1.000000
    7       -6.602121   1.000000
    8       -6.077725   1.000000
    9       -0.120394   0.000000
   10        3.235406   0.000000
   11        3.597303   0.000000
   12        4.437124   0.000000
   13        5.159075   0.000000
   14        5.309905   0.000000
   15        6.220676   0.000000
   16        7.045710   0.000000
   17        8.002412   0.000000
   18        8.796317   0.000000
   19        9.335460   0.000000
   20       10.215090   0.000000
 
  0.2857143E+00  0.3333333E+00  0.3608225E-15  0.3401361E-02
    1      -10.755049   1.000000
    2       -9.602026   1.000000
    3       -8.430695   1.000000
    4       -7.529773   1.000000
    5       -7.001312   1.000000
    6       -6.750024   1.000000
    7       -6.447115   1.000000
    8       -6.118045   1.000000
    9       -2.039221   1.009394
   10        3.228375   0.000000
   11        3.456396   0.000000
   12        4.132330   0.000000
   13        4.561173   0.000000
   14        4.980994   0.000000
   15        5.916880   0.000000
   16        6.576143   0.000000
   17        7.765873   0.000000
   18        8.388362   0.000000
   19        8.904248   0.000000
   20        9.691475   0.000000
 
  0.3571429E+00  0.3333333E+00  0.3747003E-15  0.3401361E-02
    1       -9.974739   1.000000
    2       -8.978348   1.000000
    3       -8.061001   1.000000
    4       -7.255050   1.000000
    5       -6.897948   1.000000
    6       -6.802670   1.000000
    7       -6.446711   1.000000
    8       -6.059058   1.000000
    9       -3.716490   1.000000
   10        2.933870   0.000000
   11        3.179896   0.000000
   12        3.698633   0.000000
   13        4.373194   0.000000
   14        4.821422   0.000000
   15        5.395351   0.000000
   16        6.311038   0.000000
   17        7.535177   0.000000
   18        8.223325   0.000000
   19        8.985251   0.000000
   20        9.586370   0.000000
 
  0.4285714E+00  0.3333333E+00  0.3747003E-15  0.3401361E-02
    1       -9.097145   1.000000
    2       -8.305343   1.000000
    3       -7.775003   1.000000
    4       -7.223250   1.000000
    5       -7.045228   1.000000
    6       -6.929455   1.000000
    7       -6.430242   1.000000
    8       -5.931602   1.000000
    9       -5.047094   1.000000
   10        2.582740   0.000000
   11        3.170059   0.000000
   12        3.355299   0.000000
   13        4.170285   0.000000
   14        4.431258   0.000000
   15        5.385821   0.000000
   16        6.131813   0.000000
   17        7.151276   0.000000
   18        8.493895   0.000000
   19        9.120581   0.000000
   20        9.577700   0.000000
 
  0.5000000E+00  0.3333333E+00  0.3747003E-15  0.3401361E-02
    1       -8.373557   1.000000
    2       -8.119088   1.000000
    3       -7.593967   1.000000
    4       -7.410442   1.000000
    5       -7.390206   1.000000
    6       -6.948150   1.000000
    7       -6.116346   1.000000
    8       -5.985828   1.000000
    9       -5.678065   1.000000
   10        2.395996   0.000000
   11        3.160561   0.000000
   12        3.485231   0.000000
   13        3.857726   0.000000
   14        4.372321   0.000000
   15        5.302207   0.000000
   16        6.362385   0.000000
   17        7.015609   0.000000
   18        8.322946   0.000000
   19        8.632903   0.000000
   20        9.492936   0.000000
 
 -0.4285714E+00  0.3333333E+00  0.4163336E-15  0.3401361E-02
    1       -9.076851   1.000000
    2       -8.348719   1.000000
    3       -7.648635   1.000000
    4       -7.321322   1.000000
    5       -7.161440   1.000000
    6       -6.858980   1.000000
    7       -6.409054   1.000000
    8       -5.891070   1.000000
    9       -5.035843   1.000000
   10        2.450882   0.000000
   11        3.175024   0.000000
   12        3.658393   0.000000
   13        3.922357   0.000000
   14        4.726485   0.000000
   15        5.478188   0.000000
   16        6.353834   0.000000
   17        7.077622   0.000000
   18        7.469705   0.000000
   19        8.759556   0.000000
   20        9.106735   0.000000
 
 -0.3571429E+00  0.3333333E+00  0.4024558E-15  0.3401361E-02
    1       -9.962455   1.000000
    2       -9.008915   1.000000
    3       -7.977313   1.000000
    4       -7.424908   1.000000
    5       -6.834024   1.000000
    6       -6.756809   1.000000
    7       -6.565020   1.000000
    8       -5.959902   1.000000
    9       -3.704304   1.000000
   10        2.724574   0.000000
   11        3.398789   0.000000
   12        3.803930   0.000000
   13        4.355752   0.000000
   14        5.174985   0.000000
   15        5.626429   0.000000
   16        6.123206   0.000000
   17        6.988326   0.000000
   18        7.565637   0.000000
   19        8.527098   0.000000
   20        9.560257   0.000000
 
 -0.2857143E+00  0.3333333E+00  0.3955170E-15  0.3401361E-02
    1      -10.745439   1.000000
    2       -9.618366   1.000000
    3       -8.385006   1.000000
    4       -7.625536   1.000000
    5       -6.945834   1.000000
    6       -6.802182   1.000000
    7       -6.492788   1.000000
    8       -6.017642   1.000000
    9       -2.023153   1.022484
   10        3.089781   0.000000
   11        3.721318   0.000000
   12        4.129358   0.000000
   13        4.831954   0.000000
   14        5.240080   0.000000
   15        5.554648   0.000000
   16        6.222209   0.000000
   17        7.295710   0.000000
   18        8.124149   0.000000
   19        9.114568   0.000000
   20        9.978860   0.000000
 
 -0.2142857E+00  0.3333333E+00  0.3816392E-15  0.3401361E-02
    1      -11.378494   1.000000
    2      -10.121500   1.000000
    3       -8.756813   1.000000
    4       -7.794164   1.000000
    5       -7.157659   1.000000
    6       -6.982097   1.000000
    7       -6.569269   1.000000
    8       -6.011843   1.000000
    9       -0.100634   0.000000
   10        3.250710   0.000000
   11        3.762509   0.000000
   12        4.446246   0.000000
   13        5.128157   0.000000
   14        5.372742   0.000000
   15        5.978832   0.000000
   16        6.653579   0.000000
   17        7.949545   0.000000
   18        8.815090   0.000000
   19        9.833743   0.000000
   20       10.320777   0.000000
 
 -0.1428571E+00  0.3333333E+00  0.3885781E-15  0.3401361E-02
    1      -11.837902   1.000000
    2      -10.492797   1.000000
    3       -9.045730   1.000000
    4       -7.885220   1.000000
    5       -7.395036   1.000000
    6       -7.149375   1.000000
    7       -6.713050   1.000000
    8       -6.022002   1.000000
    9        2.012723   0.000000
   10        3.127735   0.000000
   11        3.606817   0.000000
   12        4.505450   0.000000
   13        5.322562   0.000000
   14        5.924428   0.000000
   15        6.502072   0.000000
   16        7.485100   0.000000
   17        8.583211   0.000000
   18        9.541261   0.000000
   19       10.311764   0.000000
   20       10.889762   0.000000
 
 -0.7142857E-01  0.3333333E+00  0.3799044E-15  0.3401361E-02
    1      -12.113517   1.000000
    2      -10.723004   1.000000
    3       -9.224308   1.000000
    4       -7.896435   1.000000
    5       -7.613284   1.000000
    6       -7.252118   1.000000
    7       -6.830641   1.000000
    8       -6.057021   1.000000
    9        2.891957   0.000000
   10        3.462870   0.000000
   11        4.193566   0.000000
   12        4.662951   0.000000
   13        5.489412   0.000000
   14        6.270634   0.000000
   15        6.740731   0.000000
   16        8.445700   0.000000
   17        9.102056   0.000000
   18        9.780988   0.000000
   19       10.306335   0.000000
   20       10.906853   0.000000
 
  0.3741582E-15  0.5000000E+00  0.3747003E-15  0.1700680E-02
    1      -12.132635   1.000000
    2      -10.946329   1.000000
    3       -9.310637   1.000000
    4       -7.865187   1.000000
    5       -7.699884   1.000000
    6       -7.102573   1.000000
    7       -6.932456   1.000000
    8       -6.111208   1.000000
    9        2.875605   0.000000
   10        3.333922   0.000000
   11        4.446586   0.000000
   12        5.171778   0.000000
   13        6.304011   0.000000
   14        6.361471   0.000000
   15        7.048048   0.000000
   16        7.470773   0.000000
   17        9.051083   0.000000
   18        9.554907   0.000000
   19       10.637840   0.000000
   20       11.351842   0.000000
 
  0.7142857E-01  0.5000000E+00  0.3781697E-15  0.3401361E-02
    1      -12.039536   1.000000
    2      -10.869583   1.000000
    3       -9.246548   1.000000
    4       -7.904815   1.000000
    5       -7.570384   1.000000
    6       -7.081671   1.000000
    7       -6.870814   1.000000
    8       -6.099747   1.000000
    9        2.917230   0.000000
   10        3.381170   0.000000
   11        4.231034   0.000000
   12        4.575688   0.000000
   13        5.344125   0.000000
   14        6.226245   0.000000
   15        6.719306   0.000000
   16        8.627532   0.000000
   17        9.193692   0.000000
   18        9.748781   0.000000
   19       10.292253   0.000000
   20       10.846207   0.000000
 
  0.1428571E+00  0.5000000E+00  0.3677614E-15  0.3401361E-02
    1      -11.760387   1.000000
    2      -10.642934   1.000000
    3       -9.064026   1.000000
    4       -7.903479   1.000000
    5       -7.341798   1.000000
    6       -7.005167   1.000000
    7       -6.728060   1.000000
    8       -6.075850   1.000000
    9        1.992653   0.000000
   10        3.100154   0.000000
   11        3.504891   0.000000
   12        4.546641   0.000000
   13        5.315443   0.000000
   14        5.864888   0.000000
   15        6.431230   0.000000
   16        7.759576   0.000000
   17        8.461899   0.000000
   18        9.599823   0.000000
   19        9.935664   0.000000
   20       10.691403   0.000000
 
  0.2142857E+00  0.5000000E+00  0.3608225E-15  0.3401361E-02
    1      -11.296492   1.000000
    2      -10.271783   1.000000
    3       -8.771900   1.000000
    4       -7.812456   1.000000
    5       -7.103412   1.000000
    6       -6.859602   1.000000
    7       -6.543396   1.000000
    8       -6.064617   1.000000
    9       -0.117275   0.000000
   10        3.232441   0.000000
   11        3.559853   0.000000
   12        4.491676   0.000000
   13        5.210709   0.000000
   14        5.304677   0.000000
   15        5.974497   0.000000
   16        7.063564   0.000000
   17        7.829343   0.000000
   18        8.985274   0.000000
   19        9.146942   0.000000
   20       10.098495   0.000000
 
  0.2857143E+00  0.5000000E+00  0.3608225E-15  0.3401361E-02
    1      -10.653658   1.000000
    2       -9.775248   1.000000
    3       -8.396514   1.000000
    4       -7.645470   1.000000
    5       -6.908587   1.000000
    6       -6.734427   1.000000
    7       -6.408809   1.000000
    8       -6.060571   1.000000
    9       -2.043427   1.006665
   10        3.097255   0.000000
   11        3.543772   0.000000
   12        4.143309   0.000000
   13        4.804433   0.000000
   14        4.981387   0.000000
   15        5.846123   0.000000
   16        6.566581   0.000000
   17        7.441701   0.000000
   18        8.179796   0.000000
   19        8.841775   0.000000
   20        9.943990   0.000000
 
  0.3571429E+00  0.5000000E+00  0.3747003E-15  0.3401361E-02
    1       -9.853918   1.000000
    2       -9.177453   1.000000
    3       -7.991123   1.000000