  11  11   0   0
  0.1001146E+02  0.3753804E-09  0.5369659E-09  0.6404614E-09  0.5000000E-15
  1.000000000000000E-004
  CAR 
 unknown system                          
     11.04943835    -34.17889412  301      3.60898169      1.00000000
    -34.179  0.0000E+00  0.0000E+00
    -34.028  0.0000E+00  0.0000E+00
    -33.877  0.0000E+00  0.0000E+00
    -33.727  0.0000E+00  0.0000E+00
    -33.576  0.0000E+00  0.0000E+00
    -33.425  0.0000E+00  0.0000E+00
    -33.274  0.0000E+00  0.0000E+00
    -33.124  0.0000E+00  0.0000E+00
    -32.973  0.5068E-31  0.7641E-32
    -32.822  0.5297E-21  0.7986E-22
    -32.671  0.5302E-13  0.7993E-14
    -32.521  0.4566E-07  0.6884E-08
    -32.370  0.2312E-03  0.3486E-04
    -32.219 -0.7063E-02 -0.1030E-02
    -32.068  0.1855E+00  0.2694E-01
    -31.917  0.2736E+00  0.6818E-01
    -31.767 -0.1065E-01  0.6658E-01
    -31.616  0.5825E-03  0.6667E-01
    -31.465  0.3321E-06  0.6667E-01
    -31.314  0.8871E-12  0.6667E-01
    -31.164  0.0000E+00  0.6667E-01
    -31.013  0.0000E+00  0.6667E-01
    -30.862  0.0000E+00  0.6667E-01
    -30.711  0.0000E+00  0.6667E-01
    -30.561  0.0000E+00  0.6667E-01
    -30.410  0.0000E+00  0.6667E-01
    -30.259  0.0000E+00  0.6667E-01
    -30.108  0.0000E+00  0.6667E-01
    -29.958  0.0000E+00  0.6667E-01
    -29.807  0.0000E+00  0.6667E-01
    -29.656  0.0000E+00  0.6667E-01
    -29.505  0.0000E+00  0.6667E-01
    -29.355  0.1053E-31  0.6667E-01
    -29.204  0.1405E-21  0.6667E-01
    -29.053  0.1764E-13  0.6667E-01
    -28.902  0.1907E-07  0.6667E-01
    -28.751  0.1342E-03  0.6669E-01
    -28.601 -0.3612E-02  0.6614E-01
    -28.450  0.1486E+00  0.8854E-01
    -28.299  0.4319E+00  0.1537E+00
    -28.148  0.8733E-01  0.1668E+00
    -27.998 -0.1076E-02  0.1667E+00
    -27.847  0.4839E-04  0.1667E+00
    -27.696  0.2072E-08  0.1667E+00
    -27.545  0.5643E-15  0.1667E+00
    -27.395  0.0000E+00  0.1667E+00
    -27.244  0.0000E+00  0.1667E+00
    -27.093  0.0000E+00  0.1667E+00
    -26.942  0.0000E+00  0.1667E+00
    -26.792  0.0000E+00  0.1667E+00
    -26.641  0.0000E+00  0.1667E+00
    -26.490  0.0000E+00  0.1667E+00
    -26.339  0.0000E+00  0.1667E+00
    -26.189  0.0000E+00  0.1667E+00
    -26.038  0.0000E+00  0.1667E+00
    -25.887  0.0000E+00  0.1667E+00
    -25.736  0.0000E+00  0.1667E+00
    -25.586  0.0000E+00  0.1667E+00
    -25.435  0.0000E+00  0.1667E+00
    -25.284  0.0000E+00  0.1667E+00
    -25.133  0.0000E+00  0.1667E+00
    -24.982  0.0000E+00  0.1667E+00
    -24.832  0.0000E+00  0.1667E+00
    -24.681  0.0000E+00  0.1667E+00
    -24.530  0.0000E+00  0.1667E+00
    -24.379  0.0000E+00  0.1667E+00
    -24.229  0.0000E+00  0.1667E+00
    -24.078  0.0000E+00  0.1667E+00
    -23.927  0.0000E+00  0.1667E+00
    -23.776  0.0000E+00  0.1667E+00
    -23.626  0.0000E+00  0.1667E+00
    -23.475  0.0000E+00  0.1667E+00
    -23.324  0.0000E+00  0.1667E+00
    -23.173  0.0000E+00  0.1667E+00
    -23.023  0.0000E+00  0.1667E+00
    -22.872  0.0000E+00  0.1667E+00
    -22.721  0.0000E+00  0.1667E+00
    -22.570  0.0000E+00  0.1667E+00
    -22.420  0.0000E+00  0.1667E+00
    -22.269  0.0000E+00  0.1667E+00
    -22.118  0.0000E+00  0.1667E+00
    -21.967  0.0000E+00  0.1667E+00
    -21.816  0.0000E+00  0.1667E+00
    -21.666  0.0000E+00  0.1667E+00
    -21.515  0.0000E+00  0.1667E+00
    -21.364  0.0000E+00  0.1667E+00
    -21.213  0.0000E+00  0.1667E+00
    -21.063  0.0000E+00  0.1667E+00
    -20.912  0.0000E+00  0.1667E+00
    -20.761  0.0000E+00  0.1667E+00
    -20.610  0.0000E+00  0.1667E+00
    -20.460  0.0000E+00  0.1667E+00
    -20.309  0.0000E+00  0.1667E+00
    -20.158  0.0000E+00  0.1667E+00
    -20.007  0.0000E+00  0.1667E+00
    -19.857  0.0000E+00  0.1667E+00
    -19.706  0.0000E+00  0.1667E+00
    -19.555  0.0000E+00  0.1667E+00
    -19.404  0.0000E+00  0.1667E+00
    -19.254  0.0000E+00  0.1667E+00
    -19.103  0.0000E+00  0.1667E+00
    -18.952  0.0000E+00  0.1667E+00
    -18.801  0.0000E+00  0.1667E+00
    -18.650  0.0000E+00  0.1667E+00
    -18.500  0.0000E+00  0.1667E+00
    -18.349  0.0000E+00  0.1667E+00
    -18.198  0.0000E+00  0.1667E+00
    -18.047  0.0000E+00  0.1667E+00
    -17.897  0.0000E+00  0.1667E+00
    -17.746  0.0000E+00  0.1667E+00
    -17.595  0.0000E+00  0.1667E+00
    -17.444  0.0000E+00  0.1667E+00
    -17.294  0.0000E+00  0.1667E+00
    -17.143  0.0000E+00  0.1667E+00
    -16.992  0.0000E+00  0.1667E+00
    -16.841  0.0000E+00  0.1667E+00
    -16.691  0.0000E+00  0.1667E+00
    -16.540  0.0000E+00  0.1667E+00
    -16.389  0.0000E+00  0.1667E+00
    -16.238  0.0000E+00  0.1667E+00
    -16.088  0.0000E+00  0.1667E+00
    -15.937  0.0000E+00  0.1667E+00
    -15.786  0.0000E+00  0.1667E+00
    -15.635  0.0000E+00  0.1667E+00
    -15.485  0.8935E-37  0.1667E+00
    -15.334  0.6525E-26  0.1667E+00
    -15.183  0.4829E-17  0.1667E+00
    -15.032  0.3596E-10  0.1667E+00
    -14.881  0.2449E-05  0.1667E+00
    -14.731  0.7368E-03  0.1668E+00
    -14.580 -0.1545E-02  0.1665E+00
    -14.429  0.2600E+00  0.2057E+00
    -14.278  0.2711E+00  0.2466E+00
    -14.128  0.2245E+00  0.2805E+00
    -13.977  0.4087E+00  0.3421E+00
    -13.826  0.1685E+00  0.3675E+00
    -13.675 -0.5598E-02  0.3666E+00
    -13.525  0.1815E-03  0.3667E+00
    -13.374  0.3063E-07  0.3667E+00
    -13.223  0.3348E-13  0.3667E+00
    -13.072  0.0000E+00  0.3667E+00
    -12.922  0.0000E+00  0.3667E+00
    -12.771  0.0000E+00  0.3667E+00
    -12.620  0.0000E+00  0.3667E+00
    -12.469  0.0000E+00  0.3667E+00
    -12.319  0.0000E+00  0.3667E+00
    -12.168  0.0000E+00  0.3667E+00
    -12.017  0.0000E+00  0.3667E+00
    -11.866  0.0000E+00  0.3667E+00
    -11.715  0.0000E+00  0.3667E+00
    -11.565  0.0000E+00  0.3667E+00
    -11.414  0.0000E+00  0.3667E+00
    -11.263  0.0000E+00  0.3667E+00
    -11.112  0.0000E+00  0.3667E+00
    -10.962  0.0000E+00  0.3667E+00
    -10.811  0.0000E+00  0.3667E+00
    -10.660  0.0000E+00  0.3667E+00
    -10.509  0.0000E+00  0.3667E+00
    -10.359  0.0000E+00  0.3667E+00
    -10.208  0.0000E+00  0.3667E+00
    -10.057  0.0000E+00  0.3667E+00
     -9.906  0.0000E+00  0.3667E+00
     -9.756  0.0000E+00  0.3667E+00
     -9.605  0.0000E+00  0.3667E+00
     -9.454  0.0000E+00  0.3667E+00
     -9.303  0.0000E+00  0.3667E+00
     -9.153  0.0000E+00  0.3667E+00
     -9.002  0.0000E+00  0.3667E+00
     -8.851  0.0000E+00  0.3667E+00
     -8.700  0.0000E+00  0.3667E+00
     -8.550  0.0000E+00  0.3667E+00
     -8.399  0.0000E+00  0.3667E+00
     -8.248  0.0000E+00  0.3667E+00
     -8.097  0.0000E+00  0.3667E+00
     -7.946  0.0000E+00  0.3667E+00
     -7.796  0.0000E+00  0.3667E+00
     -7.645  0.0000E+00  0.3667E+00
     -7.494  0.0000E+00  0.3667E+00
     -7.343  0.0000E+00  0.3667E+00
     -7.193  0.0000E+00  0.3667E+00
     -7.042  0.0000E+00  0.3667E+00
     -6.891  0.0000E+00  0.3667E+00
     -6.740  0.0000E+00  0.3667E+00
     -6.590  0.0000E+00  0.3667E+00
     -6.439  0.1643E-36  0.3667E+00
     -6.288  0.6212E-26  0.3667E+00
     -6.137  0.2164E-17  0.3667E+00
     -5.987  0.6300E-11  0.3667E+00
     -5.836  0.1128E-06  0.3667E+00
     -5.685 -0.1406E-05  0.3667E+00
     -5.534  0.8666E-04  0.3667E+00
     -5.384  0.2935E-02  0.3671E+00
     -5.233  0.4176E-02  0.3678E+00
     -5.082  0.7266E-02  0.3688E+00
     -4.931  0.9416E-02  0.3703E+00
     -4.780  0.1256E-01  0.3722E+00
     -4.630  0.1702E-01  0.3747E+00
     -4.479  0.2082E-01  0.3779E+00
     -4.328  0.2309E-01  0.3813E+00
     -4.177  0.1371E-01  0.3834E+00
     -4.027  0.1410E-01  0.3855E+00
     -3.876  0.1625E-01  0.3880E+00
     -3.725  0.1382E-01  0.3901E+00
     -3.574  0.9669E-02  0.3915E+00
     -3.424  0.2074E-01  0.3947E+00
     -3.273  0.2055E-01  0.3978E+00
     -3.122  0.1534E-01  0.4001E+00
     -2.971  0.2686E-02  0.4005E+00
     -2.821  0.1437E-01  0.4026E+00
     -2.670  0.2023E-01  0.4057E+00
     -2.519  0.2429E-01  0.4093E+00
     -2.368  0.4098E-01  0.4155E+00
     -2.218  0.5789E-01  0.4243E+00
     -2.067  0.7348E-01  0.4353E+00
     -1.916  0.9920E-01  0.4503E+00
     -1.765  0.8404E-01  0.4630E+00
     -1.614  0.8114E-01  0.4752E+00
     -1.464  0.8097E-01  0.4874E+00
     -1.313  0.8616E-01  0.5004E+00
     -1.162  0.1205E+00  0.5185E+00
     -1.011  0.9265E-01  0.5325E+00
     -0.861  0.4752E-01  0.5397E+00
     -0.710  0.7859E-01  0.5515E+00
     -0.559  0.7166E-01  0.5623E+00
     -0.408  0.6777E-01  0.5726E+00
     -0.258  0.3806E-01  0.5783E+00
     -0.107  0.2477E-01  0.5820E+00
      0.044  0.3226E-01  0.5869E+00
      0.195  0.1421E-01  0.5890E+00
      0.345  0.2953E-01  0.5935E+00
      0.496  0.4198E-01  0.5998E+00
      0.647  0.3987E-01  0.6058E+00
      0.798  0.5369E-01  0.6139E+00
      0.948  0.4611E-01  0.6209E+00
      1.099  0.2759E-01  0.6250E+00
      1.250  0.3265E-01  0.6299E+00
      1.401  0.1974E-01  0.6329E+00
      1.551  0.2182E-02  0.6333E+00
      1.702  0.5392E-03  0.6333E+00
      1.853  0.5422E-05  0.6333E+00
      2.004  0.1640E-05  0.6333E+00
      2.155  0.2622E-08  0.6333E+00
      2.305  0.1367E-13  0.6333E+00
      2.456  0.1396E-14  0.6333E+00
      2.607  0.7480E-09  0.6333E+00
      2.758  0.2233E-05  0.6333E+00
      2.908 -0.4396E-04  0.6333E+00
      3.059  0.1553E-02  0.6336E+00
      3.210  0.6860E-02  0.6346E+00
      3.361  0.1696E-01  0.6372E+00
      3.511  0.5206E-01  0.6450E+00
      3.662  0.4762E-01  0.6522E+00
      3.813  0.4242E-01  0.6586E+00
      3.964  0.3471E-01  0.6638E+00
      4.114  0.4101E-01  0.6700E+00
      4.265  0.5197E-01  0.6778E+00
      4.416  0.6477E-01  0.6876E+00
      4.567  0.6545E-01  0.6975E+00
      4.717  0.1029E+00  0.7130E+00
      4.868  0.6460E-01  0.7227E+00
      5.019  0.4345E-01  0.7293E+00
      5.170  0.3469E-01  0.7345E+00
      5.321  0.4985E-01  0.7420E+00
      5.471  0.5720E-01  0.7506E+00
      5.622  0.6292E-01  0.7601E+00
      5.773  0.5903E-01  0.7690E+00
      5.924  0.5862E-01  0.7778E+00
      6.074  0.7091E-01  0.7885E+00
      6.225  0.7693E-01  0.8001E+00
      6.376  0.7014E-01  0.8107E+00
      6.527  0.7425E-01  0.8219E+00
      6.677  0.5368E-01  0.8300E+00
      6.828  0.3481E-01  0.8352E+00
      6.979  0.4640E-01  0.8422E+00
      7.130  0.6402E-01  0.8519E+00
      7.280  0.5045E-01  0.8595E+00
      7.431  0.5667E-01  0.8680E+00
      7.582  0.7843E-01  0.8799E+00
      7.733  0.8195E-01  0.8922E+00
      7.883  0.6762E-01  0.9024E+00
      8.034  0.5733E-01  0.9111E+00
      8.185  0.4877E-01  0.9184E+00
      8.336  0.4787E-01  0.9256E+00
      8.486  0.3476E-01  0.9309E+00
      8.637  0.1015E-01  0.9324E+00
      8.788  0.3331E-02  0.9329E+00
      8.939  0.2231E-02  0.9332E+00
      9.090  0.6605E-03  0.9333E+00
      9.240 -0.3618E-04  0.9333E+00
      9.391  0.1643E-05  0.9333E+00
      9.542  0.6887E-09  0.9333E+00
      9.693  0.1309E-14  0.9333E+00
      9.843  0.0000E+00  0.9333E+00
      9.994  0.0000E+00  0.9333E+00
     10.145  0.0000E+00  0.9333E+00
     10.296  0.0000E+00  0.9333E+00
     10.446  0.0000E+00  0.9333E+00
     10.597  0.0000E+00  0.9333E+00
     10.748  0.0000E+00  0.9333E+00
     10.899  0.0000E+00  0.9333E+00
     11.049  0.0000E+00  0.9333E+00
