       N       E                     dE             d eps       ncg     rms          rms(c)
DAV:   1     0.172965500248E+03    0.17297E+03   -0.12899E+04 17512   0.755E+02
DAV:   2    -0.325698356845E+02   -0.20554E+03   -0.20120E+03 21704   0.296E+02
DAV:   3    -0.462157336428E+02   -0.13646E+02   -0.13565E+02 29376   0.584E+01
DAV:   4    -0.469165387880E+02   -0.70081E+00   -0.69923E+00 27444   0.107E+01
DAV:   5    -0.469305058857E+02   -0.13967E-01   -0.13965E-01 28328   0.155E+00    0.395E+01
DAV:   6    -0.439147938691E+02    0.30157E+01   -0.11626E+01 26504   0.186E+01    0.161E+01
DAV:   7    -0.434292700296E+02    0.48552E+00   -0.32509E+00 26992   0.815E+00    0.122E+01
DAV:   8    -0.433143943769E+02    0.11488E+00   -0.10069E+00 25104   0.549E+00    0.304E+00
DAV:   9    -0.433066072423E+02    0.77871E-02   -0.98852E-02 25292   0.200E+00    0.454E-01
DAV:  10    -0.433053332375E+02    0.12740E-02   -0.89799E-03 28128   0.521E-01    0.243E-01
DAV:  11    -0.433054195690E+02   -0.86331E-04   -0.80232E-04 20136   0.195E-01
   1 F= -.43305420E+02 E0= -.43305594E+02  d E =-.433054E+02
       N       E                     dE             d eps       ncg     rms          rms(c)
DAV:   1    -0.433151636610E+02   -0.98304E-02   -0.28457E-01 18252   0.398E+00    0.817E-01
DAV:   2    -0.433109224690E+02    0.42412E-02   -0.66385E-02 25216   0.163E+00    0.409E-01
DAV:   3    -0.433093438763E+02    0.15786E-02   -0.65952E-03 25716   0.467E-01    0.173E-01
DAV:   4    -0.433088165308E+02    0.52735E-03   -0.21347E-03 28068   0.263E-01    0.221E-01
DAV:   5    -0.433088685492E+02   -0.52018E-04   -0.19987E-04 18940   0.642E-02
   2 F= -.43308869E+02 E0= -.43309036E+02  d E =-.344898E-02
       N       E                     dE             d eps       ncg     rms          rms(c)
DAV:   1    -0.433294200446E+02   -0.20604E-01   -0.89022E-01 17360   0.709E+00    0.148E+00
DAV:   2    -0.433156463336E+02    0.13774E-01   -0.20318E-01 24668   0.287E+00    0.705E-01
DAV:   3    -0.433106955097E+02    0.49508E-02   -0.19991E-02 25928   0.823E-01    0.310E-01
DAV:   4    -0.433090891423E+02    0.16064E-02   -0.69923E-03 28036   0.477E-01    0.401E-01
DAV:   5    -0.433092365867E+02   -0.14744E-03   -0.67877E-04 23180   0.110E-01    0.309E-01
DAV:   6    -0.433094354473E+02   -0.19886E-03   -0.26587E-04 21252   0.841E-02    0.586E-02
DAV:   7    -0.433094102280E+02    0.25219E-04   -0.82148E-05 11644   0.641E-02
   3 F= -.43309410E+02 E0= -.43309570E+02  d E =-.399066E-02
       N       E                     dE             d eps       ncg     rms          rms(c)
DAV:   1    -0.433067499439E+02    0.26855E-02   -0.56100E-01 19732   0.606E+00    0.505E-01
DAV:   2    -0.433117652831E+02   -0.50153E-02   -0.83588E-02 18376   0.155E+00    0.204E-01
DAV:   3    -0.433113954005E+02    0.36988E-03   -0.28876E-03 26376   0.293E-01    0.120E-01
DAV:   4    -0.433112435705E+02    0.15183E-03   -0.59482E-04 24916   0.157E-01    0.102E-01
DAV:   5    -0.433112483191E+02   -0.47486E-05   -0.52946E-05 12072   0.436E-02
   4 F= -.43311248E+02 E0= -.43311415E+02  d E =-.183809E-02
       N       E                     dE             d eps       ncg     rms          rms(c)
DAV:   1    -0.433112569916E+02   -0.13421E-04   -0.40750E-03 20308   0.512E-01    0.481E-02
DAV:   2    -0.433112895607E+02   -0.32569E-04   -0.60750E-04 18264   0.134E-01
   5 F= -.43311290E+02 E0= -.43311455E+02  d E =-.187933E-02
