       N       E                     dE             d eps       ncg     rms          rms(c)
DAV:   1     0.166073095920E+03    0.16607E+03   -0.12918E+04 18184   0.727E+02
DAV:   2    -0.284850430100E+02   -0.19456E+03   -0.19044E+03 21804   0.285E+02
DAV:   3    -0.428964265522E+02   -0.14411E+02   -0.14304E+02 28712   0.577E+01
DAV:   4    -0.437686322969E+02   -0.87221E+00   -0.86928E+00 28336   0.121E+01
DAV:   5    -0.437848137094E+02   -0.16181E-01   -0.16177E-01 28184   0.165E+00    0.463E+01
DAV:   6    -0.402659864526E+02    0.35188E+01   -0.33219E+01 27520   0.229E+01    0.987E+00
DAV:   7    -0.396760945522E+02    0.58989E+00   -0.25439E+01 29212   0.183E+01    0.192E+01
DAV:   8    -0.388323875600E+02    0.84371E+00   -0.45149E+00 25256   0.871E+00    0.234E+00
DAV:   9    -0.388345532308E+02   -0.21657E-02   -0.28874E-01 28440   0.230E+00    0.990E-01
DAV:  10    -0.388374759797E+02   -0.29227E-02   -0.31417E-02 26512   0.795E-01    0.455E-01
DAV:  11    -0.388363366977E+02    0.11393E-02   -0.17203E-02 25064   0.450E-01    0.198E-01
DAV:  12    -0.388363437848E+02   -0.70871E-05   -0.14742E-03 20272   0.162E-01    0.109E-01
DAV:  13    -0.388363569870E+02   -0.13202E-04   -0.83258E-05 12728   0.615E-02
   1 F= -.38836357E+02 E0= -.38836742E+02  d E =-.388364E+02
       N       E                     dE             d eps       ncg     rms          rms(c)
DAV:   1    -0.421205009449E+02   -0.32842E+01   -0.38006E+02 17304   0.117E+02    0.233E+01
DAV:   2    -0.425291900642E+02   -0.40869E+00   -0.28685E+01 22448   0.334E+01    0.145E+01
DAV:   3    -0.421291105642E+02    0.40008E+00   -0.26300E+00 29992   0.794E+00    0.797E+00
DAV:   4    -0.420678940093E+02    0.61217E-01   -0.10905E+00 32896   0.690E+00    0.335E+00
DAV:   5    -0.420598996156E+02    0.79944E-02   -0.17393E-01 26488   0.209E+00    0.179E+00
DAV:   6    -0.420700181684E+02   -0.10119E-01   -0.36952E-02 31044   0.949E-01    0.293E-01
DAV:   7    -0.420695845398E+02    0.43363E-03   -0.22000E-03 24700   0.275E-01    0.175E-01
DAV:   8    -0.420694690135E+02    0.11553E-03   -0.47664E-04 25796   0.147E-01    0.412E-02
DAV:   9    -0.420694755757E+02   -0.65622E-05   -0.44482E-05 12336   0.503E-02
   2 F= -.42069476E+02 E0= -.42069575E+02  d E =-.323312E+01
       N       E                     dE             d eps       ncg     rms          rms(c)
DAV:   1    -0.422463766484E+02   -0.17691E+00   -0.15862E+01 17304   0.260E+01    0.374E+00
DAV:   2    -0.422535938291E+02   -0.72172E-02   -0.11211E+00 22896   0.739E+00    0.160E+00
DAV:   3    -0.422354910670E+02    0.18103E-01   -0.10208E-01 30328   0.163E+00    0.100E+00
DAV:   4    -0.422319083052E+02    0.35828E-02   -0.28269E-02 32776   0.104E+00    0.681E-01
DAV:   5    -0.422325040344E+02   -0.59573E-03   -0.15706E-03 25084   0.215E-01    0.474E-01
DAV:   6    -0.422331058903E+02   -0.60186E-03   -0.26667E-03 33784   0.240E-01    0.928E-02
DAV:   7    -0.422330832884E+02    0.22602E-04   -0.70073E-05 13472   0.508E-02
   3 F= -.42233083E+02 E0= -.42233157E+02  d E =-.339673E+01
       N       E                     dE             d eps       ncg     rms          rms(c)
DAV:   1    -0.420594690144E+02    0.17364E+00   -0.63239E+01 17304   0.530E+01    0.885E+00
DAV:   2    -0.421000683480E+02   -0.40599E-01   -0.46944E+00 22936   0.153E+01    0.302E+00
DAV:   3    -0.420294636197E+02    0.70605E-01   -0.40914E-01 30120   0.335E+00    0.196E+00
DAV:   4    -0.420202488214E+02    0.92148E-02   -0.10459E-01 33272   0.205E+00    0.125E+00
DAV:   5    -0.420226178812E+02   -0.23691E-02   -0.52233E-03 24652   0.404E-01    0.919E-01
DAV:   6    -0.420255320029E+02   -0.29141E-02   -0.10220E-02 34000   0.476E-01    0.188E-01
DAV:   7    -0.420254477739E+02    0.84229E-04   -0.29772E-04 20352   0.104E-01
   4 F= -.42025448E+02 E0= -.42025592E+02  d E =-.318909E+01
       N       E                     dE             d eps       ncg     rms          rms(c)
DAV:   1    -0.422563688296E+02   -0.23084E+00   -0.38824E+01 17304   0.428E+01    0.525E+00
DAV:   2    -0.423130711247E+02   -0.56702E-01   -0.29416E+00 23152   0.119E+01    0.283E+00
DAV:   3    -0.422665281008E+02    0.46543E-01   -0.30608E-01 28144   0.299E+00    0.225E+00
DAV:   4    -0.422509833615E+02    0.15545E-01   -0.85017E-02 32016   0.177E+00    0.156E+00
DAV:   5    -0.422528160500E+02   -0.18327E-02   -0.47686E-03 24912   0.407E-01    0.104E+00
DAV:   6    -0.422529600239E+02   -0.14397E-03   -0.89109E-03 32168   0.480E-01    0.274E-01
DAV:   7    -0.422529102125E+02    0.49811E-04   -0.39134E-04 20988   0.114E-01
   5 F= -.42252910E+02 E0= -.42252981E+02  d E =-.341655E+01
       N       E                     dE             d eps       ncg     rms          rms(c)
DAV:   1    -0.430553562608E+02   -0.80240E+00   -0.31690E+01 19744   0.413E+01    0.858E+00
DAV:   2    -0.427653551321E+02    0.29000E+00   -0.44807E+00 24096   0.143E+01    0.306E+00
DAV:   3    -0.426426523155E+02    0.12270E+00   -0.65236E-01 31616   0.442E+00    0.137E+00
DAV:   4    -0.426174103746E+02    0.25242E-01   -0.14084E-01 31192   0.233E+00    0.148E+00
DAV:   5    -0.426198871193E+02   -0.24767E-02   -0.81153E-03 22680   0.425E-01    0.114E+00
DAV:   6    -0.426248813340E+02   -0.49942E-02   -0.11810E-02 32384   0.498E-01    0.170E-01
DAV:   7    -0.426249204820E+02   -0.39148E-04   -0.83525E-04 27952   0.184E-01
   6 F= -.42624920E+02 E0= -.42624953E+02  d E =-.372010E+00
       N       E                     dE             d eps       ncg     rms          rms(c)
DAV:   1    -0.431065032567E+02   -0.48162E+00   -0.28207E+01 19776   0.398E+01    0.860E+00
DAV:   2    -0.428334864131E+02    0.27302E+00   -0.36860E+00 23880   0.136E+01    0.258E+00
DAV:   3    -0.427387085357E+02    0.94778E-01   -0.48674E-01 31792   0.389E+00    0.127E+00
DAV:   4    -0.427205405786E+02    0.18168E-01   -0.11004E-01 31824   0.211E+00    0.141E+00
DAV:   5    -0.427225494103E+02   -0.20088E-02   -0.51404E-03 22908   0.364E-01    0.110E+00
DAV:   6    -0.427272408261E+02   -0.46914E-02   -0.12084E-02 32528   0.498E-01    0.169E-01
DAV:   7    -0.427272445033E+02   -0.36772E-05   -0.59361E-04 22380   0.155E-01
   7 F= -.42727245E+02 E0= -.42727080E+02  d E =-.474334E+00
       N       E                     dE             d eps       ncg     rms          rms(c)
DAV:   1    -0.429246667946E+02   -0.19743E+00   -0.11282E+01 19776   0.254E+01    0.260E+00
DAV:   2    -0.429398775370E+02   -0.15211E-01   -0.10423E+00 23928   0.696E+00    0.151E+00
DAV:   3    -0.429303495509E+02    0.95280E-02   -0.63177E-02 27864   0.150E+00    0.775E-01
DAV:   4    -0.429273759715E+02    0.29736E-02   -0.15049E-02 31192   0.834E-01    0.563E-01
DAV:   5    -0.429276932215E+02   -0.31725E-03   -0.11025E-03 24696   0.183E-01    0.347E-01
DAV:   6    -0.429279349189E+02   -0.24170E-03   -0.98958E-04 34296   0.145E-01    0.580E-02
DAV:   7    -0.429279242693E+02    0.10650E-04   -0.24931E-05 12220   0.360E-02
   8 F= -.42927924E+02 E0= -.42927857E+02  d E =-.200680E+00
       N       E                     dE             d eps       ncg     rms          rms(c)
DAV:   1    -0.430280028698E+02   -0.10007E+00   -0.53160E+01 19432   0.554E+01    0.652E+00
DAV:   2    -0.431059250910E+02   -0.77922E-01   -0.48769E+00 24196   0.150E+01    0.303E+00
DAV:   3    -0.430648769866E+02    0.41048E-01   -0.28832E-01 29000   0.323E+00    0.155E+00
DAV:   4    -0.430535556563E+02    0.11321E-01   -0.69861E-02 31944   0.185E+00    0.116E+00
DAV:   5    -0.430549380637E+02   -0.13824E-02   -0.46992E-03 24504   0.391E-01    0.762E-01
DAV:   6    -0.430561762145E+02   -0.12382E-02   -0.45008E-03 34456   0.321E-01    0.125E-01
DAV:   7    -0.430561182835E+02    0.57931E-04   -0.12461E-04 14412   0.832E-02
   9 F= -.43056118E+02 E0= -.43056040E+02  d E =-.328874E+00
       N       E                     dE             d eps       ncg     rms          rms(c)
DAV:   1    -0.430631097168E+02   -0.69335E-02   -0.21562E+00 18996   0.113E+01    0.116E+00
DAV:   2    -0.430672036064E+02   -0.40939E-02   -0.21313E-01 23732   0.319E+00    0.611E-01
DAV:   3    -0.430653776053E+02    0.18260E-02   -0.12529E-02 25872   0.692E-01    0.361E-01
DAV:   4    -0.430647570418E+02    0.62056E-03   -0.32761E-03 31000   0.362E-01    0.248E-01
DAV:   5    -0.430648036834E+02   -0.46642E-04   -0.18997E-04 18704   0.779E-02
  10 F= -.43064804E+02 E0= -.43064685E+02  d E =-.337559E+00
       N       E                     dE             d eps       ncg     rms          rms(c)
DAV:   1    -0.432520849552E+02   -0.18733E+00   -0.40800E+00 19688   0.151E+01    0.232E+00
DAV:   2    -0.432355720721E+02    0.16513E-01   -0.33430E-01 24088   0.407E+00    0.872E-01
DAV:   3    -0.432253093271E+02    0.10263E-01   -0.40251E-02 29928   0.108E+00    0.591E-01
DAV:   4    -0.432236595209E+02    0.16498E-02   -0.10475E-02 32560   0.644E-01    0.549E-01
DAV:   5    -0.432239346014E+02   -0.27508E-03   -0.49309E-04 21100   0.131E-01    0.350E-01
DAV:   6    -0.432240934962E+02   -0.15889E-03   -0.12305E-03 32888   0.192E-01    0.957E-02
DAV:   7    -0.432240867411E+02    0.67552E-05   -0.44590E-05 12164   0.432E-02
  11 F= -.43224087E+02 E0= -.43223947E+02  d E =-.159283E+00
       N       E                     dE             d eps       ncg     rms          rms(c)
DAV:   1    -0.436627201912E+02   -0.43863E+00   -0.36079E+01 18448   0.449E+01    0.616E+00
DAV:   2    -0.435411142180E+02    0.12161E+00   -0.32611E+00 24176   0.127E+01    0.262E+00
DAV:   3    -0.434490192110E+02    0.92095E-01   -0.34528E-01 27664   0.333E+00    0.193E+00
DAV:   4    -0.434262940566E+02    0.22725E-01   -0.10302E-01 32544   0.195E+00    0.176E+00
DAV:   5    -0.434295857462E+02   -0.32917E-02   -0.57317E-03 22516   0.429E-01    0.989E-01
DAV:   6    -0.434293549464E+02    0.23080E-03   -0.14195E-02 33224   0.635E-01    0.392E-01
DAV:   7    -0.434292732045E+02    0.81742E-04   -0.62378E-04 21608   0.147E-01
  12 F= -.43429273E+02 E0= -.43429098E+02  d E =-.364470E+00
       N       E                     dE             d eps       ncg     rms          rms(c)
DAV:   1    -0.434332534414E+02   -0.38985E-02   -0.72005E+00 19776   0.233E+01    0.165E+00
DAV:   2    -0.435097323931E+02   -0.76479E-01   -0.96120E-01 17716   0.524E+00    0.723E-01
DAV:   3    -0.435087585291E+02    0.97386E-03   -0.24794E-02 27104   0.916E-01    0.351E-01
DAV:   4    -0.435080993437E+02    0.65919E-03   -0.41186E-03 29272   0.437E-01    0.175E-01
DAV:   5    -0.435081446522E+02   -0.45308E-04   -0.49223E-04 23964   0.132E-01
  13 F= -.43508145E+02 E0= -.43508067E+02  d E =-.788714E-01
       N       E                     dE             d eps       ncg     rms          rms(c)
DAV:   1    -0.434844958222E+02    0.23604E-01   -0.36767E+00 19776   0.168E+01    0.114E+00
DAV:   2    -0.435239347217E+02   -0.39439E-01   -0.49718E-01 17868   0.377E+00    0.510E-01
DAV:   3    -0.435235117247E+02    0.42300E-03   -0.12988E-02 27100   0.661E-01    0.261E-01
DAV:   4    -0.435232081347E+02    0.30359E-03   -0.22044E-03 29320   0.317E-01    0.129E-01
DAV:   5    -0.435232369004E+02   -0.28766E-04   -0.25244E-04 18544   0.985E-02
  14 F= -.43523237E+02 E0= -.43523241E+02  d E =-.939637E-01
       N       E                     dE             d eps       ncg     rms          rms(c)
DAV:   1    -0.435937283234E+02   -0.70520E-01   -0.51458E+00 19776   0.164E+01    0.166E+00
DAV:   2    -0.435957846580E+02   -0.20563E-02   -0.40266E-01 22264   0.427E+00    0.858E-01
DAV:   3    -0.435908217291E+02    0.49629E-02   -0.23485E-02 28320   0.924E-01    0.403E-01
DAV:   4    -0.435890835920E+02    0.17381E-02   -0.66191E-03 29880   0.511E-01    0.265E-01
DAV:   5    -0.435891747183E+02   -0.91126E-04   -0.57155E-04 25160   0.132E-01
  15 F= -.43589175E+02 E0= -.43589359E+02  d E =-.659378E-01
       N       E                     dE             d eps       ncg     rms          rms(c)
DAV:   1    -0.436424664299E+02   -0.53383E-01   -0.13844E+01 19776   0.269E+01    0.290E+00
DAV:   2    -0.436467583991E+02   -0.42920E-02   -0.11257E+00 22656   0.711E+00    0.143E+00
DAV:   3    -0.436323543307E+02    0.14404E-01   -0.72538E-02 29080   0.163E+00    0.667E-01
DAV:   4    -0.436273457329E+02    0.50086E-02   -0.19306E-02 29768   0.881E-01    0.439E-01
DAV:   5    -0.436275871942E+02   -0.24146E-03   -0.16098E-03 25860   0.222E-01    0.292E-01
DAV:   6    -0.436277714093E+02   -0.18422E-03   -0.81031E-04 32648   0.153E-01    0.546E-02
DAV:   7    -0.436277604116E+02    0.10998E-04   -0.38946E-05 12252   0.494E-02
  16 F= -.43627760E+02 E0= -.43627952E+02  d E =-.104524E+00
       N       E                     dE             d eps       ncg     rms          rms(c)
DAV:   1    -0.436313035380E+02   -0.35321E-02   -0.28182E+00 19784   0.139E+01    0.793E-01
DAV:   2    -0.436535464777E+02   -0.22243E-01   -0.31613E-01 18392   0.308E+00    0.439E-01
DAV:   3    -0.436522200196E+02    0.13265E-02   -0.84932E-03 27972   0.556E-01    0.236E-01
DAV:   4    -0.436515543351E+02    0.66568E-03   -0.22175E-03 25380   0.325E-01    0.711E-02
DAV:   5    -0.436515689870E+02   -0.14652E-04   -0.27264E-04 16712   0.106E-01
  17 F= -.43651569E+02 E0= -.43651758E+02  d E =-.238086E-01
       N       E                     dE             d eps       ncg     rms          rms(c)
DAV:   1    -0.436507704537E+02    0.78388E-03   -0.33140E-01 19824   0.478E+00    0.267E-01
DAV:   2    -0.436534370097E+02   -0.26666E-02   -0.37526E-02 18816   0.106E+00    0.150E-01
DAV:   3    -0.436532799706E+02    0.15704E-03   -0.10078E-03 26704   0.192E-01    0.797E-02
DAV:   4    -0.436532019858E+02    0.77985E-04   -0.24016E-04 16060   0.115E-01
  18 F= -.43653202E+02 E0= -.43653386E+02  d E =-.254416E-01
       N       E                     dE             d eps       ncg     rms          rms(c)
DAV:   1    -0.436533842818E+02   -0.10431E-03   -0.20803E+00 19780   0.119E+01    0.785E-01
DAV:   2    -0.436693949896E+02   -0.16011E-01   -0.21096E-01 18928   0.265E+00    0.395E-01
DAV:   3    -0.436689799604E+02    0.41503E-03   -0.59032E-03 28580   0.452E-01    0.212E-01
DAV:   4    -0.436687706782E+02    0.20928E-03   -0.11015E-03 26788   0.231E-01    0.581E-02
DAV:   5    -0.436687796925E+02   -0.90143E-05   -0.13185E-04 14700   0.778E-02
  19 F= -.43668780E+02 E0= -.43668971E+02  d E =-.155777E-01
       N       E                     dE             d eps       ncg     rms          rms(c)
DAV:   1    -0.436641888776E+02    0.45818E-02   -0.10288E+00 19776   0.840E+00    0.550E-01
DAV:   2    -0.436721508620E+02   -0.79620E-02   -0.10472E-01 19088   0.187E+00    0.282E-01
DAV:   3    -0.436719560485E+02    0.19481E-03   -0.29166E-03 28412   0.318E-01    0.152E-01
DAV:   4    -0.436718523214E+02    0.10373E-03   -0.52160E-04 21304   0.165E-01    0.413E-02
DAV:   5    -0.436718591940E+02   -0.68727E-05   -0.83843E-05 12324   0.683E-02
  20 F= -.43671859E+02 E0= -.43672057E+02  d E =-.186572E-01
       N       E                     dE             d eps       ncg     rms          rms(c)
DAV:   1    -0.436704977409E+02    0.13546E-02   -0.21431E+00 19776   0.120E+01    0.938E-01
DAV:   2    -0.436833787556E+02   -0.12881E-01   -0.22743E-01 19656   0.285E+00    0.398E-01
DAV:   3    -0.436822850272E+02    0.10937E-02   -0.93545E-03 26984   0.557E-01    0.245E-01
DAV:   4    -0.436819695680E+02    0.31546E-03   -0.17867E-03 31632   0.275E-01    0.185E-01
DAV:   5    -0.436820001160E+02   -0.30548E-04   -0.11061E-04 15060   0.630E-02
  21 F= -.43682000E+02 E0= -.43682215E+02  d E =-.101409E-01
       N       E                     dE             d eps       ncg     rms          rms(c)
DAV:   1    -0.436811344894E+02    0.83508E-03   -0.18427E-01 19868   0.352E+00    0.276E-01
DAV:   2    -0.436822647732E+02   -0.11303E-02   -0.19506E-02 19900   0.836E-01    0.114E-01
DAV:   3    -0.436821800414E+02    0.84732E-04   -0.79974E-04 26492   0.162E-01
  22 F= -.43682180E+02 E0= -.43682393E+02  d E =-.103208E-01
       N       E                     dE             d eps       ncg     rms          rms(c)
DAV:   1    -0.436966409140E+02   -0.14376E-01   -0.10313E+00 17312   0.658E+00    0.911E-01
DAV:   2    -0.436928022856E+02    0.38386E-02   -0.63693E-02 25040   0.192E+00    0.345E-01
DAV:   3    -0.436910382336E+02    0.17641E-02   -0.65679E-03 26316   0.480E-01    0.238E-01
DAV:   4    -0.436904898725E+02    0.54836E-03   -0.24530E-03 32488   0.296E-01    0.219E-01
DAV:   5    -0.436905306015E+02   -0.40729E-04   -0.11204E-04 16520   0.600E-02
  23 F= -.43690531E+02 E0= -.43690726E+02  d E =-.835056E-02
       N       E                     dE             d eps       ncg     rms          rms(c)
DAV:   1    -0.437023086778E+02   -0.11819E-01   -0.14926E+00 17304   0.790E+00    0.108E+00
DAV:   2    -0.436966838061E+02    0.56249E-02   -0.92607E-02 24992   0.230E+00    0.433E-01
DAV:   3    -0.436941401896E+02    0.25436E-02   -0.96345E-03 26424   0.580E-01    0.267E-01
DAV:   4    -0.436933183877E+02    0.82180E-03   -0.34559E-03 32112   0.353E-01    0.248E-01
DAV:   5    -0.436933739708E+02   -0.55583E-04   -0.17121E-04 19244   0.724E-02
  24 F= -.43693374E+02 E0= -.43693551E+02  d E =-.111939E-01
       N       E                     dE             d eps       ncg     rms          rms(c)
DAV:   1    -0.436919720921E+02    0.13463E-02   -0.17174E+00 19776   0.107E+01    0.909E-01
DAV:   2    -0.437017211275E+02   -0.97490E-02   -0.17478E-01 19380   0.244E+00    0.375E-01
DAV:   3    -0.437008630207E+02    0.85811E-03   -0.72155E-03 27416   0.481E-01    0.228E-01
DAV:   4    -0.437006463213E+02    0.21670E-03   -0.13529E-03 30432   0.250E-01    0.149E-01
DAV:   5    -0.437006702813E+02   -0.23960E-04   -0.10276E-04 12808   0.672E-02
  25 F= -.43700670E+02 E0= -.43700863E+02  d E =-.729631E-02
       N       E                     dE             d eps       ncg     rms          rms(c)
DAV:   1    -0.437004836035E+02    0.16272E-03   -0.60402E-02 19980   0.200E+00    0.154E-01
DAV:   2    -0.437008289075E+02   -0.34530E-03   -0.61509E-03 19976   0.462E-01    0.615E-02
DAV:   3    -0.437008046972E+02    0.24210E-04   -0.23062E-04 21388   0.904E-02
  26 F= -.43700805E+02 E0= -.43700999E+02  d E =-.743073E-02
       N       E                     dE             d eps       ncg     rms          rms(c)
DAV:   1    -0.437112780270E+02   -0.10449E-01   -0.12028E+00 19784   0.856E+00    0.112E+00
DAV:   2    -0.437088763671E+02    0.24017E-02   -0.13709E-01 23440   0.248E+00    0.403E-01
DAV:   3    -0.437067216677E+02    0.21547E-02   -0.11620E-02 30232   0.639E-01    0.221E-01
DAV:   4    -0.437061614940E+02    0.56017E-03   -0.26294E-03 32008   0.326E-01    0.240E-01
DAV:   5    -0.437062269312E+02   -0.65437E-04   -0.12893E-04 17488   0.618E-02
  27 F= -.43706227E+02 E0= -.43706383E+02  d E =-.542223E-02
       N       E                     dE             d eps       ncg     rms          rms(c)
DAV:   1    -0.437087893475E+02   -0.26279E-02   -0.50181E-01 19784   0.554E+00    0.733E-01
DAV:   2    -0.437076394099E+02    0.11499E-02   -0.57989E-02 23448   0.162E+00    0.274E-01
DAV:   3    -0.437067012342E+02    0.93818E-03   -0.50147E-03 30336   0.421E-01    0.141E-01
DAV:   4    -0.437064690619E+02    0.23217E-03   -0.11206E-03 30696   0.214E-01    0.154E-01
DAV:   5    -0.437064995728E+02   -0.30511E-04   -0.62701E-05 13032   0.422E-02
  28 F= -.43706500E+02 E0= -.43706635E+02  d E =-.569488E-02
       N       E                     dE             d eps       ncg     rms          rms(c)
DAV:   1    -0.437082451032E+02   -0.17760E-02   -0.86544E-01 19776   0.691E+00    0.515E-01
DAV:   2    -0.437113042493E+02   -0.30591E-02   -0.57655E-02 20264   0.146E+00    0.281E-01
DAV:   3    -0.437106780150E+02    0.62623E-03   -0.21869E-03 25484   0.288E-01    0.118E-01
DAV:   4    -0.437105678217E+02    0.11019E-03   -0.44245E-04 20924   0.138E-01    0.488E-02
DAV:   5    -0.437105674408E+02    0.38090E-06   -0.45009E-05 12232   0.509E-02
  29 F= -.43710567E+02 E0= -.43710705E+02  d E =-.406787E-02
       N       E                     dE             d eps       ncg     rms          rms(c)
DAV:   1    -0.437105794561E+02   -0.11634E-04   -0.12912E-02 20720   0.840E-01    0.606E-02
DAV:   2    -0.437106256410E+02   -0.46185E-04   -0.85622E-04 20456   0.175E-01
  30 F= -.43710626E+02 E0= -.43710764E+02  d E =-.412607E-02
       N       E                     dE             d eps       ncg     rms          rms(c)
DAV:   1    -0.437133766953E+02   -0.27972E-02   -0.11339E+00 19776   0.890E+00    0.984E-01
DAV:   2    -0.437159548485E+02   -0.25782E-02   -0.15635E-01 22604   0.242E+00    0.385E-01
DAV:   3    -0.437141471157E+02    0.18077E-02   -0.99354E-03 28284   0.596E-01    0.210E-01
DAV:   4    -0.437136087597E+02    0.53836E-03   -0.25399E-03 31240   0.317E-01    0.214E-01
DAV:   5    -0.437136572508E+02   -0.48491E-04   -0.12568E-04 17728   0.645E-02
  31 F= -.43713657E+02 E0= -.43713808E+02  d E =-.303161E-02
       N       E                     dE             d eps       ncg     rms          rms(c)
DAV:   1    -0.437136349338E+02   -0.26174E-04   -0.46390E-03 21492   0.566E-01    0.775E-02
DAV:   2    -0.437136363013E+02   -0.13675E-05   -0.64913E-04 21016   0.159E-01
  32 F= -.43713636E+02 E0= -.43713789E+02  d E =-.301066E-02
       N       E                     dE             d eps       ncg     rms          rms(c)
DAV:   1    -0.437146844352E+02   -0.10495E-02   -0.19814E-01 19776   0.354E+00    0.389E-01
DAV:   2    -0.437149547695E+02   -0.27033E-03   -0.20762E-02 21984   0.906E-01    0.142E-01
DAV:   3    -0.437146940283E+02    0.26074E-03   -0.14281E-03 28584   0.219E-01    0.892E-02
DAV:   4    -0.437146190169E+02    0.75011E-04   -0.24307E-04 15876   0.116E-01
  33 F= -.43714619E+02 E0= -.43714766E+02  d E =-.982716E-03
       N       E                     dE             d eps       ncg     rms          rms(c)
DAV:   1    -0.437146955333E+02   -0.15050E-05   -0.80744E-02 19776   0.227E+00    0.247E-01
DAV:   2    -0.437147848928E+02   -0.89359E-04   -0.83970E-03 22304   0.571E-01    0.911E-02
DAV:   3    -0.437146772497E+02    0.10764E-03   -0.61526E-04 26312   0.142E-01    0.742E-02
DAV:   4    -0.437146498598E+02    0.27390E-04   -0.10877E-04 11748   0.856E-02
  34 F= -.43714650E+02 E0= -.43714794E+02  d E =-.101356E-02
       N       E                     dE             d eps       ncg     rms          rms(c)
DAV:   1    -0.437159565708E+02   -0.12793E-02   -0.11260E-01 19776   0.251E+00    0.269E-01
DAV:   2    -0.437160263210E+02   -0.69750E-04   -0.87890E-03 20912   0.566E-01    0.126E-01
DAV:   3    -0.437158538003E+02    0.17252E-03   -0.55864E-04 24376   0.145E-01    0.610E-02
DAV:   4    -0.437157979440E+02    0.55856E-04   -0.14504E-04 12136   0.923E-02
  35 F= -.43715798E+02 E0= -.43715943E+02  d E =-.114808E-02
       N       E                     dE             d eps       ncg     rms          rms(c)
DAV:   1    -0.437164573592E+02   -0.60356E-03   -0.24024E-01 19776   0.368E+00    0.372E-01
DAV:   2    -0.437166448650E+02   -0.18751E-03   -0.18567E-02 20692   0.820E-01    0.155E-01
DAV:   3    -0.437162989604E+02    0.34590E-03   -0.11838E-03 27056   0.207E-01    0.916E-02
DAV:   4    -0.437162068531E+02    0.92107E-04   -0.29596E-04 16072   0.126E-01
  36 F= -.43716207E+02 E0= -.43716358E+02  d E =-.155699E-02
       N       E                     dE             d eps       ncg     rms          rms(c)
DAV:   1    -0.437171269380E+02   -0.82798E-03   -0.44899E-02 17356   0.134E+00    0.189E-01
DAV:   2    -0.437169310468E+02    0.19589E-03   -0.27120E-03 24152   0.388E-01    0.701E-02
DAV:   3    -0.437168557725E+02    0.75274E-04   -0.27849E-04 15824   0.105E-01
  37 F= -.43716856E+02 E0= -.43717013E+02  d E =-.648919E-03
       N       E                     dE             d eps       ncg     rms          rms(c)
DAV:   1    -0.437196430113E+02   -0.27120E-02   -0.39908E-01 17304   0.400E+00    0.596E-01
DAV:   2    -0.437177078708E+02    0.19351E-02   -0.25150E-02 24704   0.122E+00    0.227E-01
DAV:   3    -0.437170017624E+02    0.70611E-03   -0.28861E-03 26316   0.318E-01    0.139E-01
DAV:   4    -0.437167779960E+02    0.22377E-03   -0.10010E-03 29280   0.192E-01    0.127E-01
DAV:   5    -0.437168003246E+02   -0.22329E-04   -0.54430E-05 12512   0.382E-02
  38 F= -.43716800E+02 E0= -.43716971E+02  d E =-.593472E-03
