       N       E                     dE             d eps       ncg     rms          rms(c)
DAV:   1     0.115098484422E+03    0.11510E+03   -0.11191E+04 16264   0.646E+02
DAV:   2    -0.520132137539E+02   -0.16711E+03   -0.16190E+03 19084   0.252E+02
DAV:   3    -0.623193533505E+02   -0.10306E+02   -0.10222E+02 25280   0.506E+01
DAV:   4    -0.627839509308E+02   -0.46460E+00   -0.46295E+00 24672   0.894E+00
DAV:   5    -0.627915927287E+02   -0.76418E-02   -0.76407E-02 23420   0.943E-01    0.371E+01
DAV:   6    -0.597465559333E+02    0.30450E+01   -0.58003E+00 23016   0.154E+01    0.159E+01
DAV:   7    -0.588823684822E+02    0.86419E+00   -0.16264E+00 21800   0.595E+00    0.749E+00
DAV:   8    -0.588164931716E+02    0.65875E-01   -0.46643E-01 21844   0.358E+00    0.193E+00
DAV:   9    -0.588165700143E+02   -0.76843E-04   -0.34218E-02 19520   0.113E+00    0.576E-01
DAV:  10    -0.588184907704E+02   -0.19208E-02   -0.10081E-02 21208   0.505E-01    0.194E-01
DAV:  11    -0.588194563091E+02   -0.96554E-03   -0.92275E-04 18428   0.201E-01    0.597E-02
DAV:  12    -0.588197275949E+02   -0.27129E-03   -0.39144E-04 18328   0.111E-01    0.461E-02
DAV:  13    -0.588197416992E+02   -0.14104E-04   -0.56981E-05 14532   0.433E-02
   1 F= -.58819742E+02 E0= -.58819866E+02  d E =-.588197E+02
       N       E                     dE             d eps       ncg     rms          rms(c)
DAV:   1    -0.588203887542E+02   -0.66116E-03   -0.32087E-02 16668   0.117E+00    0.944E-02
DAV:   2    -0.588204826577E+02   -0.93904E-04   -0.21832E-03 20404   0.290E-01    0.588E-02
DAV:   3    -0.588204494155E+02    0.33242E-04   -0.50665E-05 11148   0.506E-02
   2 F= -.58820449E+02 E0= -.58820571E+02  d E =-.707716E-03
       N       E                     dE             d eps       ncg     rms          rms(c)
DAV:   1    -0.588204337230E+02    0.48935E-04   -0.82736E-05 12444   0.665E-02    0.249E-02
DAV:   2    -0.588204352445E+02   -0.15215E-05   -0.16994E-05 10220   0.352E-02
   3 F= -.58820435E+02 E0= -.58820558E+02  d E =-.693545E-03
