unknown system                          
           1
     3.715615    0.105785   -0.073069
     0.270813    6.249297    0.027936
     0.365743    0.448076    6.742586
   H    Sr   H    Nb   H    Nb   H 
   7   1   1   1  10   1   2
Direct configuration=     1
   0.42300153  0.10473966  0.34068358
   0.31221014  0.28963829  0.56022060
   0.98858910  0.60112575  0.73729104
   0.02539826  0.63429603  0.84070326
   0.79485558  0.29948846  0.69567494
   0.25137697  0.87645933  0.76522191
   0.83350422  0.00450395  0.84189904
   0.29659687  0.22858566  0.94412328
   0.43219828  0.90377825  0.72033647
   0.73075004  0.29891282  0.41398273
   0.94333473  0.06077817  0.27601636
   0.51811199  0.59142338  0.90412897
   0.49789067  0.60212756  0.01425873
   0.32058856  0.39697483  0.29047565
   0.78088293  0.31921981  0.13372149
   0.79452525  0.56441935  0.24790649
   0.95602240  0.79908781  0.14894429
   0.17614498  0.74342483  0.41940321
   0.47044116  0.88534778  0.13024937
   0.81803009  0.94731164  0.94776559
   0.68766548  0.82628529  0.36114904
   0.64743553  0.58645997  0.54661984
   0.78099723  0.01439737  0.56001412
unknown system                          
           1
     3.719622    0.105096   -0.075925
     0.270067    6.242517    0.025367
     0.360776    0.445031    6.733338
   H    Sr   H    Nb   H    Nb   H 
   7   1   1   1  10   1   2
Direct configuration=     2
   0.42371554  0.10477633  0.34065112
   0.31214459  0.28976161  0.56038292
   0.98946676  0.60152212  0.73899318
   0.02497989  0.63318478  0.83876290
   0.79492749  0.29949523  0.69594095
   0.25154290  0.87655676  0.76555166
   0.83321207  0.00424907  0.84217633
   0.29642212  0.22853370  0.94377618
   0.43188139  0.90409057  0.72002583
   0.73121454  0.29820289  0.41377806
   0.94389182  0.06119462  0.27580536
   0.51789629  0.59153810  0.90412361
   0.49786579  0.60217019  0.01429562
   0.32060510  0.39728086  0.29029641
   0.78102758  0.31947213  0.13355056
   0.79462071  0.56431704  0.24812629
   0.95614126  0.79893725  0.14873149
   0.17715316  0.74376782  0.41955964
   0.47043271  0.88513667  0.13027179
   0.81784386  0.94787138  0.94748122
   0.68518471  0.82626824  0.36169203
   0.64736378  0.58599815  0.54669751
   0.78101793  0.01446048  0.56011934
unknown system                          
           1
     3.717530    0.105456   -0.074434
     0.270456    6.246057    0.026708
     0.363369    0.446621    6.738165
   H    Sr   H    Nb   H    Nb   H 
   7   1   1   1  10   1   2
Direct configuration=     3
   0.42334325  0.10475714  0.34066793
   0.31217866  0.28969714  0.56029806
   0.98900806  0.60131461  0.73810313
   0.02519928  0.63376589  0.83977753
   0.79488983  0.29949164  0.69580188
   0.25145617  0.87650578  0.76537923
   0.83336425  0.00438223  0.84203149
   0.29651345  0.22856093  0.94395767
   0.43204681  0.90392744  0.72018822
   0.73097249  0.29857390  0.41388509
   0.94360144  0.06097700  0.27591546
   0.51800877  0.59147817  0.90412643
   0.49787874  0.60214791  0.01427633
   0.32059657  0.39712097  0.29039005
   0.78095225  0.31934030  0.13363983
   0.79457080  0.56437046  0.24801139
   0.95607942  0.79901596  0.14884273
   0.17662735  0.74358850  0.41947758
   0.47043711  0.88524699  0.13026012
   0.81794112  0.94757894  0.94762980
   0.68647794  0.82627718  0.36140872
   0.64740116  0.58623947  0.54665701
   0.78100707  0.01442747  0.56006432
unknown system                          
           1
     3.721272    0.104935   -0.076472
     0.269977    6.240271    0.025413
     0.359908    0.444956    6.732285
   H    Sr   H    Nb   H    Nb   H 
   7   1   1   1  10   1   2
Direct configuration=     4
   0.42393180  0.10481206  0.34056734
   0.31226944  0.28982172  0.56041669
   0.98918238  0.60096625  0.73761610
   0.02558969  0.63326706  0.84000601
   0.79499666  0.29949892  0.69612119
   0.25186640  0.87665702  0.76572957
   0.83306324  0.00430370  0.84193348
   0.29630841  0.22850996  0.94357340
   0.43141934  0.90425493  0.71987075
   0.73121080  0.29811508  0.41382697
   0.94405560  0.06126426  0.27570123
   0.51777086  0.59160069  0.90401803
   0.49784379  0.60222026  0.01437415
   0.32074563  0.39744232  0.29019675
   0.78114310  0.31961972  0.13338504
   0.79467506  0.56425722  0.24826318
   0.95577222  0.79886777  0.14886150
   0.17723333  0.74402091  0.41968337
   0.47021035  0.88501435  0.13020608
   0.81768675  0.94798828  0.94771676
   0.68533432  0.82606578  0.36166434
   0.64722968  0.58572728  0.54678177
   0.78101314  0.01449045  0.56027629
unknown system                          
           1
     3.724727    0.104454   -0.078354
     0.269534    6.234928    0.024216
     0.356712    0.443420    6.726856
   H    Sr   H    Nb   H    Nb   H 
   7   1   1   1  10   1   2
Direct configuration=     5
   0.42447465  0.10486286  0.34047453
   0.31235327  0.28993689  0.56052638
   0.98934280  0.60064420  0.73716595
   0.02594998  0.63280607  0.84021719
   0.79509545  0.29950572  0.69641634
   0.25224510  0.87679691  0.76605351
   0.83278549  0.00423107  0.84184281
   0.29611897  0.22846277  0.94321818
   0.43084030  0.90455752  0.71957721
   0.73143057  0.29769102  0.41377323
   0.94447439  0.06152976  0.27550340
   0.51755132  0.59171389  0.90391780
   0.49781164  0.60228715  0.01446456
   0.32088300  0.39773932  0.29001820
   0.78131898  0.31987795  0.13314966
   0.79477142  0.56415262  0.24849590
   0.95548884  0.79873077  0.14887873
   0.17779250  0.74442066  0.41987381
   0.47000111  0.88479931  0.13015604
   0.81745220  0.94836662  0.94779714
   0.68427956  0.82587035  0.36190025
   0.64707157  0.58525388  0.54689694
   0.78101890  0.01454870  0.56047222
unknown system                          
           1
     3.726862    0.104132   -0.079524
     0.269212    6.231954    0.023560
     0.354688    0.442588    6.722080
   H    Sr   H    Nb   H    Nb   H 
   7   1   1   1  10   1   2
Direct configuration=     6
   0.42469976  0.10486580  0.34034233
   0.31254331  0.29000456  0.56055337
   0.98953423  0.60044937  0.73700778
   0.02615965  0.63238491  0.84019468
   0.79518212  0.29950638  0.69661849
   0.25239260  0.87687288  0.76636374
   0.83256296  0.00421794  0.84168694
   0.29596840  0.22846200  0.94294552
   0.43048540  0.90482603  0.71930729
   0.73138941  0.29766544  0.41384628
   0.94460708  0.06153077  0.27538589
   0.51739147  0.59181004  0.90389042
   0.49781831  0.60234221  0.01446303
   0.32113151  0.39793232  0.28989851
   0.78146192  0.32005830  0.13295772
   0.79487199  0.56406448  0.24864913
   0.95500006  0.79862471  0.14902975
   0.17780580  0.74474615  0.42003631
   0.46971025  0.88461491  0.13008577
   0.81727135  0.94859125  0.94794759
   0.68467616  0.82573390  0.36190385
   0.64688837  0.58493620  0.54700997
   0.78099988  0.01454544  0.56066563
unknown system                          
           1
     3.733265    0.103165   -0.083034
     0.268243    6.223032    0.021593
     0.348615    0.440094    6.707754
   H    Sr   H    Nb   H    Nb   H 
   7   1   1   1  10   1   2
Direct configuration=     7
   0.42537453  0.10487464  0.33994557
   0.31311311  0.29020771  0.56063449
   0.99010792  0.59986461  0.73653297
   0.02678820  0.63112087  0.84012708
   0.79544225  0.29950842  0.69722542
   0.25283530  0.87710100  0.76729520
   0.83189558  0.00417846  0.84121886
   0.29551657  0.22845962  0.94212691
   0.42942098  0.90563184  0.71849685
   0.73126611  0.29758866  0.41406555
   0.94500474  0.06153382  0.27503318
   0.51691216  0.59209860  0.90380816
   0.49783831  0.60250747  0.01445847
   0.32187646  0.39851160  0.28953938
   0.78189023  0.32059958  0.13238162
   0.79517370  0.56379999  0.24910915
   0.95353479  0.79830633  0.14948286
   0.17784594  0.74572312  0.42052427
   0.46883808  0.88406138  0.12987459
   0.81672939  0.94926545  0.94839922
   0.68586526  0.82532443  0.36191479
   0.64633924  0.58398271  0.54734911
   0.78094314  0.01453570  0.56124630
unknown system                          
           1
     3.733881    0.102897   -0.083532
     0.267805    6.224915    0.022474
     0.347680    0.441197    6.706199
   H    Sr   H    Nb   H    Nb   H 
   7   1   1   1  10   1   2
Direct configuration=     8
   0.42526750  0.10474176  0.33974496
   0.31337292  0.29021654  0.56056171
   0.99029232  0.59975496  0.73655903
   0.02688245  0.63079624  0.84000289
   0.79551290  0.29950295  0.69730562
   0.25311345  0.87714797  0.76752419
   0.83168706  0.00408006  0.84129081
   0.29546294  0.22851776  0.94202206
   0.42885001  0.90581468  0.71833066
   0.73113361  0.29801975  0.41416028
   0.94485400  0.06124219  0.27501095
   0.51688624  0.59216547  0.90362285
   0.49787894  0.60258169  0.01453783
   0.32232178  0.39858225  0.28949646
   0.78198639  0.32066100  0.13227822
   0.79544775  0.56364746  0.24907162
   0.95328199  0.79816974  0.14941224
   0.17762731  0.74596594  0.42063186
   0.46860148  0.88387977  0.12981951
   0.81663333  0.94944824  0.94834957
   0.68638212  0.82550115  0.36212283
   0.64614938  0.58390075  0.54747371
   0.78092614  0.01444766  0.56146013
unknown system                          
           1
     3.734777    0.102507   -0.084257
     0.267168    6.227654    0.023755
     0.346321    0.442804    6.703936
   H    Sr   H    Nb   H    Nb   H 
   7   1   1   1  10   1   2
Direct configuration=     9
   0.42511165  0.10454848  0.33945294
   0.31375095  0.29022943  0.56045578
   0.99056062  0.59959543  0.73659702
   0.02701948  0.63032396  0.83982218
   0.79561574  0.29949497  0.69742239
   0.25351829  0.87721627  0.76785755
   0.83138363  0.00393687  0.84139555
   0.29538487  0.22860236  0.94186943
   0.42801916  0.90608073  0.71808863
   0.73094093  0.29864695  0.41429809
   0.94463459  0.06081788  0.27497863
   0.51684848  0.59226283  0.90335308
   0.49793810  0.60268967  0.01465334
   0.32296977  0.39868507  0.28943402
   0.78212627  0.32075040  0.13212769
   0.79584648  0.56342556  0.24901704
   0.95291408  0.79797101  0.14930944
   0.17730926  0.74631919  0.42078840
   0.46825715  0.88361555  0.12973936
   0.81649356  0.94971421  0.94827723
   0.68713433  0.82575824  0.36242571
   0.64587315  0.58378145  0.54765508
   0.78090145  0.01431950  0.56177142
unknown system                          
           1
     3.735544    0.102152   -0.084866
     0.266559    6.230837    0.024582
     0.345197    0.443939    6.702630
   H    Sr   H    Nb   H    Nb   H 
   7   1   1   1  10   1   2
Direct configuration=    10
   0.42507138  0.10445895  0.33923213
   0.31398531  0.29025452  0.56037532
   0.99070107  0.59939869  0.73639863
   0.02721123  0.63004052  0.83992610
   0.79568947  0.29948434  0.69749358
   0.25345846  0.87719125  0.76825814
   0.83117086  0.00391228  0.84131252
   0.29536866  0.22868164  0.94181744
   0.42766560  0.90636539  0.71778717
   0.73096948  0.29891806  0.41430374
   0.94443885  0.06055844  0.27499281
   0.51680852  0.59236961  0.90338257
   0.49805769  0.60276540  0.01445969
   0.32344237  0.39879673  0.28936725
   0.78221994  0.32079891  0.13205988
   0.79619651  0.56333375  0.24896725
   0.95270144  0.79781814  0.14920744
   0.17721982  0.74659804  0.42092468
   0.46813480  0.88340660  0.12980301
   0.81636510  0.94980964  0.94838440
   0.68710237  0.82585283  0.36248467
   0.64567238  0.58371993  0.54783144
   0.78090067  0.01425235  0.56202014
unknown system                          
           1
     3.736674    0.101630   -0.085763
     0.265661    6.235526    0.025800
     0.343540    0.445612    6.700706
   H    Sr   H    Nb   H    Nb   H 
   7   1   1   1  10   1   2
Direct configuration=    11
   0.42501192  0.10432714  0.33890668
   0.31433058  0.29029152  0.56025674
   0.99090786  0.59910898  0.73610626
   0.02749372  0.62962301  0.84007936
   0.79579814  0.29946868  0.69759854
   0.25337048  0.87715427  0.76884861
   0.83085733  0.00387606  0.84119010
   0.29534478  0.22879843  0.94174078
   0.42714463  0.90678473  0.71734272
   0.73101162  0.29931740  0.41431204
   0.94415037  0.06017627  0.27501374
   0.51674971  0.59252688  0.90342602
   0.49823383  0.60287702  0.01417426
   0.32413869  0.39896124  0.28926889
   0.78235793  0.32087041  0.13195992
   0.79671218  0.56319856  0.24889392
   0.95238805  0.79759297  0.14905708
   0.17708819  0.74700873  0.42112548
   0.46795449  0.88309880  0.12989686
   0.81617591  0.94995017  0.94854232
   0.68705532  0.82599213  0.36257156
   0.64537664  0.58362924  0.54809137
   0.78089962  0.01415338  0.56238675
unknown system                          
           1
     3.737142    0.100946   -0.086303
     0.264481    6.238004    0.025780
     0.342486    0.445755    6.698865
   H    Sr   H    Nb   H    Nb   H 
   7   1   1   1  10   1   2
Direct configuration=    12
   0.42520308  0.10440883  0.33870158
   0.31449434  0.29035590  0.56017636
   0.99114477  0.59892837  0.73605978
   0.02765598  0.62926784  0.84004044
   0.79587722  0.29944575  0.69765295
   0.25357025  0.87715451  0.76928199
   0.83062259  0.00387520  0.84107942
   0.29538004  0.22886404  0.94174513
   0.42637432  0.90709302  0.71706175
   0.73122937  0.29906716  0.41419849
   0.94393566  0.06010529  0.27507754
   0.51677807  0.59265101  0.90327437
   0.49838136  0.60298759  0.01408560
   0.32452802  0.39917174  0.28913717
   0.78246773  0.32091495  0.13193541
   0.79709635  0.56327852  0.24889145
   0.95213782  0.79744974  0.14899504
   0.17715388  0.74733578  0.42129282
   0.46791892  0.88290723  0.13004930
   0.81602543  0.95002671  0.94868469
   0.68653365  0.82578825  0.36250991
   0.64517333  0.58357396  0.54828097
   0.78086981  0.01413460  0.56257784
unknown system                          
           1
     3.738375    0.099141   -0.087729
     0.261368    6.244543    0.025727
     0.339706    0.446133    6.694004
   H    Sr   H    Nb   H    Nb   H 
   7   1   1   1  10   1   2
Direct configuration=    13
   0.42570752  0.10462445  0.33816009
   0.31492654  0.29052583  0.55996418
   0.99176982  0.59845190  0.73593709
   0.02808386  0.62833076  0.83993770
   0.79608595  0.29938527  0.69779663
   0.25409778  0.87715516  0.77042630
   0.83000297  0.00387290  0.84078713
   0.29547318  0.22903716  0.94175662
   0.42434141  0.90790626  0.71631975
   0.73180374  0.29840698  0.41389872
   0.94336896  0.05991794  0.27524595
   0.51685295  0.59297855  0.90287397
   0.49877076  0.60327937  0.01385154
   0.32555563  0.39972727  0.28878947
   0.78275754  0.32103253  0.13187073
   0.79811034  0.56348961  0.24888502
   0.95147725  0.79707178  0.14883118
   0.17732766  0.74819871  0.42173465
   0.46782496  0.88240176  0.13045178
   0.81562845  0.95022860  0.94906059
   0.68515663  0.82525016  0.36234704
   0.64463684  0.58342805  0.54878151
   0.78079125  0.01408502  0.56308237
unknown system                          
           1
     3.738495    0.098373   -0.087935
     0.260076    6.244969    0.025498
     0.339215    0.445876    6.691944
   H    Sr   H    Nb   H    Nb   H 
   7   1   1   1  10   1   2
Direct configuration=    14
   0.42593680  0.10472547  0.33793686
   0.31508339  0.29057811  0.55985227
   0.99202571  0.59823194  0.73583444
   0.02828524  0.62797919  0.83995783
   0.79618605  0.29935326  0.69780825
   0.25425241  0.87713008  0.77097478
   0.82971459  0.00376752  0.84093045
   0.29553940  0.22908085  0.94176798
   0.42346699  0.90827650  0.71598842
   0.73202037  0.29802301  0.41389036
   0.94310042  0.05989526  0.27533149
   0.51693791  0.59311074  0.90263896
   0.49896337  0.60340337  0.01378203
   0.32596626  0.39996466  0.28862671
   0.78291968  0.32107148  0.13183034
   0.79854325  0.56360998  0.24892511
   0.95107528  0.79693396  0.14882017
   0.17719531  0.74853637  0.42190882
   0.46759005  0.88223746  0.13045050
   0.81549855  0.95041549  0.94896705
   0.68519970  0.82501452  0.36255405
   0.64440711  0.58339479  0.54888701
   0.78064418  0.01405200  0.56312613
unknown system                          
           1
     3.738811    0.096340   -0.088480
     0.256655    6.246097    0.024891
     0.337915    0.445196    6.686488
   H    Sr   H    Nb   H    Nb   H 
   7   1   1   1  10   1   2
Direct configuration=    15
   0.42654415  0.10499312  0.33734537
   0.31549886  0.29071663  0.55955575
   0.99270328  0.59764940  0.73556245
   0.02881834  0.62704806  0.84001115
   0.79645115  0.29926850  0.69783904
   0.25466212  0.87706371  0.77242811
   0.82895066  0.00348830  0.84131016
   0.29571483  0.22919661  0.94179809
   0.42115107  0.90925687  0.71511047
   0.73259382  0.29700606  0.41386819
   0.94238909  0.05983510  0.27555812
   0.51716302  0.59346087  0.90201628
   0.49947363  0.60373190  0.01359788
   0.32705411  0.40059359  0.28819550
   0.78334919  0.32117471  0.13172334
   0.79969008  0.56392893  0.24903138
   0.95001039  0.79656877  0.14879095
   0.17684511  0.74943071  0.42237032
   0.46696765  0.88180219  0.13044707
   0.81515463  0.95091046  0.94871923
   0.68531360  0.82439039  0.36310254
   0.64379859  0.58330662  0.54916652
   0.78025462  0.01396450  0.56324209
unknown system                          
           1
     3.738874    0.095597   -0.088587
     0.255449    6.244635    0.024655
     0.337593    0.444798    6.683969
   H    Sr   H    Nb   H    Nb   H 
   7   1   1   1  10   1   2
Direct configuration=    16
   0.42673829  0.10494600  0.33703496
   0.31562786  0.29071227  0.55940267
   0.99305779  0.59735031  0.73542318
   0.02909225  0.62661232  0.84004246
   0.79660806  0.29921005  0.69781241
   0.25483569  0.87699570  0.77323820
   0.82862902  0.00351059  0.84121684
   0.29581823  0.22923457  0.94179619
   0.41991021  0.90978094  0.71466290
   0.73285706  0.29689321  0.41397544
   0.94211882  0.05979179  0.27564643
   0.51730854  0.59363812  0.90188350
   0.49981902  0.60387624  0.01328329
   0.32773047  0.40083047  0.28803007
   0.78362718  0.32119997  0.13165513
   0.80033878  0.56400035  0.24915407
   0.94938397  0.79639310  0.14887085
   0.17661104  0.74978918  0.42262617
   0.46656539  0.88154804  0.13042961
   0.81492776  0.95098293  0.94888195
   0.68546421  0.82432096  0.36325995
   0.64351203  0.58323667  0.54923587
   0.77997034  0.01393222  0.56322787
unknown system                          
           1
     3.739062    0.093367   -0.088906
     0.251831    6.240250    0.023947
     0.336626    0.443602    6.676410
   H    Sr   H    Nb   H    Nb   H 
   7   1   1   1  10   1   2
Direct configuration=    17
   0.42732064  0.10480463  0.33610339
   0.31601482  0.29069922  0.55894324
   0.99412097  0.59645297  0.73500520
   0.02991357  0.62530490  0.84013637
   0.79707873  0.29903470  0.69773248
   0.25535647  0.87679177  0.77566940
   0.82766415  0.00357734  0.84093674
   0.29612844  0.22934853  0.94179048
   0.41618814  0.91135303  0.71331970
   0.73364667  0.29655467  0.41429729
   0.94130799  0.05966173  0.27591146
   0.51774524  0.59417002  0.90148507
   0.50085527  0.60430946  0.01233920
   0.32975968  0.40154148  0.28753363
   0.78446113  0.32127584  0.13145043
   0.80228491  0.56421489  0.24952231
   0.94750459  0.79586576  0.14911060
   0.17590920  0.75086477  0.42339403
   0.46535838  0.88078528  0.13037717
   0.81424726  0.95120033  0.94937031
   0.68591597  0.82411269  0.36373234
   0.64265231  0.58302670  0.54944398
   0.77911748  0.01383528  0.56318518
unknown system                          
           1
     3.739278    0.092882   -0.089123
     0.251080    6.238618    0.024183
     0.336170    0.443720    6.675300
   H    Sr   H    Nb   H    Nb   H 
   7   1   1   1  10   1   2
Direct configuration=    18
   0.42744909  0.10469468  0.33582893
   0.31604130  0.29065655  0.55883242
   0.99447376  0.59620455  0.73495218
   0.03013490  0.62492344  0.84009417
   0.79723372  0.29897277  0.69772298
   0.25568941  0.87674873  0.77636895
   0.82739341  0.00359640  0.84088562
   0.29623121  0.22936742  0.94177870
   0.41486289  0.91180112  0.71298116
   0.73381495  0.29670075  0.41433323
   0.94121469  0.05962953  0.27594930
   0.51794602  0.59430146  0.90117972
   0.50116974  0.60445040  0.01222704
   0.33045082  0.40171118  0.28743082
   0.78474981  0.32128953  0.13139399
   0.80293186  0.56420955  0.24966107
   0.94703762  0.79571297  0.14915295
   0.17579070  0.75112463  0.42363930
   0.46501868  0.88053228  0.13041784
   0.81402510  0.95125844  0.94949058
   0.68562600  0.82412889  0.36375609
   0.64241882  0.58293740  0.54950519
   0.77884750  0.01383336  0.56320778
unknown system                          
           1
     3.739928    0.091424   -0.089775
     0.248826    6.233724    0.024891
     0.334803    0.444076    6.671968
   H    Sr   H    Nb   H    Nb   H 
   7   1   1   1  10   1   2
Direct configuration=    19
   0.42783426  0.10436482  0.33500542
   0.31612068  0.29052851  0.55849990
   0.99553190  0.59545916  0.73479314
   0.03079864  0.62377880  0.83996761
   0.79769861  0.29878697  0.69769451
   0.25668839  0.87661961  0.77846800
   0.82658123  0.00365354  0.84073220
   0.29653949  0.22942411  0.94174335
   0.41088756  0.91314544  0.71196522
   0.73431987  0.29713914  0.41444108
   0.94093479  0.05953289  0.27606282
   0.51854830  0.59469596  0.90026352
   0.50211313  0.60487341  0.01189053
   0.33252417  0.40222059  0.28712239
   0.78561576  0.32133069  0.13122466
   0.80487262  0.56419364  0.25007748
   0.94563676  0.79525434  0.14927998
   0.17543544  0.75190436  0.42437519
   0.46399952  0.87977298  0.13053988
   0.81335875  0.95143274  0.94985142
   0.68475615  0.82417743  0.36382731
   0.64171834  0.58266936  0.54968884
   0.77803762  0.01382752  0.56327556
unknown system                          
           1
     3.740442    0.091324   -0.090097
     0.248720    6.233097    0.025475
     0.334282    0.444666    6.673381
   H    Sr   H    Nb   H    Nb   H 
   7   1   1   1  10   1   2
Direct configuration=    20
   0.42782697  0.10440072  0.33498646
   0.31598230  0.29048620  0.55852420
   0.99563125  0.59541754  0.73479281
   0.03083767  0.62377162  0.83994956
   0.79773744  0.29876110  0.69773961
   0.25688308  0.87660902  0.77860464
   0.82654532  0.00356761  0.84095562
   0.29657280  0.22941245  0.94172927
   0.41046328  0.91321955  0.71195737
   0.73412142  0.29730714  0.41430321
   0.94117029  0.05953748  0.27600635
   0.51866890  0.59470078  0.90022984
   0.50224163  0.60489081  0.01182025
   0.33265641  0.40223924  0.28715042
   0.78572373  0.32133892  0.13124067
   0.80507794  0.56411523  0.25011921
   0.94575368  0.79525638  0.14920972
   0.17545028  0.75185680  0.42442722
   0.46392875  0.87972065  0.13059338
   0.81331223  0.95150810  0.94965208
   0.68430870  0.82418276  0.36375031
   0.64170704  0.58263526  0.54971143
   0.77795089  0.01385063  0.56333637
unknown system                          
           1
     3.741402    0.091136   -0.090699
     0.248521    6.231926    0.026567
     0.333309    0.445769    6.676023
   H    Sr   H    Nb   H    Nb   H 
   7   1   1   1  10   1   2
Direct configuration=    21
   0.42781333  0.10446786  0.33495102
   0.31572364  0.29040708  0.55856960
   0.99581695  0.59533973  0.73479219
   0.03091062  0.62375820  0.83991583
   0.79781001  0.29871273  0.69782391
   0.25724705  0.87658920  0.77886006
   0.82647825  0.00340692  0.84137321
   0.29663506  0.22939064  0.94170296
   0.40967020  0.91335811  0.71194264
   0.73375043  0.29762128  0.41404547
   0.94161049  0.05954608  0.27590082
   0.51889432  0.59470981  0.90016690
   0.50248180  0.60492337  0.01168890
   0.33290360  0.40227410  0.28720284
   0.78592555  0.32135430  0.13127059
   0.80546173  0.56396863  0.25019725
   0.94597223  0.79526021  0.14907840
   0.17547805  0.75176787  0.42452448
   0.46379648  0.87962279  0.13069340
   0.81322521  0.95164904  0.94927948
   0.68347228  0.82419274  0.36360635
   0.64168592  0.58257149  0.54975364
   0.77778879  0.01389382  0.56345003
unknown system                          
           1
     3.742362    0.090960   -0.091100
     0.248313    6.231402    0.027058
     0.332732    0.446255    6.679598
   H    Sr   H    Nb   H    Nb   H 
   7   1   1   1  10   1   2
Direct configuration=    22
   0.42774575  0.10457837  0.33492063
   0.31551884  0.29034493  0.55857691
   0.99597255  0.59528646  0.73480289
   0.03095810  0.62377885  0.83988228
   0.79784426  0.29866787  0.69787100
   0.25733669  0.87650684  0.77916284
   0.82647448  0.00344422  0.84136101
   0.29667997  0.22938132  0.94168962
   0.40925508  0.91352464  0.71183726
   0.73354145  0.29774287  0.41399969
   0.94193209  0.05953223  0.27583155
   0.51910449  0.59470814  0.90013790
   0.50269477  0.60494189  0.01156713
   0.33295338  0.40234915  0.28720473
   0.78607685  0.32137725  0.13128189
   0.80576126  0.56386607  0.25024851
   0.94607718  0.79529245  0.14903518
   0.17532537  0.75166915  0.42459013
   0.46360181  0.87957578  0.13070812
   0.81311887  0.95158112  0.94931000
   0.68332360  0.82420245  0.36350681
   0.64165588  0.58252734  0.54977154
   0.77759930  0.01390661  0.56349237
unknown system                          
           1
     3.745244    0.090430   -0.092304
     0.247689    6.229829    0.028534
     0.331002    0.447712    6.690322
   H    Sr   H    Nb   H    Nb   H 
   7   1   1   1  10   1   2
Direct configuration=    23
   0.42754304  0.10490993  0.33482948
   0.31490459  0.29015842  0.55859880
   0.99643925  0.59512664  0.73483501
   0.03110046  0.62384083  0.83978168
   0.79794701  0.29853329  0.69801222
   0.25760572  0.87625969  0.78007073
   0.82646317  0.00355613  0.84132441
   0.29681465  0.22935336  0.94164961
   0.40800998  0.91402426  0.71152117
   0.73291465  0.29810766  0.41386236
   0.94289661  0.05949072  0.27562393
   0.51973483  0.59470318  0.90005098
   0.50333342  0.60499750  0.01120204
   0.33310269  0.40257434  0.28721040
   0.78653064  0.32144612  0.13131580
   0.80665962  0.56355838  0.25040228
   0.94639191  0.79538919  0.14890560
   0.17486745  0.75137293  0.42478695
   0.46301797  0.87943472  0.13075223
   0.81279993  0.95137732  0.94940148
   0.68287763  0.82423158  0.36320832
   0.64156580  0.58239486  0.54982522
   0.77703100  0.01394495  0.56361929
unknown system                          
           1
     3.745890    0.089949   -0.092265
     0.246967    6.228455    0.028635
     0.331161    0.447662    6.693886
   H    Sr   H    Nb   H    Nb   H 
   7   1   1   1  10   1   2
Direct configuration=    24
   0.42740254  0.10509976  0.33475734
   0.31471388  0.29008437  0.55850225
   0.99671735  0.59506150  0.73492282
   0.03114873  0.62387619  0.83965769
   0.79791923  0.29845430  0.69796119
   0.25804985  0.87619831  0.78042513
   0.82643671  0.00363186  0.84126633
   0.29688184  0.22935019  0.94165538
   0.40710130  0.91422926  0.71146217
   0.73289598  0.29798850  0.41409071
   0.94312625  0.05943381  0.27563935
   0.52011064  0.59469442  0.89996772
   0.50368682  0.60502287  0.01105352
   0.33296801  0.40277948  0.28713699
   0.78670225  0.32148226  0.13137859
   0.80706684  0.56350692  0.25047817
   0.94631514  0.79548204  0.14902028
   0.17441136  0.75124623  0.42485008
   0.46264992  0.87940206  0.13068786
   0.81264556  0.95124389  0.94948103
   0.68347830  0.82426474  0.36309674
   0.64150798  0.58238400  0.54977008
   0.77661552  0.01386904  0.56352856
unknown system                          
           1
     3.746796    0.089275   -0.092210
     0.245956    6.226531    0.028778
     0.331383    0.447591    6.698879
   H    Sr   H    Nb   H    Nb   H 
   7   1   1   1  10   1   2
Direct configuration=    25
   0.42720574  0.10536580  0.33465630
   0.31444667  0.28998054  0.55836704
   0.99710696  0.59497025  0.73504579
   0.03121638  0.62392576  0.83948404
   0.79788029  0.29834359  0.69788973
   0.25867206  0.87611235  0.78092148
   0.82639966  0.00373800  0.84118498
   0.29697596  0.22934574  0.94166346
   0.40582826  0.91451648  0.71137955
   0.73286979  0.29782151  0.41441052
   0.94344797  0.05935409  0.27566096
   0.52063717  0.59468219  0.89985110
   0.50418195  0.60505846  0.01084550
   0.33277938  0.40306697  0.28703418
   0.78694268  0.32153293  0.13146653
   0.80763737  0.56343484  0.25058445
   0.94620761  0.79561217  0.14918089
   0.17377233  0.75106862  0.42493851
   0.46213426  0.87935623  0.13059771
   0.81242927  0.95105686  0.94959245
   0.68431987  0.82431127  0.36294046
   0.64142696  0.58236877  0.54969286
   0.77603341  0.01376259  0.56340151
unknown system                          
           1
     3.746885    0.088740   -0.092179
     0.245137    6.223999    0.028948
     0.331448    0.447534    6.701479
   H    Sr   H    Nb   H    Nb   H 
   7   1   1   1  10   1   2
Direct configuration=    26
   0.42709310  0.10552818  0.33454994
   0.31425333  0.28987970  0.55819341
   0.99744443  0.59482808  0.73497316
   0.03135199  0.62402953  0.83950088
   0.79777668  0.29822805  0.69774988
   0.25900746  0.87595924  0.78154629
   0.82629368  0.00367538  0.84142981
   0.29706819  0.22935191  0.94172949
   0.40490111  0.91488335  0.71114393
   0.73296401  0.29767465  0.41454261
   0.94362542  0.05933413  0.27578614
   0.52118321  0.59466181  0.89970049
   0.50467798  0.60509287  0.01068823
   0.33273867  0.40331855  0.28699283
   0.78711207  0.32155086  0.13165912
   0.80817075  0.56343831  0.25070894
   0.94618897  0.79574947  0.14930502
   0.17342265  0.75094610  0.42497726
   0.46181500  0.87931623  0.13055001
   0.81226806  0.95103347  0.94938139
   0.68434491  0.82428434  0.36291342
   0.64139820  0.58241569  0.54954315
   0.77545211  0.01360609  0.56322458
unknown system                          
           1
     3.747060    0.087679   -0.092118
     0.243515    6.218985    0.029284
     0.331575    0.447420    6.706627
   H    Sr   H    Nb   H    Nb   H 
   7   1   1   1  10   1   2
Direct configuration=    27
   0.42687006  0.10584992  0.33433934
   0.31387036  0.28967984  0.55784963
   0.99811278  0.59454643  0.73482935
   0.03162063  0.62423518  0.83953423
   0.79757142  0.29799907  0.69747299
   0.25967175  0.87565596  0.78278340