unknown system                          
           1
     3.499607   -0.034582    0.050343
     0.040322    5.594064   -0.161570
     1.613864   -0.156624    7.353045
   H    Sr   H    Nb   Sr
   5   1   7   1   1
Direct configuration=     1
   0.71100952  0.23407582  0.08347978
   0.49163593  0.22427695  0.08699103
   0.92384425  0.46325320  0.28721524
   0.16521097  0.47251231  0.28845946
   0.95908701  0.09305322  0.41234003
   0.35012909  0.24376373  0.63327205
   0.86187384  0.53561584  0.61074232
   0.39033020  0.70999016  0.55076843
   0.49806118  0.87008547  0.33197999
   0.21058072  0.02186207  0.88932986
   0.20374170  0.49810665  0.89418347
   0.83942978  0.93104063  0.65576306
   0.06479232  0.84770815  0.19167230
   0.95155695  0.76689138  0.43107343
   0.67051853  0.76971043  0.97056556
unknown system                          
           1
     3.498592   -0.034244    0.050919
     0.040853    5.596336   -0.162009
     1.614592   -0.157134    7.352477
   H    Sr   H    Nb   Sr
   5   1   7   1   1
Direct configuration=     2
   0.71051665  0.23390965  0.08353136
   0.49286104  0.22447035  0.08673413
   0.92377455  0.46336238  0.28710599
   0.16512217  0.47243465  0.28841878
   0.95898464  0.09305055  0.41236151
   0.34992680  0.24370330  0.63338925
   0.86181700  0.53566215  0.61061019
   0.39014998  0.71001243  0.55082815
   0.49791970  0.87004475  0.33205909
   0.21066078  0.02185568  0.88943932
   0.20401455  0.49817616  0.89416598
   0.83925539  0.93094870  0.65576947
   0.06471483  0.84777440  0.19175639
   0.95145725  0.76682280  0.43108259
   0.67062667  0.76971803  0.97058380
unknown system                          
           1
     3.498822   -0.034321    0.050788
     0.040732    5.595820   -0.161909
     1.614427   -0.157018    7.352606
   H    Sr   H    Nb   Sr
   5   1   7   1   1
Direct configuration=     3
   0.71062868  0.23394739  0.08351963
   0.49258255  0.22442644  0.08679253
   0.92379039  0.46333758  0.28713081
   0.16514235  0.47245229  0.28842803
   0.95900791  0.09305116  0.41235662
   0.34997279  0.24371702  0.63336261
   0.86182991  0.53565163  0.61064022
   0.39019095  0.71000737  0.55081458
   0.49795186  0.87005400  0.33204111
   0.21064259  0.02185713  0.88941445
   0.20395253  0.49816038  0.89416996
   0.83929503  0.93096958  0.65576801
   0.06473245  0.84775935  0.19173728
   0.95147991  0.76683837  0.43108051
   0.67060209  0.76971631  0.97057965
