       N       E                     dE             d eps       ncg     rms          rms(c)
DAV:   1    -0.218358893524E+02   -0.21836E+02   -0.51590E+03 14208   0.383E+02
DAV:   2    -0.647990576272E+02   -0.42963E+02   -0.41764E+02 18136   0.968E+01
DAV:   3    -0.663379115608E+02   -0.15389E+01   -0.15355E+01 17872   0.175E+01
DAV:   4    -0.663415769149E+02   -0.36654E-02   -0.36652E-02 16376   0.101E+00
DAV:   5    -0.663415930230E+02   -0.16108E-04   -0.16108E-04 17568   0.579E-02    0.124E+01
DAV:   6    -0.643475950255E+02    0.19940E+01   -0.52815E-01 16096   0.321E+00    0.713E+00
DAV:   7    -0.633824761869E+02    0.96512E+00   -0.14078E+00 17104   0.541E+00    0.661E-01
DAV:   8    -0.634037746239E+02   -0.21298E-01   -0.69908E-02 16528   0.140E+00    0.412E-01
DAV:   9    -0.634008899745E+02    0.28846E-02   -0.69957E-03 17872   0.434E-01    0.668E-02
DAV:  10    -0.634009564305E+02   -0.66456E-04   -0.37204E-04 17008   0.957E-02
   1 F= -.63400956E+02 E0= -.63401186E+02  d E =-.634010E+02
       N       E                     dE             d eps       ncg     rms          rms(c)
DAV:   1    -0.634016475191E+02   -0.75754E-03   -0.21883E-02 16648   0.780E-01    0.551E-02
DAV:   2    -0.634017269577E+02   -0.79439E-04   -0.10515E-03 17248   0.161E-01    0.427E-02
DAV:   3    -0.634017067435E+02    0.20214E-04   -0.29853E-05 10688   0.484E-02
   2 F= -.63401707E+02 E0= -.63401937E+02  d E =-.750313E-03
       N       E                     dE             d eps       ncg     rms          rms(c)
DAV:   1    -0.634017237441E+02    0.32136E-05   -0.28634E-04 12520   0.838E-02    0.822E-03
DAV:   2    -0.634017235096E+02    0.23449E-06   -0.10323E-05  7200   0.172E-02
   3 F= -.63401724E+02 E0= -.63401953E+02  d E =-.767079E-03
