    8    8   99    2
  0.1008174E+02  0.3432196E-09  0.3439657E-09  0.8371814E-09  0.5000000E-15
  1.000000000000000E-004
  CAR 
 unknown system                          
     27     74     32
 
  0.3742002E-15  0.3742002E-15  0.3742002E-15  0.6802721E-02
    1      -33.206124    -33.205818   1.000000   1.000000
    2      -29.281199    -29.249475   1.000000   1.000000
    3      -29.111218    -29.088831   1.000000   1.000000
    4      -29.048038    -29.024931   1.000000   1.000000
    5      -15.347091    -15.346616   1.000000   1.000000
    6      -14.843069    -14.842648   1.000000   1.000000
    7      -14.840508    -14.840078   1.000000   1.000000
    8       -7.191171     -7.185440   1.000000   1.000000
    9       -5.065894     -5.061629   1.000000   1.000000
   10       -3.423898     -3.421102   1.000000   1.000000
   11       -1.083089     -1.079735   1.000000   1.000000
   12        1.219401      1.219417   1.000000   1.000000
   13        1.812678      1.830868   1.000000   1.000000
   14        1.899884      1.922465   1.000000   1.000000
   15        3.080365      3.121081   0.000000   0.000000
   16        3.290508      3.332843   0.000000   0.000000
   17        4.541686      4.545146   0.000000   0.000000
   18        5.471284      5.473516   0.000000   0.000000
   19        5.683201      5.685115   0.000000   0.000000
   20        6.313520      6.322524   0.000000   0.000000
   21        8.227718      8.231319   0.000000   0.000000
   22        8.317961      8.320731   0.000000   0.000000
   23        8.506673      8.509912   0.000000   0.000000
   24       10.227336     10.237215   0.000000   0.000000
   25       11.020180     11.024481   0.000000   0.000000
   26       11.100856     11.102626   0.000000   0.000000
   27       12.952117     12.956849   0.000000   0.000000
   28       14.011344     14.024840   0.000000   0.000000
   29       14.578372     14.584428   0.000000   0.000000
   30       15.056255     15.066504   0.000000   0.000000
   31       15.625577     15.631591   0.000000   0.000000
   32       16.512139     16.521863   0.000000   0.000000
 
  0.1428571E+00  0.4044074E-15  0.3747003E-15  0.1360544E-01
    1      -33.182791    -33.182487   1.000000   1.000000
    2      -29.276028    -29.244282   1.000000   1.000000
    3      -29.127981    -29.105624   1.000000   1.000000
    4      -29.081531    -29.058451   1.000000   1.000000
    5      -15.304473    -15.304001   1.000000   1.000000
    6      -15.063456    -15.063022   1.000000   1.000000
    7      -14.885773    -14.885362   1.000000   1.000000
    8       -6.963099     -6.957549   1.000000   1.000000
    9       -4.791108     -4.786739   1.000000   1.000000
   10       -3.126013     -3.122674   1.000000   1.000000
   11       -1.143403     -1.140898   1.000000   1.000000
   12       -0.292328     -0.283904   1.000000   1.000000
   13        2.155606      2.177584   1.000000   1.000000
   14        2.204149      2.228475   0.811201   0.759982
   15        3.172153      3.213889   0.000000   0.000000
   16        3.797071      3.813828   0.000000   0.000000
   17        4.384498      4.396652   0.000000   0.000000
   18        5.128675      5.132936   0.000000   0.000000
   19        6.143250      6.144869   0.000000   0.000000
   20        6.696207      6.703335   0.000000   0.000000
   21        8.095554      8.097958   0.000000   0.000000
   22        8.219753      8.225763   0.000000   0.000000
   23        8.729279      8.735907   0.000000   0.000000
   24        9.893098      9.897456   0.000000   0.000000
   25       10.400315     10.405512   0.000000   0.000000
   26       11.962882     11.969629   0.000000   0.000000
   27       12.438168     12.445665   0.000000   0.000000
   28       13.087117     13.098101   0.000000   0.000000
   29       14.032248     14.038587   0.000000   0.000000
   30       15.258770     15.268762   0.000000   0.000000
   31       16.021888     16.032185   0.000000   0.000000
   32       16.384314     16.390145   0.000000   0.000000
 
  0.2857143E+00  0.4241399E-15  0.3885781E-15  0.1360544E-01
    1      -33.129754    -33.129452   1.000000   1.000000
    2      -29.264448    -29.232622   1.000000   1.000000
    3      -29.198211    -29.175657   1.000000   1.000000
    4      -29.122790    -29.100064   1.000000   1.000000
    5      -15.528110    -15.527645   1.000000   1.000000
    6      -15.204302    -15.203883   1.000000   1.000000
    7      -14.979941    -14.979529   1.000000   1.000000
    8       -6.461719     -6.456591   1.000000   1.000000
    9       -4.044594     -4.039833   1.000000   1.000000
   10       -2.721636     -2.717192   1.000000   1.000000
   11       -1.643308     -1.635620   1.000000   1.000000
   12       -0.992645     -0.991528   1.000000   1.000000
   13        1.191979      1.216405   1.000000   1.000000
   14        2.826590      2.862724  -0.054954  -0.035665
   15        3.244397      3.273197   0.000000   0.000000
   16        3.416874      3.422780   0.000000   0.000000
   17        5.059047      5.066525   0.000000   0.000000
   18        5.562686      5.574987   0.000000   0.000000
   19        6.588597      6.599723   0.000000   0.000000
   20        7.375890      7.378688   0.000000   0.000000
   21        7.691016      7.696836   0.000000   0.000000
   22        7.831231      7.836153   0.000000   0.000000
   23        8.706157      8.711868   0.000000   0.000000
   24       10.162867     10.172610   0.000000   0.000000
   25       10.653673     10.664074   0.000000   0.000000
   26       10.849739     10.855339   0.000000   0.000000
   27       11.917517     11.928814   0.000000   0.000000
   28       12.539626     12.545035   0.000000   0.000000
   29       14.190612     14.198014   0.000000   0.000000
   30       14.607200     14.615633   0.000000   0.000000
   31       15.433401     15.438100   0.000000   0.000000
   32       16.177783     16.182685   0.000000   0.000000
 
  0.4285714E+00  0.5065393E-15  0.3330669E-15  0.1360544E-01
    1      -33.086595    -33.086294   1.000000   1.000000
    2      -29.267718    -29.244794   1.000000   1.000000
    3      -29.254844    -29.223291   1.000000   1.000000
    4      -29.141675    -29.119104   1.000000   1.000000
    5      -15.869068    -15.868609   1.000000   1.000000
    6      -15.122824    -15.122428   1.000000   1.000000
    7      -15.053509    -15.053088   1.000000   1.000000
    8       -6.056200     -6.051407   1.000000   1.000000
    9       -3.438594     -3.431702   1.000000   1.000000
   10       -2.602453     -2.598439   1.000000   1.000000
   11       -2.122115     -2.117891   1.000000   1.000000
   12       -0.730747     -0.728366   1.000000   1.000000
   13        0.490215      0.513793   1.000000   1.000000
   14        2.714741      2.747013  -0.079778  -0.106388
   15        2.856716      2.869162   0.000000   0.000000
   16        4.179384      4.204796   0.000000   0.000000
   17        4.878788      4.890813   0.000000   0.000000
   18        5.752192      5.759320   0.000000   0.000000
   19        6.724407      6.733770   0.000000   0.000000
   20        7.115591      7.121565   0.000000   0.000000
   21        8.092106      8.103847   0.000000   0.000000
   22        8.447498      8.456095   0.000000   0.000000
   23        9.487824      9.498630   0.000000   0.000000
   24        9.636586      9.638623   0.000000   0.000000
   25       10.412729     10.422557   0.000000   0.000000
   26       10.759325     10.770253   0.000000   0.000000
   27       11.579474     11.583297   0.000000   0.000000
   28       12.659788     12.664135   0.000000   0.000000
   29       12.779618     12.783170   0.000000   0.000000
   30       13.741724     13.746633   0.000000   0.000000
   31       14.727950     14.733224   0.000000   0.000000
   32       15.756604     15.762509   0.000000   0.000000
 
  0.3731350E-15  0.1428571E+00  0.3732908E-15  0.1360544E-01
    1      -33.182857    -33.182553   1.000000   1.000000
    2      -29.276070    -29.244311   1.000000   1.000000
    3      -29.137653    -29.115243   1.000000   1.000000
    4      -29.071662    -29.048652   1.000000   1.000000
    5      -15.304179    -15.303711   1.000000   1.000000
    6      -15.065604    -15.065160   1.000000   1.000000
    7      -14.883320    -14.882905   1.000000   1.000000
    8       -6.978741     -6.973184   1.000000   1.000000
    9       -4.770829     -4.766473   1.000000   1.000000
   10       -3.098149     -3.094823   1.000000   1.000000
   11       -1.195744     -1.193279   1.000000   1.000000
   12       -0.307981     -0.299027   1.000000   1.000000
   13        2.190911      2.209951   1.000000   1.000000
   14        2.220536      2.247487   0.805850   0.747164
   15        3.122774      3.163876   0.000000   0.000000
   16        3.828417      3.847654   0.000000   0.000000
   17        4.425409      4.432490   0.000000   0.000000
   18        5.146097      5.153259   0.000000   0.000000
   19        6.125525      6.127218   0.000000   0.000000
   20        6.653449      6.660433   0.000000   0.000000
   21        8.061112      8.064044   0.000000   0.000000
   22        8.363336      8.368018   0.000000   0.000000
   23        8.669311      8.676454   0.000000   0.000000
   24        9.884521      9.890823   0.000000   0.000000
   25       10.389273     10.393677   0.000000   0.000000
   26       11.976716     11.983034   0.000000   0.000000
   27       12.570023     12.578507   0.000000   0.000000
   28       12.890883     12.898959   0.000000   0.000000
   29       14.149976     14.157440   0.000000   0.000000
   30       15.158761     15.168564   0.000000   0.000000
   31       15.954119     15.963054   0.000000   0.000000
   32       16.544439     16.553316   0.000000   0.000000
 
  0.1428571E+00  0.1428571E+00  0.3747003E-15  0.1360544E-01
    1      -33.181928    -33.181625   1.000000   1.000000
    2      -29.276118    -29.244270   1.000000   1.000000
    3      -29.152608    -29.130387   1.000000   1.000000
    4      -29.058061    -29.034957   1.000000   1.000000
    5      -15.303207    -15.302751   1.000000   1.000000
    6      -15.068440    -15.068009   1.000000   1.000000
    7      -14.887266    -14.886804   1.000000   1.000000
    8       -6.980625     -6.975076   1.000000   1.000000
    9       -4.784431     -4.780031   1.000000   1.000000
   10       -3.111368     -3.108063   1.000000   1.000000
   11       -1.135651     -1.133239   1.000000   1.000000
   12       -0.301955     -0.293209   1.000000   1.000000
   13        2.147514      2.166833   1.000000   1.000000
   14        2.302264      2.330902   0.717799   0.629532
   15        2.986015      3.025494   0.000000   0.000000
   16        3.894294      3.912677   0.000000   0.000000
   17        4.575666      4.583507   0.000000   0.000000
   18        5.090953      5.097616   0.000000   0.000000
   19        5.982332      5.984284   0.000000   0.000000
   20        6.779325      6.785863   0.000000   0.000000
   21        7.972773      7.976222   0.000000   0.000000
   22        8.167736      8.172083   0.000000   0.000000
   23        9.329916      9.336059   0.000000   0.000000
   24        9.818235      9.823545   0.000000   0.000000
   25       10.157738     10.165690   0.000000   0.000000
   26       11.661507     11.665425   0.000000   0.000000
   27       12.319065     12.326547   0.000000   0.000000
   28       12.997189     13.004607   0.000000   0.000000
   29       14.621110     14.635482   0.000000   0.000000
   30       14.977723     14.990315   0.000000   0.000000
   31       15.731040     15.736064   0.000000   0.000000
   32       16.404186     16.408427   0.000000   0.000000
 
  0.2857143E+00  0.1428571E+00  0.4440892E-15  0.1360544E-01
    1      -33.143105    -33.142804   1.000000   1.000000
    2      -29.268083    -29.235993   1.000000   1.000000
    3      -29.199872    -29.177892   1.000000   1.000000
    4      -29.092143    -29.069100   1.000000   1.000000
    5      -15.382895    -15.382446   1.000000   1.000000
    6      -15.231859    -15.231416   1.000000   1.000000
    7      -14.986996    -14.986543   1.000000   1.000000
    8       -6.629827     -6.624590   1.000000   1.000000
    9       -4.252145     -4.247528   1.000000   1.000000
   10       -2.739038     -2.734719   1.000000   1.000000
   11       -1.379829     -1.371714   1.000000   1.000000
   12       -1.088090     -1.086737   1.000000   1.000000
   13        1.644764      1.672475   1.000000   1.000000
   14        2.642274      2.677734  -0.038713  -0.086176
   15        2.944227      2.968143   0.000000   0.000000
   16        4.048245      4.055890   0.000000   0.000000
   17        4.545704      4.551068   0.000000   0.000000
   18        5.589494      5.605628   0.000000   0.000000
   19        6.681848      6.689054   0.000000   0.000000
   20        6.914553      6.919978   0.000000   0.000000
   21        7.075034      7.077675   0.000000   0.000000
   22        8.471024      8.479968   0.000000   0.000000
   23        9.329807      9.334584   0.000000   0.000000
   24        9.742504      9.747269   0.000000   0.000000
   25       10.764790     10.773597   0.000000   0.000000
   26       10.971049     10.979521   0.000000   0.000000
   27       11.662673     11.671299   0.000000   0.000000
   28       13.110852     13.123522   0.000000   0.000000
   29       13.687759     13.694004   0.000000   0.000000
   30       14.719070     14.727320   0.000000   0.000000
   31       15.182482     15.186598   0.000000   0.000000
   32       16.666107     16.670470   0.000000   0.000000
 
  0.4285714E+00  0.1428571E+00  0.3330669E-15  0.1360544E-01
    1      -33.095021    -33.094723   1.000000   1.000000
    2      -29.260944    -29.231499   1.000000   1.000000
    3      -29.248637    -29.223854   1.000000   1.000000
    4      -29.139436    -29.116617   1.000000   1.000000
    5      -15.718878    -15.718409   1.000000   1.000000
    6      -15.153591    -15.153284   1.000000   1.000000
    7      -15.122789    -15.122247   1.000000   1.000000
    8       -6.187560     -6.182704   1.000000   1.000000
    9       -3.428306     -3.422984   1.000000   1.000000
   10       -2.524991     -2.519378   1.000000   1.000000
   11       -2.136595     -2.130634   1.000000   1.000000
   12       -0.903085     -0.902301   1.000000   1.000000
   13        0.890556      0.916511   1.000000   1.000000
   14        2.336600      2.372022   0.609412   0.520334
   15        3.545435      3.553393   0.000000   0.000000
   16        3.957792      3.978008   0.000000   0.000000
   17        4.832171      4.843273   0.000000   0.000000
   18        5.501786      5.506810   0.000000   0.000000
   19        6.389665      6.398229   0.000000   0.000000
   20        7.030561      7.044127   0.000000   0.000000
   21        8.006765      8.017046   0.000000   0.000000
   22        8.420724      8.428183   0.000000   0.000000
   23        8.994574      9.005038   0.000000   0.000000
   24        9.825489      9.831344   0.000000   0.000000
   25       10.377729     10.383115   0.000000   0.000000
   26       11.060928     11.069238   0.000000   0.000000
   27       11.660242     11.667629   0.000000   0.000000
   28       12.701590     12.708704   0.000000   0.000000
   29       13.058022     13.062419   0.000000   0.000000
   30       14.136346     14.142402   0.000000   0.000000
   31       15.258271     15.263875   0.000000   0.000000
   32       16.000672     16.008797   0.000000   0.000000
 
 -0.4285714E+00  0.1428571E+00  0.3885781E-15  0.1360544E-01
    1      -33.074175    -33.073877   1.000000   1.000000
    2      -29.266315    -29.243013   1.000000   1.000000
    3      -29.251972    -29.220790   1.000000   1.000000
    4      -29.168866    -29.146326   1.000000   1.000000
    5      -15.849910    -15.849453   1.000000   1.000000
    6      -15.208927    -15.208505   1.000000   1.000000
    7      -15.099769    -15.099356   1.000000   1.000000
    8       -5.961706     -5.957019   1.000000   1.000000
    9       -3.179023     -3.171568   1.000000   1.000000
   10       -2.449862     -2.445564   1.000000   1.000000
   11       -2.227997     -2.224068   1.000000   1.000000
   12       -0.790019     -0.788024   1.000000   1.000000
   13        0.547753      0.572320   1.000000   1.000000
   14        2.179817      2.212081   0.917890   0.865654
   15        3.290333      3.299050   0.000000   0.000000
   16        4.609797      4.631206   0.000000   0.000000
   17        4.660651      4.673934   0.000000   0.000000
   18        5.703875      5.711562   0.000000   0.000000
   19        6.227870      6.235597   0.000000   0.000000
   20        6.911693      6.924341   0.000000   0.000000
   21        7.751364      7.764716   0.000000   0.000000
   22        8.536288      8.547849   0.000000   0.000000
   23        9.297127      9.304743   0.000000   0.000000
   24        9.813163      9.817889   0.000000   0.000000
   25       10.631002     10.635836   0.000000   0.000000
   26       11.143801     11.147697   0.000000   0.000000
   27       11.570877     11.578155   0.000000   0.000000
   28       12.094786     12.101594   0.000000   0.000000
   29       12.889462     12.896568   0.000000   0.000000
   30       13.591050     13.594639   0.000000   0.000000
   31       15.514133     15.522102   0.000000   0.000000
   32       15.622914     15.628807   0.000000   0.000000
 
 -0.2857143E+00  0.1428571E+00  0.4440892E-15  0.1360544E-01
    1      -33.096746    -33.096446   1.000000   1.000000
    2      -29.257287    -29.225480   1.000000   1.000000
    3      -29.220942    -29.198058   1.000000   1.000000
    4      -29.168384    -29.146016   1.000000   1.000000
    5      -15.698043    -15.697601   1.000000   1.000000
    6      -15.156623    -15.156023   1.000000   1.000000
    7      -15.133520    -15.133275   1.000000   1.000000
    8       -6.150365     -6.145494   1.000000   1.000000
    9       -3.445885     -3.440630   1.000000   1.000000
   10       -2.565666     -2.560169   1.000000   1.000000
   11       -2.096267     -2.089917   1.000000   1.000000
   12       -0.938411     -0.937753   1.000000   1.000000
   13        0.826721      0.850616   1.000000   1.000000
   14        2.379153      2.414446   0.494274   0.348893
   15        3.518413      3.526289   0.000000   0.000000
   16        3.906898      3.929850   0.000000   0.000000
   17        4.886607      4.897807   0.000000   0.000000
   18        5.581981      5.587872   0.000000   0.000000
   19        6.268339      6.275938   0.000000   0.000000
   20        7.053137      7.069567   0.000000   0.000000
   21        8.085870      8.094361   0.000000   0.000000
   22        8.136909      8.143023   0.000000   0.000000
   23        9.147687      9.158946   0.000000   0.000000
   24        9.988875      9.994369   0.000000   0.000000
   25       10.238028     10.245514   0.000000   0.000000
   26       11.140378     11.144052   0.000000   0.000000
   27       11.804602     11.815927   0.000000   0.000000
   28       12.493847     12.499413   0.000000   0.000000
   29       13.057778     13.062681   0.000000   0.000000
   30       14.210777     14.215471   0.000000   0.000000
   31       15.169170     15.176414   0.000000   0.000000
   32       15.816838     15.822648   0.000000   0.000000
 
 -0.1428571E+00  0.1428571E+00  0.3747003E-15  0.1360544E-01
    1      -33.145220    -33.144917   1.000000   1.000000
    2      -29.267682    -29.235933   1.000000   1.000000
    3      -29.154900    -29.132129   1.000000   1.000000
    4      -29.134433    -29.111825   1.000000   1.000000
    5      -15.361640    -15.361198   1.000000   1.000000
    6      -15.234099    -15.233635   1.000000   1.000000
    7      -14.995074    -14.994681   1.000000   1.000000
    8       -6.609217     -6.603956   1.000000   1.000000
    9       -4.240093     -4.235586   1.000000   1.000000
   10       -2.717594     -2.713051   1.000000   1.000000
   11       -1.341558     -1.333578   1.000000   1.000000
   12       -1.228959     -1.227275   1.000000   1.000000
   13        1.543446      1.567542   1.000000   1.000000
   14        2.717404      2.748009  -0.087693  -0.048126
   15        3.013429      3.046248   0.000000   0.000000
   16        3.913351      3.920109   0.000000   0.000000
   17        4.587420      4.592063   0.000000   0.000000
   18        5.584822      5.603511   0.000000   0.000000
   19        6.602125      6.611406   0.000000   0.000000
   20        6.922782      6.927835   0.000000   0.000000
   21        7.159128      7.161688   0.000000   0.000000
   22        8.228595      8.235044   0.000000   0.000000
   23        9.301926      9.306445   0.000000   0.000000
   24        9.980865      9.986224   0.000000   0.000000
   25       10.518819     10.529362   0.000000   0.000000
   26       11.208073     11.216283   0.000000   0.000000
   27       12.182453     12.189183   0.000000   0.000000
   28       12.854111     12.861379   0.000000   0.000000
   29       13.711156     13.721655   0.000000   0.000000
   30       14.509519     14.516432   0.000000   0.000000
   31       15.533586     15.539160   0.000000   0.000000
   32       16.563285     16.569833   0.000000   0.000000
 
  0.3770516E-15  0.2857143E+00  0.3757845E-15  0.1360544E-01
    1      -33.129973    -33.129672   1.000000   1.000000
    2      -29.264796    -29.232847   1.000000   1.000000
    3      -29.216211    -29.193841   1.000000   1.000000
    4      -29.103947    -29.081170   1.000000   1.000000
    5      -15.529678    -15.529208   1.000000   1.000000
    6      -15.204104    -15.203671   1.000000   1.000000
    7      -14.977078    -14.976658   1.000000   1.000000
    8       -6.496432     -6.491272   1.000000   1.000000
    9       -4.007545     -4.002787   1.000000   1.000000
   10       -2.641008     -2.636390   1.000000   1.000000
   11       -1.632661     -1.624705   1.000000   1.000000
   12       -1.165284     -1.163976   1.000000   1.000000
   13        1.297914      1.323725   1.000000   1.000000
   14        2.795264      2.832169  -0.070541  -0.049573
   15        3.220321      3.245194   0.000000   0.000000
   16        3.462624      3.468391   0.000000   0.000000
   17        4.948154      4.955193   0.000000   0.000000
   18        5.778500      5.787338   0.000000   0.000000
   19        6.484235      6.501775   0.000000   0.000000
   20        7.381393      7.384283   0.000000   0.000000
   21        7.757801      7.761409   0.000000   0.000000
   22        7.990417      7.997216   0.000000   0.000000
   23        8.502740      8.507943   0.000000   0.000000
   24       10.179314     10.187944   0.000000   0.000000
   25       10.827666     10.837406   0.000000   0.000000
   26       11.311219     11.319392   0.000000   0.000000
   27       11.495097     11.502479   0.000000   0.000000
   28       12.289072     12.295298   0.000000   0.000000
   29       13.939155     13.947975   0.000000   0.000000
   30       14.626473     14.634993   0.000000   0.000000
   31       15.334306     15.340260   0.000000   0.000000
   32       16.122823     16.127208   0.000000   0.000000
 
  0.1428571E+00  0.2857143E+00  0.3608225E-15  0.1360544E-01
    1      -33.143256    -33.142956   1.000000   1.000000
    2      -29.268392    -29.236254   1.000000   1.000000
    3      -29.209520    -29.187559   1.000000   1.000000
    4      -29.081844    -29.058837   1.000000   1.000000
    5      -15.383832    -15.383365   1.000000   1.000000
    6      -15.231370    -15.230935   1.000000   1.000000
    7      -14.985534    -14.985073   1.000000   1.000000
    8       -6.653703     -6.648448   1.000000   1.000000
    9       -4.224714     -4.220143   1.000000   1.000000
   10       -2.694548     -2.690173   1.000000   1.000000
   11       -1.379714     -1.371402   1.000000   1.000000
   12       -1.174994     -1.173374   1.000000   1.000000
   13        1.711561      1.740630   1.000000   1.000000
   14        2.612408      2.649495   0.005443  -0.056346
   15        2.921747      2.941785   0.000000   0.000000
   16        3.977590      3.984414   0.000000   0.000000
   17        4.716761      4.721956   0.000000   0.000000
   18        5.647336      5.663875   0.000000   0.000000
   19        6.659829      6.665425   0.000000   0.000000
   20        6.917627      6.924344   0.000000   0.000000
   21        6.989434      6.993449   0.000000   0.000000
   22        8.608893      8.618528   0.000000   0.000000
   23        9.150318      9.154753   0.000000   0.000000
   24        9.725461      9.731223   0.000000   0.000000
   25       10.492115     10.499358   0.000000   0.000000
   26       11.344746     11.353493   0.000000   0.000000
   27       11.935062     11.943581   0.000000   0.000000
   28       12.931409     12.940442   0.000000   0.000000
   29       13.523593     13.532229   0.000000   0.000000
   30       14.729539     14.738506   0.000000   0.000000
   31       15.159681     15.163731   0.000000   0.000000
   32       16.408773     16.415511   0.000000   0.000000
 
  0.2857143E+00  0.2857143E+00  0.4163336E-15  0.1360544E-01
    1      -33.126911    -33.126614   1.000000   1.000000
    2      -29.268906    -29.236912   1.000000   1.000000
    3      -29.240789    -29.218799   1.000000   1.000000
    4      -29.079752    -29.056661   1.000000   1.000000
    5      -15.540162    -15.539720   1.000000   1.000000
    6      -15.200136    -15.199664   1.000000   1.000000
    7      -14.987496    -14.987021   1.000000   1.000000
    8       -6.543647     -6.538509   1.000000   1.000000
    9       -4.012339     -4.007317   1.000000   1.000000
   10       -2.622900     -2.618391   1.000000   1.000000
   11       -1.620551     -1.612923   1.000000   1.000000
   12       -1.096398     -1.095257   1.000000   1.000000
   13        1.441228      1.470747   1.000000   1.000000
   14        2.665905      2.706788  -0.071953  -0.077115
   15        3.167238      3.185016   0.000000   0.000000
   16        3.775930      3.779834   0.000000   0.000000
   17        4.711454      4.720018   0.000000   0.000000
   18        5.921811      5.930563   0.000000   0.000000
   19        6.507783      6.521803   0.000000   0.000000
   20        7.000230      7.003562   0.000000   0.000000
   21        7.731596      7.734404   0.000000   0.000000
   22        8.210202      8.215659   0.000000   0.000000
   23        9.577067      9.586070   0.000000   0.000000
   24        9.732825      9.742061   0.000000   0.000000
   25       10.184295     10.194803   0.000000   0.000000
   26       10.825501     10.831890   0.000000   0.000000
   27       11.444652     11.452047   0.000000   0.000000
   28       13.238333     13.243784   0.000000   0.000000
   29       13.344993     13.355533   0.000000   0.000000
   30       14.246984     14.257243   0.000000   0.000000
   31       14.975528     14.979436   0.000000   0.000000
   32       16.270351     16.276442   0.000000   0.000000
 
  0.4285714E+00  0.2857143E+00  0.1276756E-14  0.1360544E-01
    1      -33.093037    -33.092742   1.000000   1.000000
    2      -29.285212    -29.260341   1.000000   1.000000
    3      -29.251963    -29.222870   1.000000   1.000000
    4      -29.114594    -29.091532   1.000000   1.000000
    5      -15.725362    -15.724899   1.000000   1.000000
    6      -15.154894    -15.154428   1.000000   1.000000
    7      -15.125345    -15.124894   1.000000   1.000000
    8       -6.255081     -6.250209   1.000000   1.000000
    9       -3.417491     -3.411615   1.000000   1.000000
   10       -2.464965     -2.459291   1.000000   1.000000
   11       -2.090982     -2.085538   1.000000   1.000000
   12       -0.941656     -0.940851   1.000000   1.000000
   13        1.040140      1.068262   1.000000   1.000000
   14        2.214341      2.250036   0.887299   0.804292
   15        3.752980      3.758826   0.000000   0.000000
   16        3.926902      3.944552   0.000000   0.000000
   17        4.820681      4.831756   0.000000   0.000000
   18        5.339968      5.346016   0.000000   0.000000
   19        6.344970      6.352219   0.000000   0.000000
   20        7.150283      7.166089   0.000000   0.000000
   21        8.224355      8.233299   0.000000   0.000000
   22        8.495142      8.502460   0.000000   0.000000
   23        9.108310      9.119415   0.000000   0.000000
   24        9.762502      9.768818   0.000000   0.000000
   25       10.413484     10.420849   0.000000   0.000000
   26       10.898935     10.905313   0.000000   0.000000
   27       11.114638     11.121000   0.000000   0.000000
   28       12.663767     12.670103   0.000000   0.000000
   29       13.144855     13.149486   0.000000   0.000000
   30       14.231812     14.239465   0.000000   0.000000
   31       14.895060     14.900756   0.000000   0.000000
   32       15.727841     15.735377   0.000000   0.000000
 
 -0.4285714E+00  0.2857143E+00  0.4440892E-15  0.1360544E-01
    1      -33.067068    -33.066773   1.000000   1.000000
    2      -29.277791    -29.253250   1.000000   1.000000
    3      -29.247400    -29.217958   1.000000   1.000000
    4      -29.174750    -29.151737   1.000000   1.000000
    5      -15.720679    -15.720213   1.000000   1.000000
    6      -15.421366    -15.420908   1.000000   1.000000
    7      -15.087573    -15.087150   1.000000   1.000000
    8       -5.980573     -5.975927   1.000000   1.000000
    9       -2.836603     -2.829922   1.000000   1.000000
   10       -2.512251     -2.505604   1.000000   1.000000
   11       -2.200809     -2.196796   1.000000   1.000000
   12       -0.859070     -0.858721   1.000000   1.000000
   13        0.965975      0.993923   1.000000   1.000000
   14        1.555826      1.586965   1.000000   1.000000
   15        4.002954      4.007841   0.000000   0.000000
   16        4.471120      4.481589   0.000000   0.000000