  19  19   0   0
  0.8428020E+01  0.4359707E-09  0.5591450E-09  0.7135508E-09  0.5000000E-15
  1.000000000000000E-004
  CAR 
 unknown system                          
      9.48970836    -33.83029273  301      3.26738631      1.00000000
    -33.830  0.0000E+00  0.0000E+00
    -33.686  0.0000E+00  0.0000E+00
    -33.541  0.0000E+00  0.0000E+00
    -33.397  0.0000E+00  0.0000E+00
    -33.253  0.0000E+00  0.0000E+00
    -33.108  0.0000E+00  0.0000E+00
    -32.964  0.0000E+00  0.0000E+00
    -32.819  0.0000E+00  0.0000E+00
    -32.675  0.1987E-27  0.2869E-28
    -32.531  0.2298E-18  0.3318E-19
    -32.386  0.3485E-11  0.5033E-12
    -32.242  0.5989E-06  0.8648E-07
    -32.097  0.6571E-03  0.9497E-04
    -31.953 -0.1254E-01 -0.1715E-02
    -31.809  0.2286E+00  0.3130E-01
    -31.664  0.1298E-01  0.3318E-01
    -31.520  0.1082E-02  0.3333E-01
    -31.375  0.9288E-05  0.3333E-01
    -31.231  0.2276E-09  0.3333E-01
    -31.087  0.6134E-16  0.3333E-01
    -30.942  0.0000E+00  0.3333E-01
    -30.798  0.0000E+00  0.3333E-01
    -30.653  0.0000E+00  0.3333E-01
    -30.509  0.0000E+00  0.3333E-01
    -30.365  0.0000E+00  0.3333E-01
    -30.220  0.0000E+00  0.3333E-01
    -30.076  0.0000E+00  0.3333E-01
    -29.931  0.0000E+00  0.3333E-01
    -29.787  0.0000E+00  0.3333E-01
    -29.643  0.0000E+00  0.3333E-01
    -29.498  0.1974E-32  0.3333E-01
    -29.354  0.1170E-22  0.3333E-01
    -29.209  0.1007E-14  0.3333E-01
    -29.065  0.1188E-08  0.3333E-01
    -28.921  0.1635E-04  0.3334E-01
    -28.776  0.5232E-03  0.3341E-01
    -28.632  0.1806E-01  0.3602E-01
    -28.487  0.2146E+00  0.6701E-01
    -28.343  0.4307E+00  0.1292E+00
    -28.199  0.5959E+00  0.2152E+00
    -28.054  0.2555E+00  0.2521E+00
    -27.910  0.1827E+00  0.2785E+00
    -27.765  0.7765E+00  0.3906E+00
    -27.621  0.8945E-01  0.4036E+00
    -27.477  0.5447E-01  0.4114E+00
    -27.332  0.4672E-01  0.4182E+00
    -27.188  0.9093E-01  0.4313E+00
    -27.043  0.1401E-01  0.4333E+00
    -26.899  0.5614E-04  0.4333E+00
    -26.755  0.1098E-04  0.4333E+00
    -26.610  0.8838E-09  0.4333E+00
    -26.466  0.7327E-15  0.4333E+00
    -26.321  0.0000E+00  0.4333E+00
    -26.177  0.0000E+00  0.4333E+00
    -26.033  0.0000E+00  0.4333E+00
    -25.888  0.0000E+00  0.4333E+00
    -25.744  0.0000E+00  0.4333E+00
    -25.599  0.0000E+00  0.4333E+00
    -25.455  0.0000E+00  0.4333E+00
    -25.311  0.0000E+00  0.4333E+00
    -25.166  0.0000E+00  0.4333E+00
    -25.022  0.0000E+00  0.4333E+00
    -24.877  0.0000E+00  0.4333E+00
    -24.733  0.0000E+00  0.4333E+00
    -24.589  0.0000E+00  0.4333E+00
    -24.444  0.0000E+00  0.4333E+00
    -24.300  0.0000E+00  0.4333E+00
    -24.155  0.0000E+00  0.4333E+00
    -24.011  0.0000E+00  0.4333E+00
    -23.867  0.0000E+00  0.4333E+00
    -23.722  0.0000E+00  0.4333E+00
    -23.578  0.0000E+00  0.4333E+00
    -23.433  0.0000E+00  0.4333E+00
    -23.289  0.0000E+00  0.4333E+00
    -23.145  0.0000E+00  0.4333E+00
    -23.000  0.0000E+00  0.4333E+00
    -22.856  0.0000E+00  0.4333E+00
    -22.711  0.0000E+00  0.4333E+00
    -22.567  0.0000E+00  0.4333E+00
    -22.423  0.0000E+00  0.4333E+00
    -22.278  0.0000E+00  0.4333E+00
    -22.134  0.0000E+00  0.4333E+00
    -21.989  0.0000E+00  0.4333E+00
    -21.845  0.0000E+00  0.4333E+00
    -21.701  0.0000E+00  0.4333E+00
    -21.556  0.0000E+00  0.4333E+00
    -21.412  0.0000E+00  0.4333E+00
    -21.267  0.0000E+00  0.4333E+00
    -21.123  0.0000E+00  0.4333E+00
    -20.979  0.0000E+00  0.4333E+00
    -20.834  0.0000E+00  0.4333E+00
    -20.690  0.0000E+00  0.4333E+00
    -20.545  0.0000E+00  0.4333E+00
    -20.401  0.0000E+00  0.4333E+00
    -20.257  0.0000E+00  0.4333E+00
    -20.112  0.0000E+00  0.4333E+00
    -19.968  0.0000E+00  0.4333E+00
    -19.823  0.0000E+00  0.4333E+00
    -19.679  0.0000E+00  0.4333E+00
    -19.535  0.0000E+00  0.4333E+00
    -19.390  0.0000E+00  0.4333E+00
    -19.246  0.0000E+00  0.4333E+00
    -19.101  0.0000E+00  0.4333E+00
    -18.957  0.0000E+00  0.4333E+00
    -18.813  0.0000E+00  0.4333E+00
    -18.668  0.0000E+00  0.4333E+00
    -18.524  0.0000E+00  0.4333E+00
    -18.379  0.0000E+00  0.4333E+00
    -18.235  0.0000E+00  0.4333E+00
    -18.091  0.0000E+00  0.4333E+00
    -17.946  0.0000E+00  0.4333E+00
    -17.802  0.0000E+00  0.4333E+00
    -17.657  0.0000E+00  0.4333E+00
    -17.513  0.0000E+00  0.4333E+00
    -17.369  0.0000E+00  0.4333E+00
    -17.224  0.0000E+00  0.4333E+00
    -17.080  0.0000E+00  0.4333E+00
    -16.935  0.0000E+00  0.4333E+00
    -16.791  0.0000E+00  0.4333E+00
    -16.647  0.0000E+00  0.4333E+00
    -16.502  0.0000E+00  0.4333E+00
    -16.358  0.0000E+00  0.4333E+00
    -16.213  0.0000E+00  0.4333E+00
    -16.069  0.0000E+00  0.4333E+00
    -15.925  0.0000E+00  0.4333E+00
    -15.780  0.0000E+00  0.4333E+00
    -15.636  0.0000E+00  0.4333E+00
    -15.491  0.0000E+00  0.4333E+00
    -15.347  0.0000E+00  0.4333E+00
    -15.203  0.0000E+00  0.4333E+00
    -15.058  0.0000E+00  0.4333E+00
    -14.914  0.4376E-28  0.4333E+00
    -14.769  0.5155E-19  0.4333E+00
    -14.625  0.8156E-12  0.4333E+00
    -14.481  0.1544E-06  0.4333E+00
    -14.336  0.2317E-03  0.4334E+00
    -14.192 -0.3473E-02  0.4329E+00
    -14.047  0.9862E-01  0.4471E+00
    -13.903  0.5483E+00  0.5263E+00
    -13.759  0.4770E-01  0.5332E+00
    -13.614  0.1093E-02  0.5333E+00
    -13.470  0.4077E-04  0.5333E+00
    -13.325  0.2412E-08  0.5333E+00
    -13.181  0.1493E-14  0.5333E+00
    -13.037  0.0000E+00  0.5333E+00
    -12.892  0.0000E+00  0.5333E+00
    -12.748  0.0000E+00  0.5333E+00
    -12.603  0.0000E+00  0.5333E+00
    -12.459  0.0000E+00  0.5333E+00
    -12.315  0.0000E+00  0.5333E+00
    -12.170  0.0000E+00  0.5333E+00
    -12.026  0.0000E+00  0.5333E+00
    -11.881  0.0000E+00  0.5333E+00
    -11.737  0.0000E+00  0.5333E+00
    -11.593  0.0000E+00  0.5333E+00
    -11.448  0.0000E+00  0.5333E+00
    -11.304  0.0000E+00  0.5333E+00
    -11.159  0.0000E+00  0.5333E+00
    -11.015  0.0000E+00  0.5333E+00
    -10.871  0.0000E+00  0.5333E+00
    -10.726  0.0000E+00  0.5333E+00
    -10.582  0.0000E+00  0.5333E+00
    -10.437  0.0000E+00  0.5333E+00
    -10.293  0.0000E+00  0.5333E+00
    -10.149  0.0000E+00  0.5333E+00
    -10.004  0.0000E+00  0.5333E+00
     -9.860  0.0000E+00  0.5333E+00
     -9.715  0.0000E+00  0.5333E+00
     -9.571  0.0000E+00  0.5333E+00
     -9.427  0.0000E+00  0.5333E+00
     -9.282  0.0000E+00  0.5333E+00
     -9.138  0.0000E+00  0.5333E+00
     -8.993  0.0000E+00  0.5333E+00
     -8.849  0.0000E+00  0.5333E+00
     -8.705  0.0000E+00  0.5333E+00
     -8.560  0.0000E+00  0.5333E+00
     -8.416  0.0000E+00  0.5333E+00
     -8.271  0.0000E+00  0.5333E+00
     -8.127  0.0000E+00  0.5333E+00
     -7.983  0.0000E+00  0.5333E+00
     -7.838  0.0000E+00  0.5333E+00
     -7.694  0.0000E+00  0.5333E+00
     -7.549  0.0000E+00  0.5333E+00
     -7.405  0.0000E+00  0.5333E+00
     -7.261  0.0000E+00  0.5333E+00
     -7.116  0.8957E-33  0.5333E+00
     -6.972  0.3242E-23  0.5333E+00
     -6.827  0.1567E-15  0.5333E+00
     -6.683  0.9040E-10  0.5333E+00
     -6.539  0.4418E-06  0.5333E+00
     -6.394 -0.4116E-05  0.5333E+00
     -6.250  0.1615E-03  0.5334E+00
     -6.105  0.4141E-02  0.5340E+00
     -5.961  0.7707E-02  0.5351E+00
     -5.817  0.8872E-02  0.5363E+00
     -5.672  0.1537E-01  0.5386E+00
     -5.528  0.1258E-01  0.5404E+00
     -5.383  0.2228E-01  0.5436E+00
     -5.239  0.1459E-01  0.5457E+00
     -5.095  0.2998E-01  0.5500E+00
     -4.950  0.1851E-01  0.5527E+00
     -4.806  0.1823E-01  0.5553E+00
     -4.661  0.1643E-01  0.5577E+00
     -4.517  0.2666E-01  0.5616E+00
     -4.373  0.3216E-01  0.5662E+00
     -4.228  0.4013E-01  0.5720E+00
     -4.084  0.3549E-01  0.5771E+00
     -3.939  0.4367E-01  0.5834E+00
     -3.795  0.4023E-01  0.5892E+00
     -3.651  0.3719E-01  0.5946E+00
     -3.506  0.5180E-01  0.6021E+00
     -3.362  0.6156E-01  0.6110E+00
     -3.217  0.6449E-01  0.6203E+00
     -3.073  0.5271E-01  0.6279E+00
     -2.929  0.5311E-01  0.6356E+00
     -2.784  0.8100E-01  0.6473E+00
     -2.640  0.1162E+00  0.6641E+00
     -2.495  0.9661E-01  0.6780E+00
     -2.351  0.1187E+00  0.6951E+00
     -2.207  0.9501E-01  0.7089E+00
     -2.062  0.1080E+00  0.7245E+00
     -1.918  0.1496E+00  0.7461E+00
     -1.773  0.9663E-01  0.7600E+00
     -1.629  0.6263E-01  0.7690E+00
     -1.485  0.9731E-01  0.7831E+00
     -1.340  0.1613E+00  0.8064E+00
     -1.196  0.1292E+00  0.8250E+00
     -1.051  0.1086E+00  0.8407E+00
     -0.907  0.1199E+00  0.8581E+00
     -0.763  0.1169E+00  0.8749E+00
     -0.618  0.1018E+00  0.8896E+00
     -0.474  0.5153E-01  0.8971E+00
     -0.329  0.9376E-01  0.9106E+00
     -0.185  0.1222E+00  0.9283E+00
     -0.041  0.8894E-01  0.9411E+00
      0.104  0.1007E+00  0.9556E+00
      0.248  0.5290E-01  0.9633E+00
      0.393  0.3803E-01  0.9688E+00
      0.537  0.3001E-01  0.9731E+00
      0.681  0.3817E-01  0.9786E+00
      0.826  0.3492E-01  0.9837E+00
      0.970  0.2668E-01  0.9875E+00
      1.115  0.7945E-01  0.9990E+00
      1.259  0.5887E-01  0.1007E+01
      1.403  0.4271E-01  0.1014E+01
      1.548  0.4214E-01  0.1020E+01
      1.692  0.4273E-01  0.1026E+01
      1.837  0.5671E-01  0.1034E+01
      1.981  0.5970E-01  0.1043E+01
      2.125  0.6731E-01  0.1052E+01
      2.270  0.9500E-01  0.1066E+01
      2.414  0.9092E-01  0.1079E+01
      2.559  0.4653E-01  0.1086E+01
      2.703  0.6133E-01  0.1095E+01
      2.847  0.5952E-01  0.1103E+01
      2.992  0.8208E-01  0.1115E+01
      3.136  0.7620E-01  0.1126E+01
      3.281  0.5303E-01  0.1134E+01
      3.425  0.6457E-01  0.1143E+01
      3.569  0.7634E-01  0.1154E+01
      3.714  0.7632E-01  0.1165E+01
      3.858  0.7540E-01  0.1176E+01
      4.003  0.8482E-01  0.1188E+01
      4.147  0.9296E-01  0.1202E+01
      4.291  0.1195E+00  0.1219E+01
      4.436  0.1286E+00  0.1238E+01
      4.580  0.1229E+00  0.1255E+01
      4.725  0.1002E+00  0.1270E+01
      4.869  0.9385E-01  0.1283E+01
      5.013  0.1290E+00  0.1302E+01
      5.158  0.1358E+00  0.1322E+01
      5.302  0.1156E+00  0.1338E+01
      5.447  0.8535E-01  0.1351E+01
      5.591  0.5701E-01  0.1359E+01
      5.735  0.4895E-01  0.1366E+01
      5.880  0.6502E-01  0.1375E+01
      6.024  0.7716E-01  0.1387E+01
      6.169  0.6578E-01  0.1396E+01
      6.313  0.8277E-01  0.1408E+01
      6.457  0.7680E-01  0.1419E+01
      6.602  0.6089E-01  0.1428E+01
      6.746  0.5520E-01  0.1436E+01
      6.891  0.9016E-01  0.1449E+01
      7.035  0.7326E-01  0.1459E+01
      7.179  0.2043E-01  0.1462E+01
      7.324  0.2068E-01  0.1465E+01
      7.468  0.7296E-02  0.1466E+01
      7.613  0.1417E-02  0.1467E+01
      7.757 -0.3595E-04  0.1467E+01
      7.901  0.3487E-05  0.1467E+01
      8.046  0.3253E-08  0.1467E+01
      8.190  0.2027E-13  0.1467E+01
      8.335  0.0000E+00  0.1467E+01
      8.479  0.0000E+00  0.1467E+01
      8.623  0.0000E+00  0.1467E+01
      8.768  0.0000E+00  0.1467E+01
      8.912  0.0000E+00  0.1467E+01
      9.057  0.0000E+00  0.1467E+01
      9.201  0.0000E+00  0.1467E+01
      9.345  0.0000E+00  0.1467E+01
      9.490  0.0000E+00  0.1467E+01
