 running on   32 total cores
 distrk:  each k-point on   32 cores,    1 groups
 distr:  one band on    8 cores,    4 groups
 using from now: INCAR     
 vasp.5.4.4.18Apr17-6-g9f103f2a35 (build Nov 01 2019 12:17:22) complex          
  
 POSCAR found type information on POSCAR  H  Sr H  Nb H 
 POSCAR found :  5 types and      16 ions
 LDA part: xc-table for Pade appr. of Perdew
 generate k-points for:   10    8    7
 POSCAR, INCAR and KPOINTS ok, starting setup
 FFT: planning ...
 WAVECAR not read
 entering main loop
       N       E                     dE             d eps       ncg     rms          rms(c)
DAV:   1     0.115368439156E+03    0.11537E+03   -0.11071E+04 16472   0.644E+02
DAV:   2    -0.512859472712E+02   -0.16665E+03   -0.16128E+03 19772   0.251E+02
DAV:   3    -0.615584451909E+02   -0.10272E+02   -0.10209E+02 25952   0.507E+01
DAV:   4    -0.620076675419E+02   -0.44922E+00   -0.44796E+00 25480   0.872E+00
DAV:   5    -0.620147097181E+02   -0.70422E-02   -0.70414E-02 24152   0.892E-01    0.359E+01
DAV:   6    -0.593018320910E+02    0.27129E+01   -0.45547E+00 22952   0.146E+01    0.152E+01
DAV:   7    -0.585667334014E+02    0.73510E+00   -0.13513E+00 22400   0.551E+00    0.710E+00
DAV:   8    -0.585259918715E+02    0.40742E-01   -0.37140E-01 22864   0.319E+00    0.184E+00
DAV:   9    -0.585281635119E+02   -0.21716E-02   -0.17121E-02 19588   0.741E-01    0.107E+00
DAV:  10    -0.585300853121E+02   -0.19218E-02   -0.11544E-02 23096   0.568E-01    0.153E-01
DAV:  11    -0.585303653023E+02   -0.27999E-03   -0.90937E-04 20196   0.184E-01    0.923E-02
DAV:  12    -0.585305466798E+02   -0.18138E-03   -0.18522E-04 16940   0.752E-02    0.215E-02
DAV:  13    -0.585305608038E+02   -0.14124E-04   -0.17566E-05 11236   0.301E-02
   1 F= -.58530561E+02 E0= -.58530621E+02  d E =-.585306E+02
 curvature:   0.00 expect dE= 0.000E+00 dE for cont linesearch  0.000E+00
 trial: gam= 0.00000 g(F)=  0.144E-02 g(S)=  0.417E-03 ort = 0.000E+00 (trialstep = 0.100E+01)
 search vector abs. value=  0.186E-02
 bond charge predicted
       N       E                     dE             d eps       ncg     rms          rms(c)
DAV:   1    -0.585312787775E+02   -0.73210E-03   -0.42345E-02 19224   0.134E+00    0.110E-01
DAV:   2    -0.585313674075E+02   -0.88630E-04   -0.27598E-03 19764   0.300E-01    0.682E-02
DAV:   3    -0.585312981980E+02    0.69210E-04   -0.95383E-05 15240   0.681E-02
   2 F= -.58531298E+02 E0= -.58531359E+02  d E =-.737394E-03
 trial-energy change:   -0.000737  1 .order   -0.000799   -0.001858    0.000259
 step:   0.8776(harm=  0.8776)  dis= 0.00335  next Energy=   -58.531376 (dE=-0.815E-03)
 bond charge predicted
       N       E                     dE             d eps       ncg     rms          rms(c)
DAV:   1    -0.585313274609E+02    0.39947E-04   -0.90698E-04 17576   0.191E-01    0.227E-02
DAV:   2    -0.585313306558E+02   -0.31949E-05   -0.71167E-05 10024   0.507E-02
   3 F= -.58531331E+02 E0= -.58531391E+02  d E =-.769852E-03
 curvature:  -0.44 expect dE=-0.103E-02 dE for cont linesearch -0.691E-05
 trial: gam= 1.35145 g(F)=  0.208E-02 g(S)=  0.261E-03 ort =-0.171E-03 (trialstep = 0.344E+00)
 search vector abs. value=  0.527E-02
 reached required accuracy - stopping structural energy minimisation
