 running on   16 total cores
 distrk:  each k-point on   16 cores,    1 groups
 distr:  one band on    1 cores,   16 groups
 using from now: INCAR     
 vasp.5.4.4.18Apr17-6-g9f103f2a35 (build Nov 01 2019 12:17:22) complex          
  
 POSCAR found type information on POSCAR  H 
 POSCAR found :  1 types and      15 ions

 ----------------------------------------------------------------------------- 
|                                                                             |
|           W    W    AA    RRRRR   N    N  II  N    N   GGGG   !!!           |
|           W    W   A  A   R    R  NN   N  II  NN   N  G    G  !!!           |
|           W    W  A    A  R    R  N N  N  II  N N  N  G       !!!           |
|           W WW W  AAAAAA  RRRRR   N  N N  II  N  N N  G  GGG   !            |
|           WW  WW  A    A  R   R   N   NN  II  N   NN  G    G                |
|           W    W  A    A  R    R  N    N  II  N    N   GGGG   !!!           |
|                                                                             |
|      For optimal performance we recommend to set                            |
|        NCORE= 4 - approx SQRT( number of cores)                             |
|      NCORE specifies how many cores store one orbital (NPAR=cpu/NCORE).     |
|      This setting can  greatly improve the performance of VASP for DFT.     |
|      The default,   NCORE=1            might be grossly inefficient         |
|      on modern multi-core architectures or massively parallel machines.     |
|      Do your own testing !!!!                                               |
|      Unfortunately you need to use the default for GW and RPA calculations. |
|      (for HF NCORE is supported but not extensively tested yet)             |
|                                                                             |
 ----------------------------------------------------------------------------- 

 LDA part: xc-table for Pade appr. of Perdew
 POSCAR, INCAR and KPOINTS ok, starting setup
 FFT: planning ...
 WAVECAR not read
 entering main loop
       N       E                     dE             d eps       ncg     rms          rms(c)
DAV:   1    -0.123848669369E+02   -0.12385E+02   -0.61854E+03  8192   0.392E+02
DAV:   2    -0.437907347392E+02   -0.31406E+02   -0.30490E+02 11056   0.734E+01
DAV:   3    -0.446938563641E+02   -0.90312E+00   -0.90317E+00 10048   0.102E+01
DAV:   4    -0.446950680116E+02   -0.12116E-02   -0.12126E-02 10656   0.466E-01
DAV:   5    -0.446950704408E+02   -0.24292E-05   -0.24301E-05  8128   0.212E-02    0.170E+01
RMM:   6    -0.483976308720E+02   -0.37026E+01   -0.14577E+00  8192   0.333E+00    0.700E+00
RMM:   7    -0.486102927625E+02   -0.21266E+00   -0.87379E-01  8192   0.306E+00    0.325E+00
RMM:   8    -0.485442884221E+02    0.66004E-01   -0.23399E-01  8192   0.159E+00    0.929E-01
RMM:   9    -0.485705733184E+02   -0.26285E-01   -0.21988E-02  8192   0.541E-01    0.421E-01
RMM:  10    -0.485749695869E+02   -0.43963E-02   -0.14514E-03  8175   0.144E-01    0.162E-01
RMM:  11    -0.485767026571E+02   -0.17331E-02   -0.94253E-04  7655   0.116E-01    0.723E-02
RMM:  12    -0.485771674179E+02   -0.46476E-03   -0.35412E-04  7082   0.742E-02
   1 F= -.48577167E+02 E0= -.48577167E+02  d E =-.485772E+02  mag=    -0.0001
 curvature:   0.00 expect dE= 0.000E+00 dE for cont linesearch  0.000E+00
 trial: gam= 0.00000 g(F)=  0.741E-03 g(S)=  0.129E+00 ort = 0.000E+00 (trialstep = 0.100E+01)
 search vector abs. value=  0.129E+00
 bond charge predicted
       N       E                     dE             d eps       ncg     rms          rms(c)
DAV:   1    -0.486917876756E+02   -0.11509E+00   -0.21387E-01 10384   0.188E+00    0.385E-01
RMM:   2    -0.486901229256E+02    0.16648E-02   -0.18920E-03  7654   0.154E-01    0.223E-01
RMM:   3    -0.486893133567E+02    0.80957E-03   -0.75491E-04  4688   0.814E-02    0.131E-02
RMM:   4    -0.486893185033E+02   -0.51467E-05   -0.18433E-05  3864   0.175E-02
   2 F= -.48689319E+02 E0= -.48689319E+02  d E =-.112151E+00  mag=     0.0000
 trial-energy change:   -0.112151  1 .order   -0.112965   -0.129416   -0.096514
 step:   3.9333(harm=  3.9333)  dis= 0.00686  next Energy=   -48.831686 (dE=-0.255E+00)
 bond charge predicted
       N       E                     dE             d eps       ncg     rms          rms(c)
DAV:   1    -0.488565471187E+02   -0.16723E+00   -0.17188E+00  8768   0.516E+00    0.108E+00
RMM:   2    -0.488427532899E+02    0.13794E-01   -0.16075E-02  8192   0.436E-01    0.625E-01
RMM:   3    -0.488359742351E+02    0.67791E-02   -0.65228E-03  8192   0.226E-01    0.399E-02
RMM:   4    -0.488359933130E+02   -0.19078E-04   -0.29726E-05  4498   0.232E-02
   3 F= -.48835993E+02 E0= -.48835993E+02  d E =-.258826E+00  mag=     0.0000
 curvature:  -1.97 expect dE=-0.143E+01 dE for cont linesearch -0.981E-03
 trial: gam= 5.55890 g(F)=  0.682E+00 g(S)=  0.454E-01 ort = 0.804E-02 (trialstep = 0.426E-01)
 search vector abs. value=  0.482E+01
 bond charge predicted
       N       E                     dE             d eps       ncg     rms          rms(c)
DAV:   1    -0.488686656226E+02   -0.32691E-01   -0.56009E-02 11680   0.766E-01    0.174E-01
RMM:   2    -0.488683073528E+02    0.35827E-03   -0.82582E-04  4929   0.999E-02
   4 F= -.48868307E+02 E0= -.48868307E+02  d E =-.323140E-01  mag=     0.0000
 ZBRENT: can't locate minimum, use default step
 trial-energy change:   -0.032314  1 .order   -0.032710   -0.032921   -0.032499
 step:   0.1706(harm=  3.3222)  dis= 0.00840  next Energy=   -50.118577 (dE=-0.128E+01)
 bond charge predicted
       N       E                     dE             d eps       ncg     rms          rms(c)
DAV:   1    -0.489589713732E+02   -0.90306E-01   -0.48137E-01  9008   0.226E+00    0.513E-01
RMM:   2    -0.489558107691E+02    0.31606E-02   -0.68694E-03  8169   0.279E-01    0.294E-01
RMM:   3    -0.489542366559E+02    0.15741E-02   -0.15594E-03  7938   0.103E-01    0.165E-02
RMM:   4    -0.489542449613E+02   -0.83055E-05   -0.17346E-05  4236   0.188E-02
   5 F= -.48954245E+02 E0= -.48954245E+02  d E =-.118252E+00  mag=    -0.0000
 curvature:  -0.79 expect dE=-0.332E+00 dE for cont linesearch -0.617E-01
 ZBRENT: increasing intervall
 opt :   0.4264  next Energy=   -49.072446 (dE=-0.236E+00)
 bond charge predicted
       N       E                     dE             d eps       ncg     rms          rms(c)
DAV:   1    -0.490979565141E+02   -0.14372E+00   -0.20112E+00  9712   0.453E+00    0.103E+00
RMM:   2    -0.490848965590E+02    0.13060E-01   -0.30142E-02  8192   0.574E-01    0.590E-01
RMM:   3    -0.490783625748E+02    0.65340E-02   -0.67030E-03  8192   0.209E-01    0.287E-02
RMM:   4    -0.490783858682E+02   -0.23293E-04   -0.33029E-05  4696   0.227E-02
   6 F= -.49078386E+02 E0= -.49078386E+02  d E =-.242393E+00  mag=    -0.0000
 curvature:  -1.52 expect dE=-0.152E+00 dE for cont linesearch -0.406E-01
 ZBRENT: increasing intervall
 opt :   0.9380  next Energy=   -49.132377 (dE=-0.296E+00)
 bond charge predicted
       N       E                     dE             d eps       ncg     rms          rms(c)
DAV:   1    -0.491976556286E+02   -0.11929E+00   -0.81361E+00  9200   0.895E+00    0.209E+00
RMM:   2    -0.491414029247E+02    0.56253E-01   -0.13159E-01  8192   0.116E+00    0.119E+00
RMM:   3    -0.491134855523E+02    0.27917E-01   -0.30658E-02  8192   0.437E-01    0.632E-02
RMM:   4    -0.491135823379E+02   -0.96786E-04   -0.15173E-04  5458   0.490E-02
   7 F= -.49113582E+02 E0= -.49113582E+02  d E =-.277589E+00  mag=    -0.0000
 curvature:  -2.02 expect dE=-0.696E+00 dE for cont linesearch -0.186E-01
 ZBRENT: bracketing found
 ZBRENT: interpolating
 opt :   0.7487  next Energy=   -49.133540 (dE=-0.298E+00)
 bond charge predicted
       N       E                     dE             d eps       ncg     rms          rms(c)
DAV:   1    -0.491478620752E+02   -0.34377E-01   -0.11731E+00  9136   0.349E+00    0.805E-01
RMM:   2    -0.491391626291E+02    0.86994E-02   -0.14284E-02  8192   0.387E-01    0.453E-01
RMM:   3    -0.491353447292E+02    0.38179E-02   -0.40747E-03  8101   0.160E-01    0.322E-02
RMM:   4    -0.491353435379E+02    0.11914E-05   -0.39489E-05  4601   0.252E-02
   8 F= -.49135344E+02 E0= -.49135344E+02  d E =-.299350E+00  mag=    -0.0000
 curvature:  -2.16 expect dE=-0.171E+00 dE for cont linesearch -0.561E-05
 trial: gam= 0.35723 g(F)=  0.627E-01 g(S)=  0.162E-01 ort = 0.353E-02 (trialstep = 0.184E+00)
 search vector abs. value=  0.696E+00
 bond charge predicted
       N       E                     dE             d eps       ncg     rms          rms(c)
DAV:   1    -0.491493577670E+02   -0.14013E-01   -0.59696E-02 10896   0.853E-01    0.202E-01
RMM:   2    -0.491488072916E+02    0.55048E-03   -0.69076E-04  5013   0.838E-02
   9 F= -.49148807E+02 E0= -.49148807E+02  d E =-.134638E-01  mag=    -0.0000
 ZBRENT: can't locate minimum, use default step
 trial-energy change:   -0.013464  1 .order   -0.014420   -0.014736   -0.014105
 step:   0.7354(harm=  4.2987)  dis= 0.00450  next Energy=   -49.307619 (dE=-0.172E+00)
 bond charge predicted
       N       E                     dE             d eps       ncg     rms          rms(c)
DAV:   1    -0.491774141021E+02   -0.28056E-01   -0.49866E-01 10240   0.245E+00    0.598E-01
RMM:   2    -0.491725594211E+02    0.48547E-02   -0.59418E-03  8192   0.239E-01    0.341E-01
RMM:   3    -0.491703341081E+02    0.22253E-02   -0.24432E-03  8136   0.127E-01    0.248E-02
RMM:   4    -0.491703395474E+02   -0.54394E-05   -0.12555E-05  3998   0.150E-02
  10 F= -.49170340E+02 E0= -.49170340E+02  d E =-.349960E-01  mag=    -0.0000
 curvature:  -4.67 expect dE=-0.111E+00 dE for cont linesearch -0.186E-02
 trial: gam= 0.08759 g(F)=  0.528E-02 g(S)=  0.185E-01 ort = 0.166E-01 (trialstep = 0.294E+00)
 search vector abs. value=  0.320E-01
 bond charge predicted
       N       E                     dE             d eps       ncg     rms          rms(c)
DAV:   1    -0.491771475509E+02   -0.68134E-02   -0.18258E-02 11872   0.467E-01    0.696E-02
RMM:   2    -0.491771713583E+02   -0.23807E-04   -0.59043E-04  4407   0.904E-02
  11 F= -.49177171E+02 E0= -.49177171E+02  d E =-.683181E-02  mag=    -0.0000
 ZBRENT: can't locate minimum, use default step
 trial-energy change:   -0.006832  1 .order   -0.006852   -0.007420   -0.006284
 step:   1.1766(harm=  1.9207)  dis= 0.00737  next Energy=   -49.194566 (dE=-0.242E-01)
 bond charge predicted
       N       E                     dE             d eps       ncg     rms          rms(c)
DAV:   1    -0.491903502348E+02   -0.13203E-01   -0.16244E-01 10528   0.139E+00    0.205E-01
RMM:   2    -0.491905571228E+02   -0.20689E-03   -0.50633E-03  8166   0.258E-01
  12 F= -.49190557E+02 E0= -.49190557E+02  d E =-.202176E-01  mag=    -0.0000
 curvature:  -0.96 expect dE=-0.415E-01 dE for cont linesearch -0.310E-02
 trial: gam= 0.00000 g(F)=  0.268E-01 g(S)=  0.162E-01 ort = 0.102E-01 (trialstep = 0.350E+00)
 search vector abs. value=  0.430E-01
 bond charge predicted
       N       E                     dE             d eps       ncg     rms          rms(c)
DAV:   1    -0.492001575706E+02   -0.98073E-02   -0.91017E-02 10960   0.105E+00    0.143E-01
RMM:   2    -0.492004600720E+02   -0.30250E-03   -0.56476E-03  7800   0.271E-01
  13 F= -.49200460E+02 E0= -.49200460E+02  d E =-.990295E-02  mag=    -0.0000
 trial-energy change:   -0.009903  1 .order   -0.009892   -0.015071   -0.004713
 step:   0.5098(harm=  0.5098)  dis= 0.00817  next Energy=   -49.201521 (dE=-0.110E-01)
 bond charge predicted
       N       E                     dE             d eps       ncg     rms          rms(c)
DAV:   1    -0.492011629649E+02   -0.10054E-02   -0.16798E-02 11488   0.450E-01    0.837E-02
RMM:   2    -0.492011041665E+02    0.58798E-04   -0.23335E-04  5396   0.588E-02
  14 F= -.49201104E+02 E0= -.49201104E+02  d E =-.105470E-01  mag=    -0.0000
 curvature:  -0.25 expect dE=-0.646E-02 dE for cont linesearch -0.271E-04
 trial: gam= 0.63866 g(F)=  0.125E-01 g(S)=  0.128E-01 ort =-0.214E-02 (trialstep = 0.382E+00)
 search vector abs. value=  0.401E-01
 bond charge predicted
       N       E                     dE             d eps       ncg     rms          rms(c)
DAV:   1    -0.492098654403E+02   -0.87025E-02   -0.25603E-02 10176   0.532E-01    0.827E-02
RMM:   2    -0.492099358932E+02   -0.70453E-04   -0.57355E-04  5923   0.879E-02
  15 F= -.49209936E+02 E0= -.49209936E+02  d E =-.883173E-02  mag=    -0.0000
 ZBRENT: can't locate minimum, use default step
 trial-energy change:   -0.008832  1 .order   -0.008861   -0.009161   -0.008560
 step:   1.5289(harm=  5.8281)  dis= 0.00637  next Energy=   -49.270946 (dE=-0.698E-01)
 bond charge predicted
       N       E                     dE             d eps       ncg     rms          rms(c)
DAV:   1    -0.492322377063E+02   -0.22372E-01   -0.23174E-01 10208   0.160E+00    0.230E-01
RMM:   2    -0.492329045425E+02   -0.66684E-03   -0.47792E-03  8184   0.247E-01
  16 F= -.49232905E+02 E0= -.49232905E+02  d E =-.318004E-01  mag=    -0.0000
 curvature:  -1.84 expect dE=-0.368E-01 dE for cont linesearch -0.145E-01
 ZBRENT: increasing intervall
 opt :   3.8224  next Energy=   -49.263090 (dE=-0.620E-01)
 bond charge predicted
       N       E                     dE             d eps       ncg     rms          rms(c)
DAV:   1    -0.492594026341E+02   -0.27165E-01   -0.94900E-01 10416   0.324E+00    0.439E-01
RMM:   2    -0.492619319886E+02   -0.25294E-02   -0.18075E-02  8192   0.473E-01    0.287E-01
RMM:   3    -0.492628730692E+02   -0.94108E-03   -0.15895E-03  8156   0.134E-01    0.911E-02
RMM:   4    -0.492627009120E+02    0.17216E-03   -0.15985E-04  6935   0.532E-02
  17 F= -.49262701E+02 E0= -.49262701E+02  d E =-.615967E-01  mag=    -0.0000
 curvature:  -3.83 expect dE=-0.676E-01 dE for cont linesearch -0.540E-02
 trial: gam= 0.10371 g(F)=  0.149E-01 g(S)=  0.277E-02 ort = 0.752E-02 (trialstep = 0.107E+01)
 search vector abs. value=  0.196E-01
 bond charge predicted
       N       E                     dE             d eps       ncg     rms          rms(c)
DAV:   1    -0.492542692514E+02    0.86038E-02   -0.44468E-01 11296   0.230E+00    0.327E-01
RMM:   2    -0.492547535923E+02   -0.48434E-03   -0.19467E-02  8126   0.498E-01    0.224E-01
RMM:   3    -0.492539884497E+02    0.76514E-03   -0.87269E-04  7593   0.741E-02    0.187E-02
RMM:   4    -0.492539866022E+02    0.18475E-05   -0.14145E-05  3826   0.144E-02
  18 F= -.49253987E+02 E0= -.49253987E+02  d E =0.871431E-02  mag=    -0.0000
 trial-energy change:    0.008714  1 .order    0.008992   -0.019714    0.037698
 step:   0.3675(harm=  0.3675)  dis= 0.00321  next Energy=   -49.266086 (dE=-0.338E-02)
 bond charge predicted
       N       E                     dE             d eps       ncg     rms          rms(c)
DAV:   1    -0.492664230410E+02   -0.12435E-01   -0.19238E-01 10608   0.151E+00    0.214E-01
RMM:   2    -0.492665264906E+02   -0.10345E-03   -0.76960E-03  8022   0.317E-01    0.145E-01
RMM:   3    -0.492661844456E+02    0.34205E-03   -0.35356E-04  6927   0.479E-02
  19 F= -.49266184E+02 E0= -.49266184E+02  d E =-.348353E-02  mag=     0.0000
 curvature:  -0.20 expect dE=-0.705E-03 dE for cont linesearch -0.559E-06
 trial: gam= 0.23725 g(F)=  0.103E-02 g(S)=  0.257E-02 ort = 0.237E-03 (trialstep = 0.930E+00)
 search vector abs. value=  0.482E-02
 reached required accuracy - stopping structural energy minimisation
