Automatically generated mesh
      32
Reciprocal lattice
    0.00000000000000    0.00000000000000    0.00000000000000             1
    0.14285714285714    0.00000000000000    0.00000000000000             2
    0.28571428571429    0.00000000000000    0.00000000000000             2
    0.42857142857143    0.00000000000000    0.00000000000000             2
    0.00000000000000    0.33333333333333    0.00000000000000             2
    0.14285714285714    0.33333333333333    0.00000000000000             2
    0.28571428571429    0.33333333333333    0.00000000000000             2
    0.42857142857143    0.33333333333333    0.00000000000000             2
   -0.42857142857143    0.33333333333333    0.00000000000000             2
   -0.28571428571429    0.33333333333333    0.00000000000000             2
   -0.14285714285714    0.33333333333333    0.00000000000000             2
    0.00000000000000    0.00000000000000    0.33333333333333             2
    0.14285714285714    0.00000000000000    0.33333333333333             2
    0.28571428571429    0.00000000000000    0.33333333333333             2
    0.42857142857143    0.00000000000000    0.33333333333333             2
   -0.42857142857143    0.00000000000000    0.33333333333333             2
   -0.28571428571429    0.00000000000000    0.33333333333333             2
   -0.14285714285714    0.00000000000000    0.33333333333333             2
    0.00000000000000    0.33333333333333    0.33333333333333             2
    0.14285714285714    0.33333333333333    0.33333333333333             2
    0.28571428571429    0.33333333333333    0.33333333333333             2
    0.42857142857143    0.33333333333333    0.33333333333333             2
   -0.42857142857143    0.33333333333333    0.33333333333333             2
   -0.28571428571429    0.33333333333333    0.33333333333333             2
   -0.14285714285714    0.33333333333333    0.33333333333333             2
    0.00000000000000   -0.33333333333333    0.33333333333333             2
    0.14285714285714   -0.33333333333333    0.33333333333333             2
    0.28571428571429   -0.33333333333333    0.33333333333333             2
    0.42857142857143   -0.33333333333333    0.33333333333333             2
   -0.42857142857143   -0.33333333333333    0.33333333333333             2
   -0.28571428571429   -0.33333333333333    0.33333333333333             2
   -0.14285714285714   -0.33333333333333    0.33333333333333             2
Tetrahedra
       186    0.00264550264550
         2         2         5         6        19
         2         1         2         5        19
         2         1         2        12        19
         2         2         6        19        20
         2         2        13        19        20
         2         2        12        13        19
         2         3         6         7        20
         2         2         3         6        20
         2         2         3        13        20
         2         3         7        20        21
         2         3        14        20        21
         2         3        13        14        20
         2         4         7         8        21
         2         3         4         7        21
         2         3         4        14        21
         2         4         8        21        22
         2         4        15        21        22
         2         4        14        15        21
         2         4         8         9        22
         2         4         4         8        22
         2         4         4        15        22
         2         4         9        22        23
         2         4        16        22        23
         2         4        15        16        22
         2         3         9        10        23
         2         3         4         9        23
         2         3         4        16        23
         2         3        10        23        24
         2         3        17        23        24
         2         3        16        17        23
         2         2        10        11        24
         2         2         3        10        24
         2         2         3        17        24
         2         2        11        24        25
         2         2        18        24        25
         2         2        17        18        24
         2         1         5        11        25
         2         1         2        11        25
         2         1         2        18        25
         2         1         5        19        25
         2         1        12        19        25
         2         1        12        18        25
         2         5         6        11        26
         2         5         5         6        26
         2         5         6        19        26
         2         6        11        26        27
         2         6        20        26        27
         2         6        19        20        26
         2         7        10        11        27
         2         6         7        11        27
         2         6         7        20        27
         2         7        10        27        28
         2         7        21        27        28
         2         7        20        21        27
         2         8         9        10        28
         2         7         8        10        28
         2         7         8        21        28
         2         8         9        28        29
         2         8        22        28        29
         2         8        21        22        28
         4         8         9         9        29
         2         8         9        22        29
         2         8         9        29        30
         2         9        23        29        30
         2         9        22        23        29
         2         7         8        10        30
         2         8         9        10        30
         2         9        10        23        30
         2         7        10        30        31
         2        10        24        30        31
         2        10        23        24        30
         2         6         7        11        31
         2         7        10        11        31
         2        10        11        24        31
         2         6        11        31        32
         2        11        25        31        32
         2        11        24        25        31
         2         5         5         6        32
         2         5         6        11        32
         2         5        11        25        32
         2         5         5        26        32
         2         5        19        26        32
         2         5        19        25        32
         2         1         2        11        12
         2         1         5        11        12
         2         5        11        12        26
         2         2        11        12        13
         2        11        12        13        27
         2        11        12        26        27
         2         2         3        10        13
         2         2        10        11        13
         2        10        11        13        27
         2         3        10        13        14
         2        10        13        14        28
         2        10        13        27        28
         2         3         4         9        14
         2         3         9        10        14
         2         9        10        14        28
         2         4         9        14        15
         2         9        14        15        29
         2         9        14        28        29
         2         4         4         8        15
         2         4         8         9        15
         2         8         9        15        29
         2         4         8        15        16
         2         8        15        16        30
         2         8        15        29        30
         2         3         4         7        16
         2         4         7         8        16
         2         7         8        16        30
         2         3         7        16        17
         2         7        16        17        31
         2         7        16        30        31
         2         2         3         6        17
         2         3         6         7        17
         2         6         7        17        31
         2         2         6        17        18
         2         6        17        18        32
         2         6        17        31        32
         2         1         2         5        18
         2         2         5         6        18
         2         5         6        18        32
         2         1         5        12        18
         2         5        12        18        26
         2         5        18        26        32
         2        13        19        20        26
         2        12        13        19        26
         2        12        12        13        26
         2        13        20        26        32
         2        13        18        26        32
         2        12        13        18        26
         2        14        20        21        32
         2        13        14        20        32
         2        13        14        18        32
         2        14        21        31        32
         2        14        17        31        32
         2        14        17        18        32
         2        15        21        22        31
         2        14        15        21        31
         2        14        15        17        31
         2        15        22        30        31
         2        15        16        30        31
         2        15        16        17        31
         2        16        22        23        30
         2        15        16        22        30
         4        15        16        16        30
         2        16        23        29        30
         2        15        16        29        30
         2        17        23        24        29
         2        16        17        23        29
         2        15        16        17        29
         2        17        24        28        29
         2        14        17        28        29
         2        14        15        17        29
         2        18        24        25        28
         2        17        18        24        28
         2        14        17        18        28
         2        18        25        27        28
         2        13        18        27        28
         2        13        14        18        28
         2        12        19        25        27
         2        12        18        25        27
         2        12        13        18        27
         2        12        19        26        27
         2        12        12        26        27
         2        12        12        13        27
         2        19        20        26        27
         4        19        19        20        26
         2        19        20        25        27
         2        19        20        25        32
         2        19        20        26        32
         2        21        25        27        28
         2        20        21        25        27
         2        20        21        25        32
         2        21        24        25        28
         2        21        24        25        31
         2        21        25        31        32
         2        22        24        28        29
         2        21        22        24        28
         2        21        22        24        31
         2        22        23        24        29
         2        22        23        24        30
         2        22        24        30        31
         2        23        23        29        30
         2        22        23        23        29
         2        22        23        23        30
