unknown system                          
           1
     5.031753   -0.455782   -0.279942
    -0.872971    5.248942   -0.034242
    -1.420737   -1.059046    6.612241
   Sr   Nb   H 
   1   1  21
Direct configuration=     1
   0.20869900  0.36754500  0.44677900
   0.92070700  0.82364100  0.66139100
   0.02250000  0.66631200  0.20149000
   0.59876600  0.70270600  0.02969800
   0.06511500  0.60961700  0.11182400
   0.58698900  0.97226800  0.64587000
   0.72445500  0.08746800  0.72417200
   0.35161100  0.36860600  0.11689700
   0.21887400  0.25709200  0.05841300
   0.91418400  0.92523000  0.92225900
   0.28899900  0.95229200  0.84620400
   0.13358800  0.16949300  0.73376800
   0.85282700  0.96294400  0.43151100
   0.35168300  0.99731600  0.25406600
   0.49646900  0.04053900  0.33250100
   0.18408600  0.80456100  0.52231400
   0.59319400  0.72189600  0.13918600
   0.24859300  0.78326500  0.84216400
   0.72718200  0.25821400  0.14115500
   0.77444000  0.15167900  0.08704300
   0.01134500  0.52536800  0.72016500
   0.71296400  0.55065300  0.43159500
   0.62244100  0.61477600  0.73038100
unknown system                          
           1
     5.085016   -0.462536   -0.284859
    -0.884248    5.305048   -0.036147
    -1.438157   -1.072160    6.681375
   Sr   Nb   H 
   1   1  21
Direct configuration=     2
   0.20863757  0.36763661  0.44710160
   0.92133383  0.82372559  0.66166583
   0.02249447  0.66626327  0.20159455
   0.59873507  0.70270893  0.02961031
   0.06492233  0.60954702  0.11181203
   0.58806199  0.97306972  0.64647189
   0.72375541  0.08628558  0.72371130
   0.35187218  0.36913291  0.11707653
   0.21866633  0.25705266  0.05829885
   0.91442680  0.92506328  0.92174138
   0.28863754  0.95100820  0.84607523
   0.13345474  0.16895574  0.73361122
   0.85292505  0.96263806  0.43196401
   0.35202840  0.99752002  0.25416296
   0.49586005  0.04044679  0.33227077
   0.18357604  0.80439868  0.52261518
   0.59313559  0.72208964  0.13917541
   0.24892560  0.78482348  0.84211535
   0.72721511  0.25757526  0.14067896
   0.77403700  0.15200578  0.08713058
   0.01132707  0.52596449  0.72000437
   0.71290133  0.55063391  0.43171136
   0.62278149  0.61493539  0.73024633
unknown system                          
           1
     5.224581   -0.480233   -0.297741
    -0.913795    5.452062   -0.041140
    -1.483803   -1.106524    6.862526
   Sr   Nb   H 
   1   1  21
Direct configuration=     3
   0.20847888  0.36787443  0.44793820
   0.92295988  0.82394595  0.66237908
   0.02248024  0.66613702  0.20186565
   0.59865473  0.70271639  0.02938289
   0.06442259  0.60936534  0.11178078
   0.59084644  0.97515036  0.64803412
   0.72193905  0.08321842  0.72251528
   0.35255040  0.37049959  0.11754265
   0.21812757  0.25695028  0.05800265
   0.91505546  0.92463068  0.92039913
   0.28769840  0.94767897  0.84574016
   0.13310827  0.16756239  0.73320419
   0.85317962  0.96184544  0.43313865
   0.35292451  0.99804952  0.25441481
   0.49428041  0.04020675  0.33167317
   0.18225385  0.80397758  0.52339573
   0.59298435  0.72259163  0.13914802
   0.24978993  0.78886470  0.84199047
   0.72729948  0.25591862  0.13944409
   0.77299245  0.15285272  0.08735759
   0.01128105  0.52751087  0.71958818
   0.71273895  0.55058449  0.43201306
   0.62366447  0.61534888  0.72989746
unknown system                          
           1
     5.190863   -0.475957   -0.294629
    -0.906657    5.416544   -0.039934
    -1.472775   -1.098222    6.818761
   Sr   Nb   H 
   1   1  21
Direct configuration=     4
   0.20851585  0.36781833  0.44774139
   0.92257706  0.82389352  0.66221098
   0.02248353  0.66616664  0.20180190
   0.59867370  0.70271472  0.02943640
   0.06454021  0.60940820  0.11178824
   0.59019030  0.97465999  0.64766582
   0.72236760  0.08394041  0.72279741
   0.35239031  0.37017793  0.11743267
   0.21825444  0.25697457  0.05807244
   0.91490816  0.92473258  0.92071482
   0.28792037  0.94846212  0.84581965
   0.13319031  0.16789021  0.73330021
   0.85311955  0.96203144  0.43286240
   0.35271347  0.99792471  0.25435533
   0.49465228  0.04026376  0.33181406
   0.18256472  0.80407674  0.52321242
   0.59301980  0.72247364  0.13915441
   0.24958552  0.78791427  0.84201909
   0.72728053  0.25630846  0.13973480
   0.77323786  0.15265379  0.08730425
   0.01129159  0.52714738  0.71968586
   0.71277705  0.55059607  0.43194213
   0.62345677  0.61525151  0.72997931
unknown system                          
           1
     5.220301   -0.481560   -0.295784
    -0.914908    5.448387   -0.043305
    -1.480345   -1.107688    6.853679
   Sr   Nb   H 
   1   1  21
Direct configuration=     5
   0.20847940  0.36816705  0.44848363
   0.92274885  0.82338615  0.66206600
   0.02315542  0.66521592  0.20054167
   0.59857539  0.70305263  0.03113312
   0.06374122  0.61021834  0.11320929
   0.59107239  0.97474714  0.64791875
   0.72245824  0.08301533  0.72257630
   0.35005125  0.36847818  0.11655638
   0.22055822  0.25901640  0.05910880
   0.91524524  0.92429118  0.91947517
   0.28728133  0.94766154  0.84549760
   0.13247727  0.16645080  0.73282582
   0.85359251  0.96147189  0.43406229
   0.35375800  0.99837827  0.25489714
   0.49336035  0.04000094  0.33123551
   0.18145226  0.80375153  0.52388888
   0.59308658  0.72231682  0.13736506
   0.24930489  0.78892828  0.84170833
   0.72744213  0.25562794  0.13929010
   0.77288478  0.15308899  0.08749296
   0.01105289  0.52860907  0.71921291
   0.71325549  0.55149405  0.43282933
   0.62467690  0.61611257  0.72947098
unknown system                          
           1
     5.252919   -0.487768   -0.297063
    -0.924050    5.483670   -0.047041
    -1.488733   -1.118178    6.892370
   Sr   Nb   H 
   1   1  21
Direct configuration=     6
   0.20843963  0.36855181  0.44930207
   0.92293771  0.82282714  0.66190588
   0.02389480  0.66416785  0.19915181
   0.59846759  0.70342623  0.03300379
   0.06286170  0.61111157  0.11477637
   0.59204444  0.97484387  0.64819756
   0.72255734  0.08199600  0.72233203
   0.34747240  0.36660343  0.11558961
   0.22309849  0.26126813  0.06025222
   0.91561611  0.92380408  0.91810830
   0.28657649  0.94677887  0.84514219
   0.13169038  0.16486414  0.73230212
   0.85411339  0.96085663  0.43538473
   0.35490938  0.99887901  0.25549460
   0.49193651  0.03971018  0.33059767
   0.18022630  0.80339312  0.52463453
   0.59315978  0.72214266  0.13539236
   0.24899643  0.79004506  0.84136631
   0.72761959  0.25487792  0.13879948
   0.77249611  0.15356841  0.08770125
   0.01079097  0.53021896  0.71869232
   0.71378352  0.55248437  0.43380783
   0.62602195  0.61706155  0.72891096
unknown system                          
           1
     5.254092   -0.489046   -0.296583
    -0.925585    5.483542   -0.046652
    -1.487767   -1.117039    6.897502
   Sr   Nb   H 
   1   1  21
Direct configuration=     7
   0.20847195  0.36903699  0.45032572
   0.92270487  0.82274310  0.66170190
   0.02322483  0.66506949  0.20076394
   0.59855472  0.70309251  0.03109153
   0.06351787  0.61010437  0.11326143
   0.59235819  0.97426192  0.64801470
   0.72330248  0.08169325  0.72242704
   0.34952416  0.36845724  0.11666620
   0.22099049  0.25953968  0.05936193
   0.91582188  0.92328752  0.91692821
   0.28608236  0.94705102  0.84481508
   0.13089578  0.16343617  0.73176216
   0.85471214  0.96041878  0.43647156
   0.35385534  0.99867896  0.25495261
   0.49284615  0.04007999  0.33119195
   0.17934173  0.80291861  0.52516881
   0.59306982  0.72254765  0.13727182
   0.24828836  0.78988780  0.84098119
   0.72750016  0.25524143  0.13898277
   0.77269596  0.15312729  0.08748944
   0.01050879  0.53136878  0.71812991
   0.71429135  0.55353667  0.43476564
   0.62715158  0.61790176  0.72832046
unknown system                          
           1
     5.254180   -0.489142   -0.296547
    -0.925699    5.483532   -0.046623
    -1.487695   -1.116954    6.897885
   Sr   Nb   H 
   1   1  21
Direct configuration=     8
   0.20847433  0.36907319  0.45040209
   0.92268749  0.82273683  0.66168668
   0.02317478  0.66513676  0.20088423
   0.59856129  0.70306765  0.03094885
   0.06356689  0.61002921  0.11314839
   0.59238161  0.97421847  0.64800105
   0.72335810  0.08167065  0.72243413
   0.34967734  0.36859567  0.11674651
   0.22083311  0.25941061  0.05929551
   0.91583728  0.92324899  0.91684016
   0.28604549  0.94707134  0.84479067
   0.13083645  0.16332954  0.73172189
   0.85475679  0.96038606  0.43655265
   0.35377667  0.99866402  0.25491218
   0.49291405  0.04010760  0.33123629
   0.17927566  0.80288315  0.52520869
   0.59306305  0.72257783  0.13741205
   0.24823551  0.78987606  0.84095246
   0.72749124  0.25526857  0.13899645
   0.77271088  0.15309436  0.08747364
   0.01048777  0.53145466  0.71808794
   0.71432925  0.55361523  0.43483710
   0.62723595  0.61796454  0.72827639
unknown system                          
           1
     5.251469   -0.490897   -0.294850
    -0.927369    5.481288   -0.048247
    -1.484487   -1.117561    6.896036
   Sr   Nb   H 
   1   1  21
Direct configuration=     9
   0.20851904  0.36971825  0.45172069
   0.92258164  0.82276331  0.66153513
   0.02327561  0.66498408  0.20091320
   0.59856199  0.70312435  0.03104037
   0.06345675  0.61003838  0.11330266
   0.59301436  0.97353041  0.64783426
   0.72423829  0.08107773  0.72246993
   0.34959723  0.36870073  0.11696094
   0.22079549  0.25944277  0.05936316
   0.91609086  0.92257748  0.91531896
   0.28528265  0.94734496  0.84429878
   0.12980727  0.16150657  0.73099332
   0.85554771  0.95985364  0.43793465
   0.35376887  0.99883535  0.25497046
   0.49272408  0.04020104  0.33128498
   0.17811791  0.80221215  0.52589122
   0.59308917  0.72264435  0.13726216
   0.24723787  0.78976677  0.84040417
   0.72758065  0.25520370  0.13896227
   0.77274151  0.15303532  0.08747557
   0.01009291  0.53289326  0.71732099
   0.71493548  0.55499490  0.43608621
   0.62865368  0.61903150  0.72750190
unknown system                          
           1
     5.243335   -0.496161   -0.289757
    -0.932376    5.474557   -0.053119
    -1.474862   -1.119382    6.890487
   Sr   Nb   H 
   1   1  21
Direct configuration=    10
   0.20865210  0.37165492  0.45567792
   0.92226418  0.82284263  0.66108047
   0.02357799  0.66452589  0.20099994
   0.59856404  0.70329458  0.03131507
   0.06312592  0.61006584  0.11376567
   0.59491284  0.97146571  0.64733282
   0.72687929  0.07929894  0.72257633
   0.34935661  0.36901607  0.11760454
   0.22068251  0.25953927  0.05956621
   0.91685343  0.92056167  0.91075355
   0.28299411  0.94816531  0.84282344
   0.12671667  0.15603364  0.72880637
   0.85791873  0.95825680  0.44208072
   0.35374562  0.99934960  0.25514547
   0.49215394  0.04048132  0.33143129
   0.17464083  0.80019725  0.52793958
   0.59316790  0.72284399  0.13681242
   0.24424410  0.78943760  0.83875948
   0.72784895  0.25500908  0.13885961
   0.77283334  0.15285814  0.08748128
   0.00891100  0.53721061  0.71502094
   0.71675512  0.55913702  0.43983514
   0.63291178  0.62223511  0.72517773
unknown system                          
           1
     5.249997   -0.498677   -0.292152
    -0.935114    5.487247   -0.055834
    -1.478824   -1.125145    6.909784
   Sr   Nb   H 
   1   1  21
Direct configuration=    11
   0.20885540  0.37246206  0.45739996
   0.92236354  0.82296740  0.66084073
   0.02378630  0.66425185  0.20094382
   0.59859891  0.70347886  0.03168600
   0.06291747  0.61017781  0.11415066
   0.59603013  0.97070265  0.64719224
   0.72776951  0.07835197  0.72259943
   0.34780718  0.36797897  0.11734371
   0.22198174  0.26074057  0.06033281
   0.91694000  0.92023163  0.91034797
   0.28207049  0.94827362  0.84218707
   0.12658133  0.15580103  0.72824422
   0.85869951  0.95843055  0.44249184
   0.35390003  0.99970760  0.25536448
   0.49170810  0.04060076  0.33149433
   0.17430591  0.79914217  0.52812977
   0.59324355  0.72293742  0.13634035
   0.24310000  0.78975724  0.83809981
   0.72799797  0.25492580  0.13882280
   0.77291972  0.15270623  0.08749138
   0.00857377  0.53744317  0.71423195
   0.71648486  0.55990008  0.44047691
   0.63307558  0.62251156  0.72463376
unknown system                          
           1
     5.262489   -0.503396   -0.296642
    -0.940246    5.511039   -0.060925
    -1.486254   -1.135949    6.945967
   Sr   Nb   H 
   1   1  21
Direct configuration=    12
   0.20923669  0.37397384  0.46062050
   0.92254966  0.82320068  0.66039260
   0.02417634  0.66373925  0.20083879
   0.59866434  0.70382398  0.03237974
   0.06252714  0.61038748  0.11487049
   0.59812238  0.96927582  0.64692945
   0.72943642  0.07658103  0.72264245
   0.34490472  0.36603724  0.11685438
   0.22441573  0.26298977  0.06176780
   0.91710196  0.91961389  0.90958944
   0.28034059  0.94847493  0.84099674
   0.12632769  0.15536523  0.72719289
   0.86016199  0.95875659  0.44326112
   0.35418942  0.00037770  0.25577432
   0.49087314  0.04082392  0.33161203
   0.17367819  0.79716818  0.52848444
   0.59338524  0.72311185  0.13545778
   0.24095723  0.79035375  0.83686595
   0.72827703  0.25477009  0.13875400
   0.77308143  0.15242210  0.08751020
   0.00794218  0.53787730  0.71275667
   0.71597910  0.56132802  0.44167728
   0.63338243  0.62302838  0.72361695
unknown system                          
           1
     5.264383   -0.503931   -0.297176
    -0.940855    5.514356   -0.061518
    -1.487218   -1.137323    6.951133
   Sr   Nb   H 
   1   1  21
Direct configuration=    13
   0.20928666  0.37415619  0.46101148
   0.92255668  0.82320920  0.66034526
   0.02421036  0.66369777  0.20086076
   0.59867518  0.70385697  0.03240818
   0.06249461  0.61039262  0.11492590
   0.59838330  0.96910327  0.64689585
   0.72963634  0.07636054  0.72264953
   0.34481944  0.36603209  0.11692060
   0.22444283  0.26303505  0.06182315
   0.91711653  0.91954057  0.90950263
   0.28013572  0.94849355  0.84085253
   0.12631665  0.15533988  0.72707253
   0.86033883  0.95880930  0.44333659
   0.35419442  0.00045514  0.25580986
   0.49079856  0.04086229  0.33164455
   0.17361761  0.79692636  0.52851940
   0.59339931  0.72314490  0.13540466
   0.24070611  0.79043980  0.83671959
   0.72832417  0.25472541  0.13873301
   0.77309243  0.15241041  0.08752552
   0.00786457  0.53791697  0.71258035
   0.71589679  0.56148705  0.44180561
   0.63340391  0.62308565  0.72349847
unknown system                          
           1
     5.270066   -0.505537   -0.298776
    -0.942682    5.524305   -0.063295
    -1.490109   -1.141443    6.966631
   Sr   Nb   H 
   1   1  21
Direct configuration=    14
   0.20943654  0.37470305  0.46218359
   0.92257772  0.82323473  0.66020336
   0.02431237  0.66357343  0.20092661
   0.59870770  0.70395591  0.03249346
   0.06239706  0.61040805  0.11509201
   0.59916576  0.96858601  0.64679511
   0.73023586  0.07569951  0.72267072
   0.34456369  0.36601666  0.11711909
   0.22452410  0.26317086  0.06198909
   0.91716023  0.91932074  0.90924237
   0.27952134  0.94854929  0.84042021
   0.12628355  0.15526385  0.72671171
   0.86086920  0.95896740  0.44356287
   0.35420942  0.00068734  0.25591640
   0.49057489  0.04097731  0.33174204
   0.17343590  0.79620132  0.52862415
   0.59344153  0.72324396  0.13524543
   0.23995300  0.79069768  0.83628082
   0.72846555  0.25459146  0.13867006
   0.77312542  0.15237537  0.08757146
   0.00763184  0.53803586  0.71205177
   0.71564997  0.56196389  0.44219036
   0.63346835  0.62325733  0.72314331
unknown system                          
           1
     5.270846   -0.505541   -0.298781
    -0.942734    5.525263   -0.063299
    -1.490259   -1.141639    6.968297
   Sr   Nb   H 
   1   1  21
Direct configuration=    15
   0.20944793  0.37471730  0.46222356
   0.92255773  0.82320869  0.66020382
   0.02429602  0.66360025  0.20098229
   0.59871315  0.70394617  0.03241138
   0.06241611  0.61037746  0.11505055
   0.59920662  0.96856760  0.64678849
   0.73025374  0.07566314  0.72267476
   0.34496837  0.36637410  0.11732368
   0.22411054  0.26282237  0.06181166
   0.91715341  0.91931011  0.90922852
   0.27950736  0.94854187  0.84040419
   0.12630722  0.15529213  0.72670878
   0.86088936  0.95898801  0.44355199
   0.35416490  0.00069190  0.25590039
   0.49060515  0.04099888  0.33177340
   0.17344581  0.79617282  0.52861981
   0.59343789  0.72326639  0.13532216
   0.23994153  0.79073045  0.83627073
   0.72849175  0.25454484  0.13864763
   0.77311298  0.15241026  0.08759490
   0.00761791  0.53803006  0.71203611
   0.71560973  0.56196337  0.44218010
   0.63345579  0.62326284  0.72313711
unknown system                          
           1
     5.273189   -0.505552   -0.298794
    -0.942889    5.528136   -0.063312
    -1.490711   -1.142227    6.973295
   Sr   Nb   H 
   1   1  21
Direct configuration=    16
   0.20948207  0.37476003  0.46234344
   0.92249776  0.82313061  0.66020518
   0.02424694  0.66368069  0.20114931
   0.59872948  0.70391694  0.03216520
   0.06247326  0.61028571  0.11492618
   0.59932918  0.96851241  0.64676861
   0.73030737  0.07555403  0.72268687
   0.34618216  0.36744619  0.11793730
   0.22287010  0.26177709  0.06127952
   0.91713296  0.91927822  0.90918697
   0.27946544  0.94851961  0.84035614
   0.12637824  0.15537695  0.72670001
   0.86094984  0.95904985  0.44351938
   0.35403136  0.00070558  0.25585237
   0.49069593  0.04106358  0.33186744
   0.17347552  0.79608732  0.52860678
   0.59342698  0.72333367  0.13555229
   0.23990714  0.79082874  0.83624047
   0.72857035  0.25440499  0.13858036
   0.77307565  0.15251491  0.08766522
   0.00757611  0.53801270  0.71198914
   0.71548903  0.56196182  0.44214932
   0.63341814  0.62327936  0.72311852
