       N       E                     dE             d eps       ncg     rms          rms(c)
DAV:   1     0.111908708231E+03    0.11191E+03   -0.13652E+04 15216   0.618E+02
DAV:   2    -0.811080157468E+02   -0.19302E+03   -0.18615E+03 18388   0.227E+02
DAV:   3    -0.929179987956E+02   -0.11810E+02   -0.11747E+02 21720   0.472E+01
DAV:   4    -0.934242237084E+02   -0.50622E+00   -0.50461E+00 23300   0.873E+00
DAV:   5    -0.934334682406E+02   -0.92445E-02   -0.82589E-02 20304   0.829E-01    0.409E+01
DAV:   6    -0.895580646168E+02    0.38754E+01   -0.43022E+00 21568   0.123E+01    0.181E+01
DAV:   7    -0.881511379798E+02    0.14069E+01   -0.21766E+00 21168   0.619E+00    0.751E+00
DAV:   8    -0.880928761506E+02    0.58262E-01   -0.47224E-01 20700   0.342E+00    0.216E+00
DAV:   9    -0.880982257639E+02   -0.53496E-02   -0.31204E-02 18248   0.980E-01    0.492E-01
DAV:  10    -0.881010152820E+02   -0.27895E-02   -0.90604E-03 20296   0.463E-01    0.290E-01
DAV:  11    -0.881016205563E+02   -0.60527E-03   -0.94511E-04 16344   0.181E-01    0.731E-02
DAV:  12    -0.881018082793E+02   -0.18772E-03   -0.36692E-04 17496   0.982E-02    0.286E-02
DAV:  13    -0.881018198660E+02   -0.11587E-04   -0.64456E-05  9968   0.387E-02
   1 F= -.88101820E+02 E0= -.88102072E+02  d E =-.881018E+02
       N       E                     dE             d eps       ncg     rms          rms(c)
DAV:   1    -0.880223296226E+02    0.79479E-01   -0.74536E+00 15680   0.188E+01    0.130E+00
DAV:   2    -0.880979342225E+02   -0.75605E-01   -0.93606E-01 16024   0.457E+00    0.738E-01
DAV:   3    -0.880946563741E+02    0.32778E-02   -0.12929E-02 20304   0.638E-01    0.459E-01
DAV:   4    -0.880933827925E+02    0.12736E-02   -0.70860E-03 20728   0.532E-01    0.139E-01
DAV:   5    -0.880936472452E+02   -0.26445E-03   -0.31002E-03 18660   0.264E-01    0.117E-01
DAV:   6    -0.880936312893E+02    0.15956E-04   -0.67340E-05  9664   0.599E-02
   2 F= -.88093631E+02 E0= -.88093635E+02  d E =0.818858E-02
       N       E                     dE             d eps       ncg     rms          rms(c)
DAV:   1    -0.881186286097E+02   -0.24981E-01   -0.20390E+00 15704   0.986E+00    0.688E-01
DAV:   2    -0.881393914036E+02   -0.20763E-01   -0.25338E-01 16176   0.236E+00    0.400E-01
DAV:   3    -0.881385365853E+02    0.85482E-03   -0.35870E-03 20316   0.333E-01    0.260E-01
DAV:   4    -0.881381455297E+02    0.39106E-03   -0.19303E-03 20760   0.287E-01    0.766E-02
DAV:   5    -0.881382216698E+02   -0.76140E-04   -0.89567E-04 17444   0.145E-01
   3 F= -.88138222E+02 E0= -.88138277E+02  d E =-.364018E-01
       N       E                     dE             d eps       ncg     rms          rms(c)
DAV:   1    -0.881687123521E+02   -0.30567E-01   -0.15600E+00 14272   0.771E+00    0.915E-01
DAV:   2    -0.881749528750E+02   -0.62405E-02   -0.13606E-01 17248   0.195E+00    0.408E-01
DAV:   3    -0.881739473781E+02    0.10055E-02   -0.38054E-03 18796   0.310E-01    0.253E-01
DAV:   4    -0.881736841185E+02    0.26326E-03   -0.15571E-03 23192   0.200E-01    0.138E-01
DAV:   5    -0.881737013216E+02   -0.17203E-04   -0.14741E-04 13152   0.658E-02
   4 F= -.88173701E+02 E0= -.88173699E+02  d E =-.354797E-01
       N       E                     dE             d eps       ncg     rms          rms(c)
DAV:   1    -0.881808370309E+02   -0.71529E-02   -0.20966E+00 14280   0.894E+00    0.103E+00
DAV:   2    -0.881891275874E+02   -0.82906E-02   -0.18233E-01 17272   0.225E+00    0.477E-01
DAV:   3    -0.881877648453E+02    0.13627E-02   -0.50904E-03 18832   0.356E-01    0.294E-01
DAV:   4    -0.881874154574E+02    0.34939E-03   -0.20890E-03 23368   0.232E-01    0.163E-01
DAV:   5    -0.881874444261E+02   -0.28969E-04   -0.21605E-04 15660   0.768E-02
   5 F= -.88187444E+02 E0= -.88187407E+02  d E =-.492228E-01
       N       E                     dE             d eps       ncg     rms          rms(c)
DAV:   1    -0.882047550030E+02   -0.17340E-01   -0.25489E-01 14120   0.276E+00    0.500E-01
DAV:   2    -0.882045192470E+02    0.23576E-03   -0.14527E-02 20080   0.765E-01    0.175E-01
DAV:   3    -0.882042509310E+02    0.26832E-03   -0.83076E-04 20652   0.146E-01    0.112E-01
DAV:   4    -0.882041978363E+02    0.53095E-04   -0.29164E-04 19104   0.838E-02
   6 F= -.88204198E+02 E0= -.88204148E+02  d E =-.167534E-01
       N       E                     dE             d eps       ncg     rms          rms(c)
DAV:   1    -0.882376992924E+02   -0.33448E-01   -0.23046E+00 14112   0.828E+00    0.146E+00
DAV:   2    -0.882356807035E+02    0.20186E-02   -0.13160E-01 20064   0.230E+00    0.520E-01
DAV:   3    -0.882332658125E+02    0.24149E-02   -0.73714E-03 20600   0.439E-01    0.346E-01
DAV:   4    -0.882327677793E+02    0.49803E-03   -0.29587E-03 23544   0.256E-01    0.239E-01
DAV:   5    -0.882328517912E+02   -0.84012E-04   -0.36999E-04 18580   0.919E-02
   7 F= -.88232852E+02 E0= -.88232756E+02  d E =-.454074E-01
       N       E                     dE             d eps       ncg     rms          rms(c)
DAV:   1    -0.882363263375E+02   -0.35586E-02   -0.42532E-01 14116   0.355E+00    0.636E-01
DAV:   2    -0.882358257053E+02    0.50063E-03   -0.24156E-02 20072   0.989E-01    0.224E-01
DAV:   3    -0.882353750823E+02    0.45062E-03   -0.14139E-03 20948   0.190E-01    0.138E-01
DAV:   4    -0.882353516705E+02    0.23412E-04   -0.49157E-04 22576   0.107E-01
   8 F= -.88235352E+02 E0= -.88235233E+02  d E =-.479072E-01
       N       E                     dE             d eps       ncg     rms          rms(c)
DAV:   1    -0.882472160011E+02   -0.11841E-01   -0.17219E-01 14176   0.226E+00    0.183E-01
DAV:   2    -0.882474748607E+02   -0.25886E-03   -0.80545E-03 19664   0.514E-01    0.173E-01
DAV:   3    -0.882474692087E+02    0.56520E-05   -0.20412E-04 14476   0.775E-02
   9 F= -.88247469E+02 E0= -.88247339E+02  d E =-.121175E-01
       N       E                     dE             d eps       ncg     rms          rms(c)
DAV:   1    -0.882657261219E+02   -0.18251E-01   -0.15297E+00 14112   0.677E+00    0.501E-01
DAV:   2    -0.882681604017E+02   -0.24343E-02   -0.70359E-02 19816   0.152E+00    0.504E-01
DAV:   3    -0.882675684467E+02    0.59195E-03   -0.16930E-03 18240   0.222E-01    0.305E-01
DAV:   4    -0.882671977505E+02    0.37070E-03   -0.12805E-03 18952   0.200E-01    0.318E-02
DAV:   5    -0.882672276579E+02   -0.29907E-04   -0.28581E-04 13744   0.822E-02
  10 F= -.88267228E+02 E0= -.88267228E+02  d E =-.318760E-01
       N       E                     dE             d eps       ncg     rms          rms(c)
DAV:   1    -0.882818048632E+02   -0.14607E-01   -0.29931E-01 15696   0.338E+00    0.358E-01
DAV:   2    -0.882833277548E+02   -0.15229E-02   -0.21788E-02 16496   0.706E-01    0.232E-01
DAV:   3    -0.882832127268E+02    0.11503E-03   -0.39189E-04 19972   0.109E-01    0.103E-01
DAV:   4    -0.882831962206E+02    0.16506E-04   -0.12957E-04 11096   0.703E-02
  11 F= -.88283196E+02 E0= -.88283196E+02  d E =-.159686E-01
       N       E                     dE             d eps       ncg     rms          rms(c)
DAV:   1    -0.882963883721E+02   -0.13176E-01   -0.26889E+00 15680   0.102E+01    0.114E+00
DAV:   2    -0.883102200198E+02   -0.13832E-01   -0.19831E-01 16592   0.213E+00    0.698E-01
DAV:   3    -0.883091655838E+02    0.10544E-02   -0.37266E-03 21616   0.334E-01    0.295E-01
DAV:   4    -0.883090500631E+02    0.11552E-03   -0.12032E-03 21848   0.191E-01    0.795E-02
DAV:   5    -0.883090850000E+02   -0.34937E-04   -0.22342E-04 13268   0.748E-02
  12 F= -.88309085E+02 E0= -.88308988E+02  d E =-.418573E-01
       N       E                     dE             d eps       ncg     rms          rms(c)
DAV:   1    -0.883094416198E+02   -0.39156E-03   -0.20000E-01 15784   0.277E+00    0.308E-01
DAV:   2    -0.883104629718E+02   -0.10214E-02   -0.14754E-02 16688   0.583E-01    0.198E-01
DAV:   3    -0.883103782831E+02    0.84689E-04   -0.26062E-04 18392   0.907E-02
  13 F= -.88310378E+02 E0= -.88310298E+02  d E =-.431506E-01
       N       E                     dE             d eps       ncg     rms          rms(c)
DAV:   1    -0.883217943161E+02   -0.11331E-01   -0.43089E-01 14120   0.355E+00    0.333E-01
DAV:   2    -0.883225636270E+02   -0.76931E-03   -0.16777E-02 18672   0.756E-01    0.226E-01
DAV:   3    -0.883223868263E+02    0.17680E-03   -0.47893E-04 19816   0.116E-01    0.109E-01
DAV:   4    -0.883223707054E+02    0.16121E-04   -0.17036E-04 11264   0.783E-02
  14 F= -.88322371E+02 E0= -.88322304E+02  d E =-.119924E-01
       N       E                     dE             d eps       ncg     rms          rms(c)
DAV:   1    -0.883314037647E+02   -0.90169E-02   -0.33058E+00 14112   0.984E+00    0.935E-01
DAV:   2    -0.883375525463E+02   -0.61488E-02   -0.13106E-01 18648   0.211E+00    0.638E-01
DAV:   3    -0.883361290269E+02    0.14235E-02   -0.36211E-03 20296   0.321E-01    0.308E-01
DAV:   4    -0.883360049974E+02    0.12403E-03   -0.16431E-03 21928   0.213E-01    0.914E-02
DAV:   5    -0.883360197720E+02   -0.14775E-04   -0.23656E-04 13852   0.795E-02
  15 F= -.88336020E+02 E0= -.88336020E+02  d E =-.256415E-01
       N       E                     dE             d eps       ncg     rms          rms(c)
DAV:   1    -0.883482779445E+02   -0.12273E-01   -0.60812E-01 15644   0.461E+00    0.381E-01
DAV:   2    -0.883505244375E+02   -0.22465E-02   -0.34238E-02 17240   0.972E-01    0.191E-01
DAV:   3    -0.883502667013E+02    0.25774E-03   -0.70876E-04 19880   0.141E-01    0.972E-02
DAV:   4    -0.883502241754E+02    0.42526E-04   -0.25293E-04 15784   0.815E-02
  16 F= -.88350224E+02 E0= -.88350224E+02  d E =-.142044E-01
       N       E                     dE             d eps       ncg     rms          rms(c)
DAV:   1    -0.883538631804E+02   -0.35965E-02   -0.17541E+00 15600   0.784E+00    0.622E-01
DAV:   2    -0.883603944297E+02   -0.65312E-02   -0.99260E-02 17280   0.166E+00    0.324E-01
DAV:   3    -0.883596796347E+02    0.71480E-03   -0.20042E-03 19908   0.235E-01    0.168E-01
DAV:   4    -0.883595488539E+02    0.13078E-03   -0.74197E-04 18896   0.140E-01    0.506E-02
DAV:   5    -0.883595589669E+02   -0.10113E-04   -0.86817E-05  9500   0.568E-02
  17 F= -.88359559E+02 E0= -.88359559E+02  d E =-.235392E-01
       N       E                     dE             d eps       ncg     rms          rms(c)
DAV:   1    -0.883721625687E+02   -0.12614E-01   -0.84365E-01 14872   0.557E+00    0.622E-01
DAV:   2    -0.883753746268E+02   -0.32121E-02   -0.57849E-02 16880   0.125E+00    0.294E-01
DAV:   3    -0.883748980594E+02    0.47657E-03   -0.14810E-03 21140   0.196E-01    0.146E-01
DAV:   4    -0.883747890275E+02    0.10903E-03   -0.49091E-04 21920   0.119E-01    0.827E-02
DAV:   5    -0.883748000074E+02   -0.10980E-04   -0.55916E-05  9368   0.407E-02
  18 F= -.88374800E+02 E0= -.88374800E+02  d E =-.152410E-01
       N       E                     dE             d eps       ncg     rms          rms(c)
DAV:   1    -0.883767022739E+02   -0.19132E-02   -0.68255E-01 14836   0.500E+00    0.559E-01
DAV:   2    -0.883790548753E+02   -0.23526E-02   -0.46841E-02 16824   0.113E+00    0.254E-01
DAV:   3    -0.883786426626E+02    0.41221E-03   -0.12305E-03 20908   0.178E-01    0.127E-01
DAV:   4    -0.883785488975E+02    0.93765E-04   -0.39956E-04 20776   0.106E-01
  19 F= -.88378549E+02 E0= -.88378944E+02  d E =-.189899E-01
       N       E                     dE             d eps       ncg     rms          rms(c)
DAV:   1    -0.883844500068E+02   -0.58073E-02   -0.33951E-01 15676   0.347E+00    0.294E-01
DAV:   2    -0.883856649923E+02   -0.12150E-02   -0.20442E-02 17496   0.722E-01    0.165E-01
DAV:   3    -0.883854884027E+02    0.17659E-03   -0.44744E-04 20464   0.112E-01    0.903E-02
DAV:   4    -0.883854490056E+02    0.39397E-04   -0.18832E-04 12392   0.824E-02
  20 F= -.88385449E+02 E0= -.88385868E+02  d E =-.690011E-02
       N       E                     dE             d eps       ncg     rms          rms(c)
DAV:   1    -0.883861678170E+02   -0.67941E-03   -0.12747E-01 15772   0.214E+00    0.178E-01
DAV:   2    -0.883866419620E+02   -0.47415E-03   -0.76764E-03 17536   0.440E-01    0.977E-02
DAV:   3    -0.883865823209E+02    0.59641E-04   -0.14475E-04 15588   0.673E-02
  21 F= -.88386582E+02 E0= -.88387009E+02  d E =-.803342E-02
       N       E                     dE             d eps       ncg     rms          rms(c)
DAV:   1    -0.883930645246E+02   -0.64226E-02   -0.30856E-01 14112   0.325E+00    0.290E-01
DAV:   2    -0.883938908026E+02   -0.82628E-03   -0.16713E-02 18568   0.741E-01    0.170E-01
DAV:   3    -0.883937972207E+02    0.93582E-04   -0.45315E-04 18088   0.109E-01
  22 F= -.88393797E+02 E0= -.88394353E+02  d E =-.721490E-02
       N       E                     dE             d eps       ncg     rms          rms(c)
DAV:   1    -0.883959954567E+02   -0.21047E-02   -0.84200E-01 14112   0.535E+00    0.474E-01
DAV:   2    -0.883980686722E+02   -0.20732E-02   -0.44625E-02 18784   0.122E+00    0.284E-01
DAV:   3    -0.883978261712E+02    0.24250E-03   -0.12380E-03 18424   0.181E-01    0.172E-01
DAV:   4    -0.883977258072E+02    0.10036E-03   -0.63060E-04 21976   0.138E-01    0.544E-02
DAV:   5    -0.883977346010E+02   -0.87938E-05   -0.11200E-04 10220   0.560E-02
  23 F= -.88397735E+02 E0= -.88398498E+02  d E =-.111523E-01
       N       E                     dE             d eps       ncg     rms          rms(c)
DAV:   1    -0.884022485573E+02   -0.45228E-02   -0.14558E-01 14200   0.211E+00    0.170E-01
DAV:   2    -0.884024518640E+02   -0.20331E-03   -0.59814E-03 19720   0.452E-01    0.131E-01
DAV:   3    -0.884024243571E+02    0.27507E-04   -0.17561E-04 13504   0.723E-02
  24 F= -.88402424E+02 E0= -.88403196E+02  d E =-.468976E-02
       N       E                     dE             d eps       ncg     rms          rms(c)
DAV:   1    -0.884075082324E+02   -0.50564E-02   -0.12990E+00 14112   0.631E+00    0.496E-01
DAV:   2    -0.884092487351E+02   -0.17405E-02   -0.53047E-02 19888   0.135E+00    0.412E-01
DAV:   3    -0.884089984721E+02    0.25026E-03   -0.16484E-03 17892   0.215E-01    0.247E-01
DAV:   4    -0.884088942635E+02    0.10421E-03   -0.83430E-04 22440   0.150E-01    0.643E-02
DAV:   5    -0.884089110027E+02   -0.16739E-04   -0.15105E-04 11520   0.625E-02
  25 F= -.88408911E+02 E0= -.88409664E+02  d E =-.111764E-01
       N       E                     dE             d eps       ncg     rms          rms(c)
DAV:   1    -0.884125929138E+02   -0.36987E-02   -0.14871E-01 15860   0.241E+00    0.160E-01
DAV:   2    -0.884136529079E+02   -0.10600E-02   -0.12549E-02 15760   0.503E-01    0.944E-02
DAV:   3    -0.884136197441E+02    0.33164E-04   -0.15053E-04 18520   0.642E-02
  26 F= -.88413620E+02 E0= -.88414343E+02  d E =-.470874E-02
       N       E                     dE             d eps       ncg     rms          rms(c)
DAV:   1    -0.884135702913E+02    0.82617E-04   -0.39986E-01 15700   0.395E+00    0.267E-01
DAV:   2    -0.884163577881E+02   -0.27875E-02   -0.33335E-02 15760   0.815E-01    0.160E-01
DAV:   3    -0.884162666464E+02    0.91142E-04   -0.40745E-04 19484   0.104E-01
  27 F= -.88416267E+02 E0= -.88416949E+02  d E =-.735564E-02
       N       E                     dE             d eps       ncg     rms          rms(c)
DAV:   1    -0.884200249534E+02   -0.36672E-02   -0.70160E-02 14596   0.134E+00    0.114E-01
DAV:   2    -0.884200728663E+02   -0.47913E-04   -0.17010E-03 18936   0.228E-01    0.663E-02
DAV:   3    -0.884200402618E+02    0.32605E-04   -0.61216E-05  9792   0.422E-02
  28 F= -.88420040E+02 E0= -.88420717E+02  d E =-.377362E-02
       N       E                     dE             d eps       ncg     rms          rms(c)
DAV:   1    -0.884289818191E+02   -0.89090E-02   -0.64706E-01 14120   0.406E+00    0.323E-01
DAV:   2    -0.884295421940E+02   -0.56037E-03   -0.16085E-02 18872   0.707E-01    0.186E-01
DAV:   3    -0.884282235868E+02    0.13186E-02   -0.55895E-04 19104   0.118E-01    0.839E-02
DAV:   4    -0.884281944542E+02    0.29133E-04   -0.19756E-04 12752   0.767E-02
  29 F= -.88428194E+02 E0= -.88428850E+02  d E =-.119278E-01
       N       E                     dE             d eps       ncg     rms          rms(c)
DAV:   1    -0.884280761310E+02    0.14746E-03   -0.26036E+00 14112   0.814E+00    0.663E-01
DAV:   2    -0.884303287005E+02   -0.22526E-02   -0.65722E-02 18856   0.143E+00    0.377E-01
DAV:   3    -0.884290633416E+02    0.12654E-02   -0.22511E-03 19236   0.238E-01    0.167E-01
DAV:   4    -0.884289519365E+02    0.11141E-03   -0.90676E-04 19320   0.155E-01    0.362E-02
DAV:   5    -0.884289609917E+02   -0.90552E-05   -0.88430E-05 10208   0.526E-02
  30 F= -.88428961E+02 E0= -.88429558E+02  d E =-.126943E-01
       N       E                     dE             d eps       ncg     rms          rms(c)
DAV:   1    -0.884340606877E+02   -0.51088E-02   -0.30578E-01 16356   0.320E+00    0.276E-01
DAV:   2    -0.884362813185E+02   -0.22206E-02   -0.23008E-02 18648   0.774E-01    0.247E-01
DAV:   3    -0.884360089953E+02    0.27232E-03   -0.48994E-04 19208   0.126E-01    0.149E-01
DAV:   4    -0.884358728856E+02    0.13611E-03   -0.45767E-04 15736   0.135E-01    0.224E-02
DAV:   5    -0.884358992275E+02   -0.26342E-04   -0.25892E-04 12276   0.738E-02
  31 F= -.88435899E+02 E0= -.88435899E+02  d E =-.693824E-02
       N       E                     dE             d eps       ncg     rms          rms(c)
DAV:   1    -0.884358817878E+02   -0.89022E-05   -0.16914E-02 16256   0.753E-01    0.657E-02
DAV:   2    -0.884359413924E+02   -0.59605E-04   -0.12116E-03 18544   0.178E-01    0.541E-02
DAV:   3    -0.884359213127E+02    0.20080E-04   -0.25483E-05  8812   0.309E-02
  32 F= -.88435921E+02 E0= -.88436500E+02  d E =-.696032E-02
       N       E                     dE             d eps       ncg     rms          rms(c)
DAV:   1    -0.884409181309E+02   -0.49767E-02   -0.95225E-02 15700   0.181E+00    0.194E-01
DAV:   2    -0.884411199878E+02   -0.20186E-03   -0.67498E-03 18552   0.427E-01    0.204E-01
DAV:   3    -0.884410799809E+02    0.40007E-04   -0.16150E-04 15796   0.662E-02
  33 F= -.88441080E+02 E0= -.88441080E+02  d E =-.515867E-02
       N       E                     dE             d eps       ncg     rms          rms(c)
DAV:   1    -0.884418553100E+02   -0.73532E-03   -0.92305E-03 15316   0.558E-01    0.821E-02
DAV:   2    -0.884418566508E+02   -0.13407E-05   -0.67673E-04 19300   0.140E-01
  34 F= -.88441857E+02 E0= -.88441857E+02  d E =-.593534E-02
       N       E                     dE             d eps       ncg     rms          rms(c)
DAV:   1    -0.884421813159E+02   -0.32601E-03   -0.52371E-02 15592   0.145E+00    0.128E-01
DAV:   2    -0.884425051579E+02   -0.32384E-03   -0.53716E-03 17488   0.367E-01    0.840E-02
DAV:   3    -0.884424623263E+02    0.42832E-04   -0.97049E-05 13612   0.574E-02
  35 F= -.88442462E+02 E0= -.88443051E+02  d E =-.605676E-03
       N       E                     dE             d eps       ncg     rms          rms(c)
DAV:   1    -0.884424560684E+02    0.49090E-04   -0.19926E-03 15912   0.283E-01    0.293E-02
DAV:   2    -0.884424669430E+02   -0.10875E-04   -0.20132E-04 14548   0.688E-02
  36 F= -.88442467E+02 E0= -.88443060E+02  d E =-.610292E-03
