unknown system                          
           1
     4.974892   -0.405582    0.323805
     0.463534    4.099072   -0.441872
     1.564499    0.877012    5.576064
   H    Nb   H    Sr
   6   1   6   1
Direct configuration=     1
   0.11192106  0.99457401  0.96054541
   0.14380522  0.12241059  0.85538904
   0.08465116  0.52773099  0.18944039
   0.19643611  0.39804126  0.11471120
   0.55541889  0.69094777  0.01957871
   0.70798352  0.29610447  0.15929110
   0.39518499  0.55248337  0.33463688
   0.52306250  0.40096984  0.58609532
   0.60840038  0.12614254  0.22098073
   0.16501033  0.88639333  0.29720715
   0.73904753  0.71729075  0.29004554
   0.05740212  0.40986575  0.57639433
   0.31283390  0.80844982  0.57799862
   0.77853329  0.92347150  0.64712359
unknown system                          
           1
     4.977839   -0.405434    0.327084
     0.463495    4.096406   -0.442987
     1.568909    0.874423    5.576164
   H    Nb   H    Sr
   6   1   6   1
Direct configuration=     2
   0.11129238  0.99428724  0.96072099
   0.14350056  0.12254240  0.85541016
   0.08513112  0.52747117  0.18931199
   0.19631248  0.39797384  0.11505463
   0.55565202  0.69070479  0.01959888
   0.70806607  0.29607780  0.15931684
   0.39471474  0.55255841  0.33416925
   0.52302631  0.40115255  0.58618959
   0.60856738  0.12627813  0.22096781
   0.16536833  0.88598459  0.29710083
   0.73920496  0.71732158  0.29003279
   0.05755352  0.41004507  0.57636448
   0.31279545  0.80883162  0.57811330
   0.77850567  0.92364682  0.64708645
unknown system                          
           1
     4.978279   -0.405412    0.327572
     0.463489    4.096009   -0.443153
     1.569566    0.874037    5.576178
   H    Nb   H    Sr
   6   1   6   1
Direct configuration=     3
   0.11119868  0.99424447  0.96074721
   0.14345516  0.12256206  0.85541334
   0.08520266  0.52743241  0.18929280
   0.19629401  0.39796381  0.11510584
   0.55568676  0.69066856  0.01960185
   0.70807837  0.29607383  0.15932067
   0.39464474  0.55256956  0.33409958
   0.52302091  0.40117980  0.58620365
   0.60859226  0.12629835  0.22096588
   0.16542169  0.88592361  0.29708493
   0.73922842  0.71732618  0.29003088
   0.05757607  0.41007181  0.57636003
   0.31278969  0.80888857  0.57813042
   0.77850156  0.92367296  0.64708092
