       N       E                     dE             d eps       ncg     rms          rms(c)
DAV:   1     0.282687406717E+03    0.28269E+03   -0.19042E+04 14736   0.789E+02
DAV:   2    -0.621481975759E+02   -0.34484E+03   -0.33358E+03 18776   0.337E+02
DAV:   3    -0.842288535621E+02   -0.22081E+02   -0.21942E+02 20568   0.716E+01
DAV:   4    -0.856219813865E+02   -0.13931E+01   -0.13897E+01 25088   0.158E+01
DAV:   5    -0.856519928824E+02   -0.30011E-01   -0.30008E-01 21656   0.201E+00    0.509E+01
DAV:   6    -0.800819494024E+02    0.55700E+01   -0.14449E+01 20016   0.216E+01    0.207E+01
DAV:   7    -0.793695097653E+02    0.71244E+00   -0.22740E+00 16864   0.634E+00    0.920E+00
DAV:   8    -0.793516424280E+02    0.17867E-01   -0.53582E-01 22024   0.317E+00    0.179E+00
DAV:   9    -0.793536513371E+02   -0.20089E-02   -0.71261E-02 22200   0.105E+00    0.106E+00
DAV:  10    -0.793517643858E+02    0.18870E-02   -0.17713E-02 18144   0.633E-01    0.192E-01
DAV:  11    -0.793520953539E+02   -0.33097E-03   -0.24967E-03 21600   0.367E-01    0.103E-01
DAV:  12    -0.793522346984E+02   -0.13934E-03   -0.25241E-04 15264   0.105E-01    0.583E-02
DAV:  13    -0.793523500736E+02   -0.11538E-03   -0.12983E-04 12728   0.597E-02    0.177E-02
DAV:  14    -0.793523657121E+02   -0.15639E-04   -0.28163E-05 11224   0.467E-02
   1 F= -.79352366E+02 E0= -.79352438E+02  d E =-.793524E+02
       N       E                     dE             d eps       ncg     rms          rms(c)
DAV:   1    -0.793522010824E+02    0.14899E-03   -0.57391E-02 16840   0.177E+00    0.216E-01
DAV:   2    -0.793528179907E+02   -0.61691E-03   -0.96327E-03 16536   0.500E-01    0.801E-02
DAV:   3    -0.793527861385E+02    0.31852E-04   -0.25375E-04 16904   0.104E-01
   2 F= -.79352786E+02 E0= -.79352859E+02  d E =-.420426E-03
       N       E                     dE             d eps       ncg     rms          rms(c)
DAV:   1    -0.793527664220E+02    0.51569E-04   -0.16645E-03 17848   0.301E-01    0.535E-02
DAV:   2    -0.793527734252E+02   -0.70032E-05   -0.26511E-04 13968   0.854E-02
   3 F= -.79352773E+02 E0= -.79352847E+02  d E =-.407713E-03
