Automatically generated mesh
      74
Reciprocal lattice
    0.00000000000000    0.00000000000000    0.00000000000000             1
    0.14285714285714    0.00000000000000    0.00000000000000             2
    0.28571428571429    0.00000000000000    0.00000000000000             2
    0.42857142857143    0.00000000000000    0.00000000000000             2
    0.00000000000000    0.33333333333333    0.00000000000000             2
    0.14285714285714    0.33333333333333    0.00000000000000             2
    0.28571428571429    0.33333333333333    0.00000000000000             2
    0.42857142857143    0.33333333333333    0.00000000000000             2
   -0.42857142857143    0.33333333333333    0.00000000000000             2
   -0.28571428571429    0.33333333333333    0.00000000000000             2
   -0.14285714285714    0.33333333333333    0.00000000000000             2
    0.00000000000000    0.00000000000000    0.14285714285714             2
    0.14285714285714    0.00000000000000    0.14285714285714             2
    0.28571428571429    0.00000000000000    0.14285714285714             2
    0.42857142857143    0.00000000000000    0.14285714285714             2
   -0.42857142857143    0.00000000000000    0.14285714285714             2
   -0.28571428571429    0.00000000000000    0.14285714285714             2
   -0.14285714285714    0.00000000000000    0.14285714285714             2
    0.00000000000000    0.33333333333333    0.14285714285714             2
    0.14285714285714    0.33333333333333    0.14285714285714             2
    0.28571428571429    0.33333333333333    0.14285714285714             2
    0.42857142857143    0.33333333333333    0.14285714285714             2
   -0.42857142857143    0.33333333333333    0.14285714285714             2
   -0.28571428571429    0.33333333333333    0.14285714285714             2
   -0.14285714285714    0.33333333333333    0.14285714285714             2
    0.00000000000000   -0.33333333333333    0.14285714285714             2
    0.14285714285714   -0.33333333333333    0.14285714285714             2
    0.28571428571429   -0.33333333333333    0.14285714285714             2
    0.42857142857143   -0.33333333333333    0.14285714285714             2
   -0.42857142857143   -0.33333333333333    0.14285714285714             2
   -0.28571428571429   -0.33333333333333    0.14285714285714             2
   -0.14285714285714   -0.33333333333333    0.14285714285714             2
    0.00000000000000    0.00000000000000    0.28571428571429             2
    0.14285714285714    0.00000000000000    0.28571428571429             2
    0.28571428571429    0.00000000000000    0.28571428571429             2
    0.42857142857143    0.00000000000000    0.28571428571429             2
   -0.42857142857143    0.00000000000000    0.28571428571429             2
   -0.28571428571429    0.00000000000000    0.28571428571429             2
   -0.14285714285714    0.00000000000000    0.28571428571429             2
    0.00000000000000    0.33333333333333    0.28571428571429             2
    0.14285714285714    0.33333333333333    0.28571428571429             2
    0.28571428571429    0.33333333333333    0.28571428571429             2
    0.42857142857143    0.33333333333333    0.28571428571429             2
   -0.42857142857143    0.33333333333333    0.28571428571429             2
   -0.28571428571429    0.33333333333333    0.28571428571429             2
   -0.14285714285714    0.33333333333333    0.28571428571429             2
    0.00000000000000   -0.33333333333333    0.28571428571429             2
    0.14285714285714   -0.33333333333333    0.28571428571429             2
    0.28571428571429   -0.33333333333333    0.28571428571429             2
    0.42857142857143   -0.33333333333333    0.28571428571429             2
   -0.42857142857143   -0.33333333333333    0.28571428571429             2
   -0.28571428571429   -0.33333333333333    0.28571428571429             2
   -0.14285714285714   -0.33333333333333    0.28571428571429             2
    0.00000000000000    0.00000000000000    0.42857142857143             2
    0.14285714285714    0.00000000000000    0.42857142857143             2
    0.28571428571429    0.00000000000000    0.42857142857143             2
    0.42857142857143    0.00000000000000    0.42857142857143             2
   -0.42857142857143    0.00000000000000    0.42857142857143             2
   -0.28571428571429    0.00000000000000    0.42857142857143             2
   -0.14285714285714    0.00000000000000    0.42857142857143             2
    0.00000000000000    0.33333333333333    0.42857142857143             2
    0.14285714285714    0.33333333333333    0.42857142857143             2
    0.28571428571429    0.33333333333333    0.42857142857143             2
    0.42857142857143    0.33333333333333    0.42857142857143             2
   -0.42857142857143    0.33333333333333    0.42857142857143             2
   -0.28571428571429    0.33333333333333    0.42857142857143             2
   -0.14285714285714    0.33333333333333    0.42857142857143             2
    0.00000000000000   -0.33333333333333    0.42857142857143             2
    0.14285714285714   -0.33333333333333    0.42857142857143             2
    0.28571428571429   -0.33333333333333    0.42857142857143             2
    0.42857142857143   -0.33333333333333    0.42857142857143             2
   -0.42857142857143   -0.33333333333333    0.42857142857143             2
   -0.28571428571429   -0.33333333333333    0.42857142857143             2
   -0.14285714285714   -0.33333333333333    0.42857142857143             2
Tetrahedra
       438    0.00113378684807
         2         1         5         6        20
         2         1         2         6        20
         2         1         2        13        20
         2         1         5        19        20
         2         1        12        19        20
         2         1        12        13        20
         2         2         6         7        21
         2         2         3         7        21
         2         2         3        14        21
         2         2         6        20        21
         2         2        13        20        21
         2         2        13        14        21
         2         3         7         8        22
         2         3         4         8        22
         2         3         4        15        22
         2         3         7        21        22
         2         3        14        21        22
         2         3        14        15        22
         2         4         8         9        23
         2         4         4         9        23
         2         4         4        16        23
         2         4         8        22        23
         2         4        15        22        23
         2         4        15        16        23
         2         4         9        10        24
         2         3         4        10        24
         2         3         4        17        24
         2         4         9        23        24
         2         4        16        23        24
         2         4        16        17        24
         2         3        10        11        25
         2         2         3        11        25
         2         2         3        18        25
         2         3        10        24        25
         2         3        17        24        25
         2         3        17        18        25
         2         2         5        11        19
         2         1         2         5        19
         2         1         2        12        19
         2         2        11        19        25
         2         2        18        19        25
         2         2        12        18        19
         2         5         5        11        27
         2         5         6        11        27
         2         5         6        20        27
         2         5         5        26        27
         2         5        19        26        27
         2         5        19        20        27
         2         6        10        11        28
         2         6         7        10        28
         2         6         7        21        28
         2         6        11        27        28
         2         6        20        27        28
         2         6        20        21        28
         2         7         9        10        29
         2         7         8         9        29
         2         7         8        22        29
         2         7        10        28        29
         2         7        21        28        29
         2         7        21        22        29
         4         8         8         9        30
         2         8         9        23        30
         2         8         9        29        30
         2         8        22        29        30
         2         8        22        23        30
         2         7         8         9        31
         2         7         9        10        31
         2         9        10        24        31
         2         8         9        30        31
         2         9        23        30        31
         2         9        23        24        31
         2         6         7        10        32
         2         6        10        11        32
         2        10        11        25        32
         2         7        10        31        32
         2        10        24        31        32
         2        10        24        25        32
         2         5         6        11        26
         2         5         5        11        26
         2         5        11        19        26
         2         6        11        26        32
         2        11        25        26        32
         2        11        19        25        26
         2         1         2         5        13
         2         2         5        11        13
         2         5        11        13        27
         2         1         5        12        13
         2         5        12        13        26
         2         5        13        26        27
         2         2         3        11        14
         2         3        10        11        14
         2        10        11        14        28
         2         2        11        13        14
         2        11        13        14        27
         2        11        14        27        28
         2         3         4        10        15
         2         4         9        10        15
         2         9        10        15        29
         2         3        10        14        15
         2        10        14        15        28
         2        10        15        28        29
         2         4         4         9        16
         2         4         8         9        16
         2         8         9        16        30
         2         4         9        15        16
         2         9        15        16        29
         2         9        16        29        30
         2         3         4         8        17
         2         3         7         8        17
         2         7         8        17        31
         2         4         8        16        17
         2         8        16        17        30
         2         8        17        30        31
         2         2         3         7        18
         2         2         6         7        18
         2         6         7        18        32
         2         3         7        17        18
         2         7        17        18        31
         2         7        18        31        32
         2         1         2         6        12
         2         1         5         6        12
         2         5         6        12        26
         2         2         6        12        18
         2         6        12        18        32
         2         6        12        26        32
         2        12        19        20        41
         2        12        13        20        41
         2        12        13        34        41
         2        12        19        40        41
         2        12        33        40        41
         2        12        33        34        41
         2        13        20        21        42
         2        13        14        21        42
         2        13        14        35        42
         2        13        20        41        42
         2        13        34        41        42
         2        13        34        35        42
         2        14        21        22        43
         2        14        15        22        43
         2        14        15        36        43
         2        14        21        42        43
         2        14        35        42        43
         2        14        35        36        43
         2        15        22        23        44
         2        15        16        23        44
         2        15        16        37        44
         2        15        22        43        44
         2        15        36        43        44
         2        15        36        37        44
         2        16        23        24        45
         2        16        17        24        45
         2        16        17        38        45
         2        16        23        44        45
         2        16        37        44        45
         2        16        37        38        45
         2        17        24        25        46
         2        17        18        25        46
         2        17        18        39        46
         2        17        24        45        46
         2        17        38        45        46
         2        17        38        39        46
         2        18        19        25        40
         2        12        18        19        40
         2        12        18        33        40
         2        18        25        40        46
         2        18        39        40        46
         2        18        33        39        40
         2        19        26        27        48
         2        19        20        27        48
         2        19        20        41        48
         2        19        26        47        48
         2        19        40        47        48
         2        19        40        41        48
         2        20        27        28        49
         2        20        21        28        49
         2        20        21        42        49
         2        20        27        48        49
         2        20        41        48        49
         2        20        41        42        49
         2        21        28        29        50
         2        21        22        29        50
         2        21        22        43        50
         2        21        28        49        50
         2        21        42        49        50
         2        21        42        43        50
         2        22        29        30        51
         2        22        23        30        51
         2        22        23        44        51
         2        22        29        50        51
         2        22        43        50        51
         2        22        43        44        51
         2        23        30        31        52
         2        23        24        31        52
         2        23        24        45        52
         2        23        30        51        52
         2        23        44        51        52
         2        23        44        45        52
         2        24        31        32        53
         2        24        25        32        53
         2        24        25        46        53
         2        24        31        52        53
         2        24        45        52        53
         2        24        45        46        53
         2        25        26        32        47
         2        19        25        26        47
         2        19        25        40        47
         2        25        32        47        53
         2        25        46        47        53
         2        25        40        46        47
         2        12        13        26        34
         2        13        26        27        34
         2        26        27        34        48
         2        12        26        33        34
         2        26        33        34        47
         2        26        34        47        48
         2        13        14        27        35
         2        14        27        28        35
         2        27        28        35        49
         2        13        27        34        35
         2        27        34        35        48
         2        27        35        48        49
         2        14        15        28        36
         2        15        28        29        36
         2        28        29        36        50
         2        14        28        35        36
         2        28        35        36        49
         2        28        36        49        50
         2        15        16        29        37
         2        16        29        30        37
         2        29        30        37        51
         2        15        29        36        37
         2        29        36        37        50
         2        29        37        50        51
         2        16        17        30        38
         2        17        30        31        38
         2        30        31        38        52
         2        16        30        37        38
         2        30        37        38        51
         2        30        38        51        52
         2        17        18        31        39
         2        18        31        32        39
         2        31        32        39        53
         2        17        31        38        39
         2        31        38        39        52
         2        31        39        52        53
         2        12        18        32        33
         2        12        26        32        33
         2        26        32        33        47
         2        18        32        33        39
         2        32        33        39        53
         2        32        33        47        53
         2        33        40        41        62
         2        33        34        41        62
         2        33        34        55        62
         2        33        40        61        62
         2        33        54        61        62
         2        33        54        55        62
         2        34        41        42        63
         2        34        35        42        63
         2        34        35        56        63
         2        34        41        62        63
         2        34        55        62        63
         2        34        55        56        63
         2        35        42        43        64
         2        35        36        43        64
         2        35        36        57        64
         2        35        42        63        64
         2        35        56        63        64
         2        35        56        57        64
         2        36        43        44        65
         2        36        37        44        65
         2        36        37        58        65
         2        36        43        64        65
         2        36        57        64        65
         2        36        57        58        65
         2        37        44        45        66
         2        37        38        45        66
         2        37        38        59        66
         2        37        44        65        66
         2        37        58        65        66
         2        37        58        59        66
         2        38        45        46        67
         2        38        39        46        67
         2        38        39        60        67
         2        38        45        66        67
         2        38        59        66        67
         2        38        59        60        67
         2        39        40        46        61
         2        33        39        40        61
         2        33        39        54        61
         2        39        46        61        67
         2        39        60        61        67
         2        39        54        60        61
         2        40        47        48        69
         2        40        41        48        69
         2        40        41        62        69
         2        40        47        68        69
         2        40        61        68        69
         2        40        61        62        69
         2        41        48        49        70
         2        41        42        49        70
         2        41        42        63        70
         2        41        48        69        70
         2        41        62        69        70
         2        41        62        63        70
         2        42        49        50        71
         2        42        43        50        71
         2        42        43        64        71
         2        42        49        70        71
         2        42        63        70        71
         2        42        63        64        71
         2        43        50        51        72
         2        43        44        51        72
         2        43        44        65        72
         2        43        50        71        72
         2        43        64        71        72
         2        43        64        65        72
         2        44        51        52        73
         2        44        45        52        73
         2        44        45        66        73
         2        44        51        72        73
         2        44        65        72        73
         2        44        65        66        73
         2        45        52        53        74
         2        45        46        53        74
         2        45        46        67        74
         2        45        52        73        74
         2        45        66        73        74
         2        45        66        67        74
         2        46        47        53        68
         2        40        46        47        68
         2        40        46        61        68
         2        46        53        68        74
         2        46        67        68        74
         2        46        61        67        68
         2        33        34        47        55
         2        34        47        48        55
         2        47        48        55        69
         2        33        47        54        55
         2        47        54        55        68
         2        47        55        68        69
         2        34        35        48        56
         2        35        48        49        56
         2        48        49        56        70
         2        34        48        55        56
         2        48        55        56        69
         2        48        56        69        70
         2        35        36        49        57
         2        36        49        50        57
         2        49        50        57        71
         2        35        49        56        57
         2        49        56        57        70
         2        49        57        70        71
         2        36        37        50        58
         2        37        50        51        58
         2        50        51        58        72
         2        36        50        57        58
         2        50        57        58        71
         2        50        58        71        72
         2        37        38        51        59
         2        38        51        52        59
         2        51        52        59        73
         2        37        51        58        59
         2        51        58        59        72
         2        51        59        72        73
         2        38        39        52        60
         2        39        52        53        60
         2        52        53        60        74
         2        38        52        59        60
         2        52        59        60        73
         2        52        60        73        74
         2        33        39        53        54
         2        33        47        53        54
         2        47        53        54        68
         2        39        53        54        60
         2        53        54        60        74
         2        53        54        68        74
         2        54        61        62        74
         2        54        55        62        74
         2        54        55        60        74
         2        54        61        68        74
         2        54        54        68        74
         2        54        54        60        74
         2        55        62        63        73
         2        55        56        63        73
         2        55        56        59        73
         2        55        62        73        74
         2        55        60        73        74
         2        55        59        60        73
         2        56        63        64        72
         2        56        57        64        72
         2        56        57        58        72
         2        56        63        72        73
         2        56        59        72        73
         2        56        58        59        72
         2        57        64        65        71
         2        57        58        65        71
         4        57        57        58        71
         2        57        64        71        72
         2        57        58        71        72
         2        58        65        66        70
         2        58        59        66        70
         2        56        58        59        70
         2        58        65        70        71
         2        57        58        70        71
         2        56        57        58        70
         2        59        66        67        69
         2        59        60        67        69
         2        55        59        60        69
         2        59        66        69        70
         2        56        59        69        70
         2        55        56        59        69
         2        60        61        67        68
         2        54        60        61        68
         2        54        54        60        68
         2        60        67        68        69
         2        55        60        68        69
         2        54        55        60        68
         2        61        67        68        69
         2        61        62        67        69
         2        61        62        67        74
         4        61        61        67        68
         2        61        67        68        74
         2        62        66        69        70
         2        62        63        66        70
         2        62        63        66        73
         2        62        66        67        69
         2        62        66        67        74
         2        62        66        73        74
         2        63        65        70        71
         2        63        64        65        71
         2        63        64        65        72
         2        63        65        66        70
         2        63        65        66        73
         2        63        65        72        73
         2        64        64        71        72
         2        64        64        65        72
         2        64        64        65        71
