   21   21   99    2
  0.7377774E+01  0.5066948E-09  0.5089824E-09  0.6471556E-09  0.5000000E-15
  1.000000000000000E-004
  CAR 
 unknown system                          
     40     38     48
 
  0.3742002E-15  0.3742002E-15  0.3742002E-15  0.1333333E-01
    1      -35.893528    -35.893528   1.000000   1.000000
    2      -31.089437    -31.089437   1.000000   1.000000
    3      -30.698335    -30.698335   1.000000   1.000000
    4      -30.561807    -30.561807   1.000000   1.000000
    5      -18.031419    -18.031419   1.000000   1.000000
    6      -17.883394    -17.883394   1.000000   1.000000
    7      -17.805453    -17.805453   1.000000   1.000000
    8       -9.717579     -9.717579   1.000000   1.000000
    9       -8.218924     -8.218924   1.000000   1.000000
   10       -7.921312     -7.921312   1.000000   1.000000
   11       -7.211171     -7.211171   1.000000   1.000000
   12       -6.974589     -6.974589   1.000000   1.000000
   13       -6.626287     -6.626287   1.000000   1.000000
   14       -4.906184     -4.906184   1.000000   1.000000
   15       -3.562284     -3.562284   1.000000   1.000000
   16       -3.431836     -3.431836   1.000000   1.000000
   17       -3.183006     -3.183006   1.000000   1.000000
   18       -2.840621     -2.840621   1.000000   1.000000
   19       -2.773065     -2.773065   1.000000   1.000000
   20       -2.528704     -2.528704   1.000000   1.000000
   21        2.173724      2.173724   0.000000   0.000000
   22        2.539108      2.539108   0.000000   0.000000
   23        2.618639      2.618639   0.000000   0.000000
   24        2.795941      2.795941   0.000000   0.000000
   25        3.586107      3.586107   0.000000   0.000000
   26        3.932917      3.932917   0.000000   0.000000
   27        4.149650      4.149650   0.000000   0.000000
   28        4.432450      4.432450   0.000000   0.000000
   29        4.608420      4.608420   0.000000   0.000000
   30        4.711219      4.711219   0.000000   0.000000
   31        5.219987      5.219987   0.000000   0.000000
   32        5.585313      5.585313   0.000000   0.000000
   33        5.931120      5.931120   0.000000   0.000000
   34        6.312724      6.312724   0.000000   0.000000
   35        7.034078      7.034078   0.000000   0.000000
   36        7.176490      7.176490   0.000000   0.000000
   37        7.257566      7.257566   0.000000   0.000000
   38        7.524311      7.524311   0.000000   0.000000
   39        7.736105      7.736105   0.000000   0.000000
   40        7.917992      7.917992   0.000000   0.000000
   41        8.651303      8.651303   0.000000   0.000000
   42        8.966400      8.966400   0.000000   0.000000
   43        9.833793      9.833793   0.000000   0.000000
   44       10.273498     10.273498   0.000000   0.000000
   45       10.434402     10.434402   0.000000   0.000000
   46       11.242663     11.242663   0.000000   0.000000
   47       11.814483     11.814483   0.000000   0.000000
   48       12.189566     12.189566   0.000000   0.000000
 
  0.2000000E+00  0.3688456E-15  0.3712308E-15  0.2666667E-01
    1      -35.893501    -35.893501   1.000000   1.000000
    2      -31.089519    -31.089519   1.000000   1.000000
    3      -30.698333    -30.698333   1.000000   1.000000
    4      -30.561848    -30.561848   1.000000   1.000000
    5      -18.034710    -18.034710   1.000000   1.000000
    6      -17.883266    -17.883266   1.000000   1.000000
    7      -17.805304    -17.805304   1.000000   1.000000
    8       -9.588032     -9.588032   1.000000   1.000000
    9       -8.354188     -8.354188   1.000000   1.000000
   10       -7.882060     -7.882060   1.000000   1.000000
   11       -7.220460     -7.220460   1.000000   1.000000
   12       -7.010879     -7.010879   1.000000   1.000000
   13       -6.674808     -6.674808   1.000000   1.000000
   14       -4.905939     -4.905939   1.000000   1.000000
   15       -3.558939     -3.558939   1.000000   1.000000
   16       -3.399895     -3.399895   1.000000   1.000000
   17       -3.254419     -3.254419   1.000000   1.000000
   18       -2.843435     -2.843435   1.000000   1.000000
   19       -2.702715     -2.702715   1.000000   1.000000
   20       -2.512967     -2.512967   1.000000   1.000000
   21        2.299864      2.299864   0.000000   0.000000
   22        2.494815      2.494815   0.000000   0.000000
   23        2.685347      2.685347   0.000000   0.000000
   24        2.860621      2.860621   0.000000   0.000000
   25        3.482302      3.482302   0.000000   0.000000
   26        3.785017      3.785017   0.000000   0.000000
   27        4.024577      4.024577   0.000000   0.000000
   28        4.312212      4.312212   0.000000   0.000000
   29        4.562388      4.562388   0.000000   0.000000
   30        4.932479      4.932479   0.000000   0.000000
   31        5.321992      5.321992   0.000000   0.000000
   32        5.656146      5.656146   0.000000   0.000000
   33        5.900544      5.900544   0.000000   0.000000
   34        6.422306      6.422306   0.000000   0.000000
   35        6.979387      6.979387   0.000000   0.000000
   36        7.118349      7.118349   0.000000   0.000000
   37        7.216148      7.216148   0.000000   0.000000
   38        7.446333      7.446333   0.000000   0.000000
   39        7.689533      7.689533   0.000000   0.000000
   40        8.352230      8.352230   0.000000   0.000000
   41        8.796996      8.796996   0.000000   0.000000
   42        9.198304      9.198304   0.000000   0.000000
   43        9.803796      9.803796   0.000000   0.000000
   44       10.149714     10.149714   0.000000   0.000000
   45       10.610634     10.610634   0.000000   0.000000
   46       11.392279     11.392279   0.000000   0.000000
   47       11.663340     11.663340   0.000000   0.000000
   48       12.140031     12.140031   0.000000   0.000000
 
  0.4000000E+00  0.3679782E-15  0.3538836E-15  0.2666667E-01
    1      -35.893458    -35.893458   1.000000   1.000000
    2      -31.089650    -31.089650   1.000000   1.000000
    3      -30.698327    -30.698327   1.000000   1.000000
    4      -30.561904    -30.561904   1.000000   1.000000
    5      -18.040052    -18.040052   1.000000   1.000000
    6      -17.883039    -17.883039   1.000000   1.000000
    7      -17.805040    -17.805040   1.000000   1.000000
    8       -9.241574     -9.241574   1.000000   1.000000
    9       -8.743760     -8.743760   1.000000   1.000000
   10       -7.734615     -7.734615   1.000000   1.000000
   11       -7.305275     -7.305275   1.000000   1.000000
   12       -7.075455     -7.075455   1.000000   1.000000
   13       -6.720410     -6.720410   1.000000   1.000000
   14       -4.910815     -4.910815   1.000000   1.000000
   15       -3.545823     -3.545823   1.000000   1.000000
   16       -3.410877     -3.410877   1.000000   1.000000
   17       -3.300283     -3.300283   1.000000   1.000000
   18       -2.800441     -2.800441   1.000000   1.000000
   19       -2.632125     -2.632125   1.000000   1.000000
   20       -2.504565     -2.504565   1.000000   1.000000
   21        2.304584      2.304584   0.000000   0.000000
   22        2.612169      2.612169   0.000000   0.000000
   23        2.779917      2.779917   0.000000   0.000000
   24        2.974902      2.974902   0.000000   0.000000
   25        3.233598      3.233598   0.000000   0.000000
   26        3.634303      3.634303   0.000000   0.000000
   27        3.862557      3.862557   0.000000   0.000000
   28        4.443862      4.443862   0.000000   0.000000
   29        4.638993      4.638993   0.000000   0.000000
   30        5.012512      5.012512   0.000000   0.000000
   31        5.209375      5.209375   0.000000   0.000000
   32        5.722370      5.722370   0.000000   0.000000
   33        5.872844      5.872844   0.000000   0.000000
   34        6.620562      6.620562   0.000000   0.000000
   35        6.797866      6.797866   0.000000   0.000000
   36        7.065407      7.065407   0.000000   0.000000
   37        7.161612      7.161612   0.000000   0.000000
   38        7.745585      7.745585   0.000000   0.000000
   39        8.078578      8.078578   0.000000   0.000000
   40        8.568349      8.568349   0.000000   0.000000
   41        8.779385      8.779385   0.000000   0.000000
   42        9.432188      9.432188   0.000000   0.000000
   43        9.873882      9.873882   0.000000   0.000000
   44       10.262141     10.262141   0.000000   0.000000
   45       10.478143     10.478143   0.000000   0.000000
   46       11.017840     11.017840   0.000000   0.000000
   47       11.367470     11.367470   0.000000   0.000000
   48       11.713902     11.713902   0.000000   0.000000
 
  0.3760013E-15  0.2000000E+00  0.3885781E-15  0.2666667E-01
    1      -35.893498    -35.893498   1.000000   1.000000
    2      -31.089455    -31.089455   1.000000   1.000000
    3      -30.698377    -30.698377   1.000000   1.000000
    4      -30.561911    -30.561911   1.000000   1.000000
    5      -18.031142    -18.031142   1.000000   1.000000
    6      -17.887629    -17.887629   1.000000   1.000000
    7      -17.805270    -17.805270   1.000000   1.000000
    8       -9.589138     -9.589138   1.000000   1.000000
    9       -8.324418     -8.324418   1.000000   1.000000
   10       -7.884156     -7.884156   1.000000   1.000000
   11       -7.443708     -7.443708   1.000000   1.000000
   12       -6.800614     -6.800614   1.000000   1.000000
   13       -6.653909     -6.653909   1.000000   1.000000
   14       -4.887188     -4.887188   1.000000   1.000000
   15       -3.660858     -3.660858   1.000000   1.000000
   16       -3.447544     -3.447544   1.000000   1.000000
   17       -3.175449     -3.175449   1.000000   1.000000
   18       -2.867552     -2.867552   1.000000   1.000000
   19       -2.726746     -2.726746   1.000000   1.000000
   20       -2.399910     -2.399910   1.000000   1.000000
   21        2.177923      2.177923   0.000000   0.000000
   22        2.426891      2.426891   0.000000   0.000000
   23        2.692322      2.692322   0.000000   0.000000
   24        2.919378      2.919378   0.000000   0.000000
   25        3.345285      3.345285   0.000000   0.000000
   26        3.883415      3.883415   0.000000   0.000000
   27        4.138195      4.138195   0.000000   0.000000
   28        4.246218      4.246218   0.000000   0.000000
   29        4.546694      4.546694   0.000000   0.000000
   30        4.886311      4.886311   0.000000   0.000000
   31        5.291761      5.291761   0.000000   0.000000
   32        5.710100      5.710100   0.000000   0.000000
   33        6.012520      6.012520   0.000000   0.000000
   34        6.456031      6.456031   0.000000   0.000000
   35        6.586139      6.586139   0.000000   0.000000
   36        6.907276      6.907276   0.000000   0.000000
   37        7.260940      7.260940   0.000000   0.000000
   38        7.520501      7.520501   0.000000   0.000000
   39        8.090990      8.090990   0.000000   0.000000
   40        8.286200      8.286200   0.000000   0.000000
   41        8.894680      8.894680   0.000000   0.000000
   42        9.059281      9.059281   0.000000   0.000000
   43        9.858074      9.858074   0.000000   0.000000
   44       10.198769     10.198769   0.000000   0.000000
   45       11.018310     11.018310   0.000000   0.000000
   46       11.357199     11.357199   0.000000   0.000000
   47       11.672222     11.672222   0.000000   0.000000
   48       12.099157     12.099157   0.000000   0.000000
 
  0.2000000E+00  0.2000000E+00  0.3608225E-15  0.2666667E-01
    1      -35.893472    -35.893472   1.000000   1.000000
    2      -31.089529    -31.089529   1.000000   1.000000
    3      -30.698373    -30.698373   1.000000   1.000000
    4      -30.561948    -30.561948   1.000000   1.000000
    5      -18.034103    -18.034103   1.000000   1.000000
    6      -17.887368    -17.887368   1.000000   1.000000
    7      -17.805157    -17.805157   1.000000   1.000000
    8       -9.536839     -9.536839   1.000000   1.000000
    9       -8.214676     -8.214676   1.000000   1.000000
   10       -8.028606     -8.028606   1.000000   1.000000
   11       -7.402544     -7.402544   1.000000   1.000000
   12       -6.857268     -6.857268   1.000000   1.000000
   13       -6.653581     -6.653581   1.000000   1.000000
   14       -4.931640     -4.931640   1.000000   1.000000
   15       -3.657803     -3.657803   1.000000   1.000000
   16       -3.458682     -3.458682   1.000000   1.000000
   17       -3.243821     -3.243821   1.000000   1.000000
   18       -2.785864     -2.785864   1.000000   1.000000
   19       -2.678210     -2.678210   1.000000   1.000000
   20       -2.447714     -2.447714   1.000000   1.000000
   21        2.277098      2.277098   0.000000   0.000000
   22        2.396044      2.396044   0.000000   0.000000
   23        2.686228      2.686228   0.000000   0.000000
   24        2.827270      2.827270   0.000000   0.000000
   25        3.388736      3.388736   0.000000   0.000000
   26        3.586479      3.586479   0.000000   0.000000
   27        3.907980      3.907980   0.000000   0.000000
   28        4.405804      4.405804   0.000000   0.000000
   29        4.673570      4.673570   0.000000   0.000000
   30        5.076323      5.076323   0.000000   0.000000
   31        5.275809      5.275809   0.000000   0.000000
   32        5.863122      5.863122   0.000000   0.000000
   33        6.063607      6.063607   0.000000   0.000000
   34        6.521642      6.521642   0.000000   0.000000
   35        6.723209      6.723209   0.000000   0.000000
   36        7.095112      7.095112   0.000000   0.000000
   37        7.244396      7.244396   0.000000   0.000000
   38        7.639575      7.639575   0.000000   0.000000
   39        7.957773      7.957773   0.000000   0.000000
   40        8.461693      8.461693   0.000000   0.000000
   41        8.932633      8.932633   0.000000   0.000000
   42        9.115064      9.115064   0.000000   0.000000
   43        9.907139      9.907139   0.000000   0.000000
   44       10.248268     10.248268   0.000000   0.000000
   45       10.771480     10.771480   0.000000   0.000000
   46       11.319560     11.319560   0.000000   0.000000
   47       11.507070     11.507070   0.000000   0.000000
   48       11.838025     11.838025   0.000000   0.000000
 
  0.4000000E+00  0.2000000E+00  0.3747003E-15  0.2666667E-01
    1      -35.893428    -35.893428   1.000000   1.000000
    2      -31.089652    -31.089652   1.000000   1.000000
    3      -30.698365    -30.698365   1.000000   1.000000
    4      -30.562002    -30.562002   1.000000   1.000000
    5      -18.039320    -18.039320   1.000000   1.000000
    6      -17.887094    -17.887094   1.000000   1.000000
    7      -17.804901    -17.804901   1.000000   1.000000
    8       -9.275080     -9.275080   1.000000   1.000000
    9       -8.521567     -8.521567   1.000000   1.000000
   10       -7.899500     -7.899500   1.000000   1.000000
   11       -7.389924     -7.389924   1.000000   1.000000
   12       -7.069522     -7.069522   1.000000   1.000000
   13       -6.604790     -6.604790   1.000000   1.000000
   14       -4.955835     -4.955835   1.000000   1.000000
   15       -3.626123     -3.626123   1.000000   1.000000
   16       -3.517418     -3.517418   1.000000   1.000000
   17       -3.309683     -3.309683   1.000000   1.000000
   18       -2.721750     -2.721750   1.000000   1.000000
   19       -2.588401     -2.588401   1.000000   1.000000
   20       -2.441561     -2.441561   1.000000   1.000000
   21        2.311782      2.311782   0.000000   0.000000
   22        2.457978      2.457978   0.000000   0.000000
   23        2.720317      2.720317   0.000000   0.000000
   24        2.941395      2.941395   0.000000   0.000000
   25        3.234028      3.234028   0.000000   0.000000
   26        3.620696      3.620696   0.000000   0.000000
   27        3.830242      3.830242   0.000000   0.000000
   28        4.288282      4.288282   0.000000   0.000000
   29        4.733340      4.733340   0.000000   0.000000
   30        4.982563      4.982563   0.000000   0.000000
   31        5.282743      5.282743   0.000000   0.000000
   32        5.823927      5.823927   0.000000   0.000000
   33        6.323725      6.323725   0.000000   0.000000
   34        6.565079      6.565079   0.000000   0.000000
   35        6.727169      6.727169   0.000000   0.000000
   36        6.966240      6.966240   0.000000   0.000000
   37        7.277193      7.277193   0.000000   0.000000
   38        7.860293      7.860293   0.000000   0.000000
   39        8.199534      8.199534   0.000000   0.000000
   40        8.559502      8.559502   0.000000   0.000000
   41        8.918274      8.918274   0.000000   0.000000
   42        9.406102      9.406102   0.000000   0.000000
   43        9.824661      9.824661   0.000000   0.000000
   44       10.032096     10.032096   0.000000   0.000000
   45       10.826091     10.826091   0.000000   0.000000
   46       11.256185     11.256185   0.000000   0.000000
   47       11.483909     11.483909   0.000000   0.000000
   48       11.924035     11.924035   0.000000   0.000000
 
 -0.4000000E+00  0.2000000E+00  0.3851086E-15  0.2666667E-01
    1      -35.893429    -35.893429   1.000000   1.000000
    2      -31.089667    -31.089667   1.000000   1.000000
    3      -30.698367    -30.698367   1.000000   1.000000
    4      -30.562004    -30.562004   1.000000   1.000000
    5      -18.039590    -18.039590   1.000000   1.000000
    6      -17.887209    -17.887209   1.000000   1.000000
    7      -17.804863    -17.804863   1.000000   1.000000
    8       -9.073101     -9.073101   1.000000   1.000000
    9       -8.800607     -8.800607   1.000000   1.000000
   10       -7.780795     -7.780795   1.000000   1.000000
   11       -7.419659     -7.419659   1.000000   1.000000
   12       -7.157112     -7.157112   1.000000   1.000000
   13       -6.576205     -6.576205   1.000000   1.000000
   14       -4.926524     -4.926524   1.000000   1.000000
   15       -3.584054     -3.584054   1.000000   1.000000
   16       -3.525746     -3.525746   1.000000   1.000000
   17       -3.343955     -3.343955   1.000000   1.000000
   18       -2.778322     -2.778322   1.000000   1.000000
   19       -2.550178     -2.550178   1.000000   1.000000
   20       -2.384999     -2.384999   1.000000   1.000000
   21        2.386164      2.386164   0.000000   0.000000
   22        2.522370      2.522370   0.000000   0.000000
   23        2.695597      2.695597   0.000000   0.000000
   24        3.005729      3.005729   0.000000   0.000000
   25        3.232758      3.232758   0.000000   0.000000
   26        3.641189      3.641189   0.000000   0.000000
   27        3.889933      3.889933   0.000000   0.000000
   28        4.097154      4.097154   0.000000   0.000000
   29        4.709930      4.709930   0.000000   0.000000
   30        4.970030      4.970030   0.000000   0.000000
   31        5.338744      5.338744   0.000000   0.000000
   32        5.736397      5.736397   0.000000   0.000000
   33        6.096635      6.096635   0.000000   0.000000
   34        6.469644      6.469644   0.000000   0.000000
   35        6.716688      6.716688   0.000000   0.000000
   36        7.051624      7.051624   0.000000   0.000000
   37        7.309516      7.309516   0.000000   0.000000
   38        7.607675      7.607675   0.000000   0.000000
   39        8.062153      8.062153   0.000000   0.000000
   40        8.651603      8.651603   0.000000   0.000000
   41        9.179381      9.179381   0.000000   0.000000
   42        9.454051      9.454051   0.000000   0.000000
   43        9.986046      9.986046   0.000000   0.000000
   44       10.418714     10.418714   0.000000   0.000000
   45       10.484230     10.484230   0.000000   0.000000
   46       10.940463     10.940463   0.000000   0.000000
   47       11.593771     11.593771   0.000000   0.000000
   48       11.949402     11.949402   0.000000   0.000000
 
 -0.2000000E+00  0.2000000E+00  0.3677614E-15  0.2666667E-01
    1      -35.893471    -35.893471   1.000000   1.000000
    2      -31.089540    -31.089540   1.000000   1.000000
    3      -30.698372    -30.698372   1.000000   1.000000
    4      -30.561945    -30.561945   1.000000   1.000000
    5      -18.034526    -18.034526   1.000000   1.000000
    6      -17.887534    -17.887534   1.000000   1.000000
    7      -17.805098    -17.805098   1.000000   1.000000
    8       -9.403755     -9.403755   1.000000   1.000000
    9       -8.518613     -8.518613   1.000000   1.000000
   10       -7.814306     -7.814306   1.000000   1.000000
   11       -7.454438     -7.454438   1.000000   1.000000
   12       -6.990205     -6.990205   1.000000   1.000000
   13       -6.587422     -6.587422   1.000000   1.000000
   14       -4.883103     -4.883103   1.000000   1.000000
   15       -3.616810     -3.616810   1.000000   1.000000
   16       -3.490554     -3.490554   1.000000   1.000000
   17       -3.239938     -3.239938   1.000000   1.000000
   18       -2.879661     -2.879661   1.000000   1.000000
   19       -2.628976     -2.628976   1.000000   1.000000
   20       -2.356542     -2.356542   1.000000   1.000000
   21        2.290850      2.290850   0.000000   0.000000
   22        2.455255      2.455255   0.000000   0.000000
   23        2.749387      2.749387   0.000000   0.000000
   24        3.013162      3.013162   0.000000   0.000000
   25        3.308810      3.308810   0.000000   0.000000
   26        3.762978      3.762978   0.000000   0.000000
   27        4.021614      4.021614   0.000000   0.000000
   28        4.243280      4.243280   0.000000   0.000000
   29        4.594721      4.594721   0.000000   0.000000
   30        4.901917      4.901917   0.000000   0.000000
   31        5.172419      5.172419   0.000000   0.000000
   32        5.681213      5.681213   0.000000   0.000000
   33        5.884752      5.884752   0.000000   0.000000
   34        6.367538      6.367538   0.000000   0.000000
   35        6.619276      6.619276   0.000000   0.000000
   36        7.050616      7.050616   0.000000   0.000000
   37        7.311708      7.311708   0.000000   0.000000
   38        7.421708      7.421708   0.000000   0.000000
   39        8.041501      8.041501   0.000000   0.000000
   40        8.591087      8.591087   0.000000   0.000000
   41        8.881699      8.881699   0.000000   0.000000
   42        9.526812      9.526812   0.000000   0.000000
   43        9.787582      9.787582   0.000000   0.000000
   44       10.436489     10.436489   0.000000   0.000000
   45       10.768265     10.768265   0.000000   0.000000
   46       11.424549     11.424549   0.000000   0.000000
   47       11.739105     11.739105   0.000000   0.000000
   48       12.174281     12.174281   0.000000   0.000000
 
  0.3773024E-15  0.4000000E+00  0.3608225E-15  0.2666667E-01
    1      -35.893449    -35.893449   1.000000   1.000000
    2      -31.089489    -31.089489   1.000000   1.000000
    3      -30.698438    -30.698438   1.000000   1.000000
    4      -30.562073    -30.562073   1.000000   1.000000
    5      -18.030686    -18.030686   1.000000   1.000000
    6      -17.894448    -17.894448   1.000000   1.000000
    7      -17.804957    -17.804957   1.000000   1.000000
    8       -9.310772     -9.310772   1.000000   1.000000
    9       -8.453753     -8.453753   1.000000   1.000000
   10       -8.075193     -8.075193   1.000000   1.000000
   11       -7.549539     -7.549539   1.000000   1.000000
   12       -6.760144     -6.760144   1.000000   1.000000
   13       -6.588595     -6.588595   1.000000   1.000000
   14       -4.815849     -4.815849   1.000000   1.000000
   15       -3.745986     -3.745986   1.000000   1.000000
   16       -3.565609     -3.565609   1.000000   1.000000
   17       -3.156761     -3.156761   1.000000   1.000000
   18       -2.805348     -2.805348   1.000000   1.000000
   19       -2.711951     -2.711951   1.000000   1.000000
   20       -2.289894     -2.289894   1.000000   1.000000
   21        2.046055      2.046055   0.000000   0.000000
   22        2.296732      2.296732   0.000000   0.000000
   23        2.732505      2.732505   0.000000   0.000000
   24        3.179493      3.179493   0.000000   0.000000
   25        3.424419      3.424419   0.000000   0.000000
   26        3.788005      3.788005   0.000000   0.000000
   27        4.037105      4.037105   0.000000   0.000000
   28        4.196455      4.196455   0.000000   0.000000
   29        4.417183      4.417183   0.000000   0.000000
   30        4.753982      4.753982   0.000000   0.000000
   31        5.202483      5.202483   0.000000   0.000000
   32        5.850096      5.850096   0.000000   0.000000
   33        6.197614      6.197614   0.000000   0.000000
   34        6.365902      6.365902   0.000000   0.000000
   35        6.613218      6.613218   0.000000   0.000000
   36        6.925115      6.925115   0.000000   0.000000
   37        7.253057      7.253057   0.000000   0.000000
   38        7.629506      7.629506   0.000000   0.000000
   39        8.411719      8.411719   0.000000   0.000000
   40        8.579153      8.579153   0.000000   0.000000
   41        9.045003      9.045003   0.000000   0.000000
   42        9.419080      9.419080   0.000000   0.000000
   43        9.891151      9.891151   0.000000   0.000000
   44       10.120508     10.120508   0.000000   0.000000
   45       10.774787     10.774787   0.000000   0.000000
   46       11.454110     11.454110   0.000000   0.000000
   47       11.656197     11.656197   0.000000   0.000000
   48       11.945551     11.945551   0.000000   0.000000
 
  0.2000000E+00  0.4000000E+00  0.3885781E-15  0.2666667E-01
    1      -35.893424    -35.893424   1.000000   1.000000
    2      -31.089560    -31.089560   1.000000   1.000000
    3      -30.698436    -30.698436   1.000000   1.000000
    4      -30.562108    -30.562108   1.000000   1.000000
    5      -18.033538    -18.033538   1.000000   1.000000
    6      -17.894144    -17.894144   1.000000   1.000000
    7      -17.804850    -17.804850   1.000000   1.000000
    8       -9.304795     -9.304795   1.000000   1.000000
    9       -8.291219     -8.291219   1.000000   1.000000
   10       -8.101589     -8.101589   1.000000   1.000000
   11       -7.629319     -7.629319   1.000000   1.000000
   12       -6.885261     -6.885261   1.000000   1.000000
   13       -6.494479     -6.494479   1.000000   1.000000
   14       -4.891670     -4.891670   1.000000   1.000000
   15       -3.752920     -3.752920   1.000000   1.000000
   16       -3.585684     -3.585684   1.000000   1.000000
   17       -3.247836     -3.247836   1.000000   1.000000
   18       -2.725439     -2.725439   1.000000   1.000000
   19       -2.636332     -2.636332   1.000000   1.000000
   20       -2.319630     -2.319630   1.000000   1.000000
   21        2.110559      2.110559   0.000000   0.000000
   22        2.327135      2.327135   0.000000   0.000000
   23        2.560189      2.560189   0.000000   0.000000
   24        2.936414      2.936414   0.000000   0.000000
   25        3.381046      3.381046   0.000000   0.000000
   26        3.850543      3.850543   0.000000   0.000000
   27        3.972790      3.972790   0.000000   0.000000
   28        4.354049      4.354049   0.000000   0.000000
   29        4.548649      4.548649   0.000000   0.000000
   30        5.036081      5.036081   0.000000   0.000000
   31        5.220244      5.220244   0.000000   0.000000
   32        5.758612      5.758612   0.000000   0.000000
   33        6.111814      6.111814   0.000000   0.000000
   34        6.503343      6.503343   0.000000   0.000000
   35        6.757604      6.757604   0.000000   0.000000
   36        7.116029      7.116029   0.000000   0.000000
   37        7.435967      7.435967   0.000000   0.000000
   38        7.776187      7.776187   0.000000   0.000000
   39        8.146474      8.146474   0.000000   0.000000
   40        8.534090      8.534090   0.000000   0.000000
   41        9.076522      9.076522   0.000000   0.000000
   42        9.268250      9.268250   0.000000   0.000000
   43        9.505293      9.505293   0.000000   0.000000
   44       10.573724     10.573724   0.000000   0.000000
   45       10.883428     10.883428   0.000000   0.000000
   46       11.256769     11.256769   0.000000   0.000000
   47       11.669739     11.669739   0.000000   0.000000
   48       11.930345     11.930345   0.000000   0.000000
 
  0.4000000E+00  0.4000000E+00  0.1221245E-14  0.2666667E-01
    1      -35.893382    -35.893382   1.000000   1.000000
    2      -31.089674    -31.089674   1.000000   1.000000
    3      -30.698431    -30.698431   1.000000   1.000000
    4      -30.562164    -30.562164   1.000000   1.000000
    5      -18.038420    -18.038420   1.000000   1.000000
    6      -17.893726    -17.893726   1.000000   1.000000
    7      -17.804638    -17.804638   1.000000   1.000000
    8       -9.167241     -9.167241   1.000000   1.000000
    9       -8.296518     -8.296518   1.000000   1.000000
   10       -8.049277     -8.049277   1.000000   1.000000
   11       -7.698334     -7.698334   1.000000   1.000000
   12       -7.075768     -7.075768   1.000000   1.000000
   13       -6.409297     -6.409297   1.000000   1.000000
   14       -4.987216     -4.987216   1.000000   1.000000
   15       -3.765148     -3.765148   1.000000   1.000000
   16       -3.611909     -3.611909   1.000000   1.000000
   17       -3.358523     -3.358523   1.000000   1.000000
   18       -2.615626     -2.615626   1.000000   1.000000
   19       -2.541866     -2.541866   1.000000   1.000000
   20       -2.330373     -2.330373   1.000000   1.000000
   21        2.204112      2.204112   0.000000   0.000000