 running on   16 total cores
 distrk:  each k-point on   16 cores,    1 groups
 distr:  one band on    1 cores,   16 groups
 using from now: INCAR     
 vasp.5.4.4.18Apr17-6-g9f103f2a35 (build Nov 01 2019 12:17:22) complex          
  
 POSCAR found type information on POSCAR  Sr Nb H 
 POSCAR found :  3 types and      21 ions

 ----------------------------------------------------------------------------- 
|                                                                             |
|           W    W    AA    RRRRR   N    N  II  N    N   GGGG   !!!           |
|           W    W   A  A   R    R  NN   N  II  NN   N  G    G  !!!           |
|           W    W  A    A  R    R  N N  N  II  N N  N  G       !!!           |
|           W WW W  AAAAAA  RRRRR   N  N N  II  N  N N  G  GGG   !            |
|           WW  WW  A    A  R   R   N   NN  II  N   NN  G    G                |
|           W    W  A    A  R    R  N    N  II  N    N   GGGG   !!!           |
|                                                                             |
|      For optimal performance we recommend to set                            |
|        NCORE= 4 - approx SQRT( number of cores)                             |
|      NCORE specifies how many cores store one orbital (NPAR=cpu/NCORE).     |
|      This setting can  greatly improve the performance of VASP for DFT.     |
|      The default,   NCORE=1            might be grossly inefficient         |
|      on modern multi-core architectures or massively parallel machines.     |
|      Do your own testing !!!!                                               |
|      Unfortunately you need to use the default for GW and RPA calculations. |
|      (for HF NCORE is supported but not extensively tested yet)             |
|                                                                             |
 ----------------------------------------------------------------------------- 

 LDA part: xc-table for Pade appr. of Perdew
 POSCAR, INCAR and KPOINTS ok, starting setup
 FFT: planning ...
 WAVECAR not read
 entering main loop
       N       E                     dE             d eps       ncg     rms          rms(c)
DAV:   1     0.178596503668E+03    0.17860E+03   -0.17529E+04  7296   0.735E+02
DAV:   2    -0.585957613193E+02   -0.23719E+03   -0.22184E+03  7664   0.210E+02
DAV:   3    -0.721889057693E+02   -0.13593E+02   -0.13465E+02 12272   0.495E+01
DAV:   4    -0.724133763940E+02   -0.22447E+00   -0.22416E+00  9056   0.429E+00
DAV:   5    -0.724186892192E+02   -0.53128E-02   -0.53123E-02 11104   0.619E-01    0.400E+01
RMM:   6    -0.761387586140E+02   -0.37201E+01   -0.41831E+00  7653   0.642E+00    0.213E+01
RMM:   7    -0.754702944830E+02    0.66846E+00   -0.24534E+00  7713   0.695E+00    0.948E+00
RMM:   8    -0.757525369099E+02   -0.28224E+00   -0.38980E-01  7496   0.390E+00    0.555E+00
RMM:   9    -0.757971236396E+02   -0.44587E-01   -0.71473E-02  7395   0.138E+00    0.230E+00
RMM:  10    -0.758126098036E+02   -0.15486E-01   -0.28575E-02  7162   0.994E-01    0.150E+00
RMM:  11    -0.758169542160E+02   -0.43444E-02   -0.81118E-03  6882   0.489E-01    0.592E-01
RMM:  12    -0.758180350541E+02   -0.10808E-02   -0.15953E-03  6243   0.284E-01    0.141E-01
RMM:  13    -0.758183495938E+02   -0.31454E-03   -0.51535E-04  5232   0.140E-01
   1 F= -.75818350E+02 E0= -.75818350E+02  d E =-.758183E+02  mag=    -0.0050
 curvature:   0.00 expect dE= 0.000E+00 dE for cont linesearch  0.000E+00
 trial: gam= 0.00000 g(F)=  0.350E-02 g(S)=  0.144E+00 ort = 0.000E+00 (trialstep = 0.100E+01)
 search vector abs. value=  0.148E+00
 bond charge predicted
       N       E                     dE             d eps       ncg     rms          rms(c)
DAV:   1    -0.761173454216E+02   -0.29931E+00   -0.31129E+00 10976   0.856E+00    0.527E+00
RMM:   2    -0.759710247850E+02    0.14632E+00   -0.33633E-01  7651   0.233E+00    0.112E+00
RMM:   3    -0.759432667533E+02    0.27758E-01   -0.31386E-02  7503   0.121E+00    0.759E-01
RMM:   4    -0.759380413690E+02    0.52254E-02   -0.10762E-02  7255   0.508E-01    0.809E-01
RMM:   5    -0.759378656981E+02    0.17567E-03   -0.47609E-03  6876   0.414E-01
   2 F= -.75937866E+02 E0= -.75937866E+02  d E =-.119516E+00  mag=    -0.0001
 trial-energy change:   -0.119516  1 .order   -0.126772   -0.147685   -0.105860
 step:   3.5310(harm=  3.5310)  dis= 0.01280  next Energy=   -76.079087 (dE=-0.261E+00)
 bond charge predicted
       N       E                     dE             d eps       ncg     rms          rms(c)
DAV:   1    -0.771783715761E+02   -0.12403E+01   -0.19560E+01  9984   0.213E+01    0.131E+01
RMM:   2    -0.762878842383E+02    0.89049E+00   -0.21888E+00  7586   0.586E+00    0.305E+00
RMM:   3    -0.760527451701E+02    0.23514E+00   -0.21400E-01  7427   0.309E+00    0.210E+00
RMM:   4    -0.760219850923E+02    0.30760E-01   -0.59126E-02  7917   0.114E+00    0.240E+00
RMM:   5    -0.760190858388E+02    0.28993E-02   -0.24641E-02  8236   0.900E-01    0.121E+00
RMM:   6    -0.760194684879E+02   -0.38265E-03   -0.31238E-02  8586   0.578E-01    0.303E-01
RMM:   7    -0.760203292859E+02   -0.86080E-03   -0.78627E-03  7732   0.422E-01
   3 F= -.76020329E+02 E0= -.76020329E+02  d E =-.201980E+00  mag=    -0.0000
 curvature:  -1.77 expect dE=-0.534E+00 dE for cont linesearch -0.790E-02
 trial: gam= 2.22266 g(F)=  0.280E+00 g(S)=  0.227E-01 ort =-0.257E-01 (trialstep = 0.242E+00)
 search vector abs. value=  0.918E+00
 bond charge predicted
       N       E                     dE             d eps       ncg     rms          rms(c)
DAV:   1    -0.761071625402E+02   -0.87694E-01   -0.12169E+00  9952   0.479E+00    0.206E+00
RMM:   2    -0.760740369105E+02    0.33126E-01   -0.87126E-02  7690   0.128E+00    0.685E-01
RMM:   3    -0.760679680312E+02    0.60689E-02   -0.78732E-03  7279   0.629E-01    0.411E-01
RMM:   4    -0.760672285052E+02    0.73953E-03   -0.28347E-03  6215   0.268E-01
   4 F= -.76067229E+02 E0= -.76067229E+02  d E =-.468992E-01  mag=    -0.0000
 trial-energy change:   -0.046899  1 .order   -0.050248   -0.059474   -0.041021
 step:   0.7811(harm=  0.7811)  dis= 0.02894  next Energy=   -76.116171 (dE=-0.958E-01)
 bond charge predicted
       N       E                     dE             d eps       ncg     rms          rms(c)
DAV:   1    -0.763028523072E+02   -0.23488E+00   -0.60549E+00  9936   0.106E+01    0.493E+00
RMM:   2    -0.761195272168E+02    0.18333E+00   -0.46560E-01  7639   0.284E+00    0.151E+00
RMM:   3    -0.760787614171E+02    0.40766E-01   -0.43925E-02  7411   0.149E+00    0.980E-01
RMM:   4    -0.760718262458E+02    0.69352E-02   -0.14905E-02  7774   0.551E-01    0.953E-01
RMM:   5    -0.760709603472E+02    0.86590E-03   -0.58153E-03  7208   0.466E-01
   5 F= -.76070960E+02 E0= -.76070960E+02  d E =-.506311E-01  mag=    -0.0000
 curvature:  -1.46 expect dE=-0.331E+00 dE for cont linesearch -0.136E-01
 ZBRENT: interpolating
 opt :   0.5906  next Energy=   -76.079773 (dE=-0.594E-01)
 bond charge predicted
       N       E                     dE             d eps       ncg     rms          rms(c)
DAV:   1    -0.761161125250E+02   -0.44286E-01   -0.84059E-01 10864   0.388E+00    0.179E+00
RMM:   2    -0.760930482244E+02    0.23064E-01   -0.68744E-02  7848   0.107E+00    0.490E-01
RMM:   3    -0.760884699705E+02    0.45783E-02   -0.63348E-03  7129   0.442E-01    0.294E-01
RMM:   4    -0.760871483371E+02    0.13216E-02   -0.18043E-03  5956   0.211E-01    0.280E-01
RMM:   5    -0.760869879644E+02    0.16037E-03   -0.59186E-04  5550   0.179E-01
   6 F= -.76086988E+02 E0= -.76086988E+02  d E =-.666587E-01  mag=    -0.0000
 curvature:  -0.94 expect dE=-0.124E+00 dE for cont linesearch -0.216E-02
 trial: gam= 0.33531 g(F)=  0.115E+00 g(S)=  0.165E-01 ort =-0.458E-01 (trialstep = 0.312E+00)
 search vector abs. value=  0.204E+00
 bond charge predicted
       N       E                     dE             d eps       ncg     rms          rms(c)
DAV:   1    -0.761255021622E+02   -0.38354E-01   -0.36404E-01  7632   0.228E+00    0.461E-01
RMM:   2    -0.761211716915E+02    0.43305E-02   -0.17263E-02  7603   0.563E-01    0.425E-01
RMM:   3    -0.761203798152E+02    0.79188E-03   -0.12199E-03  5432   0.314E-01
   7 F= -.76120380E+02 E0= -.76120380E+02  d E =-.333919E-01  mag=    -0.0000
 ZBRENT: can't locate minimum, use default step
 trial-energy change:   -0.033392  1 .order   -0.033149   -0.036283   -0.030015
 step:   1.2480(harm=  1.8060)  dis= 0.03536  next Energy=   -76.191998 (dE=-0.105E+00)
 bond charge predicted
       N       E                     dE             d eps       ncg     rms          rms(c)
DAV:   1    -0.762242586619E+02   -0.10309E+00   -0.32577E+00  7296   0.682E+00    0.132E+00
RMM:   2    -0.761837594089E+02    0.40499E-01   -0.15170E-01  7653   0.172E+00    0.147E+00
RMM:   3    -0.761774020079E+02    0.63574E-02   -0.12573E-02  7299   0.926E-01    0.122E+00
RMM:   4    -0.761766907901E+02    0.71122E-03   -0.20123E-03  6239   0.264E-01
   8 F= -.76176691E+02 E0= -.76176691E+02  d E =-.897028E-01  mag=    -0.0000
 curvature:  -1.36 expect dE=-0.138E+00 dE for cont linesearch -0.487E-02
 trial: gam= 0.55973 g(F)=  0.880E-01 g(S)=  0.134E-01 ort = 0.270E-01 (trialstep = 0.499E+00)
 search vector abs. value=  0.196E+00
 bond charge predicted
       N       E                     dE             d eps       ncg     rms          rms(c)
DAV:   1    -0.762218695368E+02   -0.44468E-01   -0.92377E-01  9552   0.413E+00    0.628E-01
RMM:   2    -0.762166996988E+02    0.51698E-02   -0.53985E-02  7670   0.930E-01    0.701E-01
RMM:   3    -0.762153653932E+02    0.13343E-02   -0.36865E-03  6747   0.566E-01    0.628E-01
RMM:   4    -0.762151199138E+02    0.24548E-03   -0.63981E-04  5317   0.138E-01
   9 F= -.76215120E+02 E0= -.76215120E+02  d E =-.384291E-01  mag=     0.0000
 trial-energy change:   -0.038429  1 .order   -0.040245   -0.058170   -0.022320
 step:   0.8100(harm=  0.8100)  dis= 0.02318  next Energy=   -76.223884 (dE=-0.472E-01)
 bond charge predicted
       N       E                     dE             d eps       ncg     rms          rms(c)
DAV:   1    -0.762241209549E+02   -0.87556E-02   -0.35055E-01  8608   0.258E+00    0.361E-01
RMM:   2    -0.762220242093E+02    0.20967E-02   -0.19318E-02  7660   0.551E-01    0.338E-01
RMM:   3    -0.762215206728E+02    0.50354E-03   -0.11557E-03  4816   0.331E-01
  10 F= -.76221521E+02 E0= -.76221521E+02  d E =-.448299E-01  mag=     0.0000
 curvature:  -0.68 expect dE=-0.313E-01 dE for cont linesearch -0.323E-05
 trial: gam= 0.63537 g(F)=  0.422E-01 g(S)=  0.380E-02 ort = 0.964E-03 (trialstep = 0.561E+00)
 search vector abs. value=  0.126E+00
 bond charge predicted
       N       E                     dE             d eps       ncg     rms          rms(c)
DAV:   1    -0.762477990004E+02   -0.25775E-01   -0.70516E-01  7392   0.332E+00    0.532E-01
RMM:   2    -0.762440049275E+02    0.37941E-02   -0.28789E-02  7690   0.725E-01    0.604E-01
RMM:   3    -0.762431114369E+02    0.89349E-03   -0.19364E-03  5976   0.390E-01
  11 F= -.76243111E+02 E0= -.76243111E+02  d E =-.215908E-01  mag=     0.0000
 trial-energy change:   -0.021591  1 .order   -0.022627   -0.026159   -0.019096
 step:   2.0792(harm=  2.0792)  dis= 0.04450  next Energy=   -76.269965 (dE=-0.484E-01)
 bond charge predicted
       N       E                     dE             d eps       ncg     rms          rms(c)
DAV:   1    -0.762903497306E+02   -0.46345E-01   -0.51244E+00  7360   0.895E+00    0.126E+00
RMM:   2    -0.762659413018E+02    0.24408E-01   -0.21080E-01  7760   0.198E+00    0.155E+00
RMM:   3    -0.762603548563E+02    0.55864E-02   -0.13583E-02  7276   0.990E-01    0.140E+00
RMM:   4    -0.762583526146E+02    0.20022E-02   -0.30143E-03  6569   0.307E-01    0.709E-01
RMM:   5    -0.762575083147E+02    0.84430E-03   -0.26215E-03  6378   0.270E-01
  12 F= -.76257508E+02 E0= -.76257508E+02  d E =-.359876E-01  mag=    -0.0000
 curvature:  -2.81 expect dE=-0.366E+00 dE for cont linesearch -0.243E-02
 trial: gam= 0.00000 g(F)=  0.117E+00 g(S)=  0.128E-01 ort =-0.104E-01 (trialstep = 0.839E+00)
 search vector abs. value=  0.130E+00
 bond charge predicted
       N       E                     dE             d eps       ncg     rms          rms(c)
DAV:   1    -0.762762966497E+02   -0.17944E-01   -0.19708E+00  9216   0.622E+00    0.147E+00
RMM:   2    -0.762822240194E+02   -0.59274E-02   -0.14410E-01  7323   0.141E+00    0.119E+00
RMM:   3    -0.762785201531E+02    0.37039E-02   -0.12083E-02  7376   0.106E+00    0.522E-01
RMM:   4    -0.762787048047E+02   -0.18465E-03   -0.10993E-03  5872   0.162E-01
  13 F= -.76278705E+02 E0= -.76278705E+02  d E =-.211965E-01  mag=    -0.0000
 trial-energy change:   -0.021196  1 .order   -0.024391   -0.109126    0.060343
 step:   0.5404(harm=  0.5404)  dis= 0.01095  next Energy=   -76.292643 (dE=-0.351E-01)
 bond charge predicted
       N       E                     dE             d eps       ncg     rms          rms(c)
DAV:   1    -0.762899972166E+02   -0.11477E-01   -0.25154E-01  9408   0.220E+00    0.425E-01
RMM:   2    -0.762909605324E+02   -0.96332E-03   -0.17151E-02  7074   0.484E-01    0.372E-01
RMM:   3    -0.762906717135E+02    0.28882E-03   -0.95467E-04  3869   0.334E-01
  14 F= -.76290672E+02 E0= -.76290672E+02  d E =-.331634E-01  mag=     0.0000
 curvature:  -0.27 expect dE=-0.128E-01 dE for cont linesearch -0.100E-03
 trial: gam= 0.41712 g(F)=  0.420E-01 g(S)=  0.525E-02 ort =-0.694E-02 (trialstep = 0.780E+00)
 search vector abs. value=  0.641E-01
 bond charge predicted
       N       E                     dE             d eps       ncg     rms          rms(c)
DAV:   1    -0.763154312469E+02   -0.24471E-01   -0.74982E-01  7680   0.394E+00    0.130E+00
RMM:   2    -0.763140535359E+02    0.13777E-02   -0.36822E-02  7576   0.761E-01    0.775E-01
RMM:   3    -0.763123076164E+02    0.17459E-02   -0.46041E-03  6968   0.573E-01    0.277E-01
RMM:   4    -0.763123507300E+02   -0.43114E-04   -0.57231E-04  5338   0.142E-01
  15 F= -.76312351E+02 E0= -.76312351E+02  d E =-.216790E-01  mag=     0.0000
 trial-energy change:   -0.021679  1 .order   -0.021897   -0.034605   -0.009188
 step:   1.0613(harm=  1.0613)  dis= 0.01640  next Energy=   -76.314229 (dE=-0.236E-01)
 bond charge predicted
       N       E                     dE             d eps       ncg     rms          rms(c)
DAV:   1    -0.763144244005E+02   -0.21168E-02   -0.97706E-02 10240   0.145E+00    0.460E-01
RMM:   2    -0.763139580397E+02    0.46636E-03   -0.43777E-03  6596   0.261E-01
  16 F= -.76313958E+02 E0= -.76313958E+02  d E =-.232863E-01  mag=    -0.0000
 curvature:  -0.77 expect dE=-0.236E-01 dE for cont linesearch -0.235E-04
 trial: gam= 0.54786 g(F)=  0.242E-01 g(S)=  0.658E-02 ort = 0.140E-02 (trialstep = 0.836E+00)
 search vector abs. value=  0.516E-01
 bond charge predicted
       N       E                     dE             d eps       ncg     rms          rms(c)
DAV:   1    -0.763334231917E+02   -0.18999E-01   -0.71221E-01  8672   0.406E+00    0.108E+00
RMM:   2    -0.763280450141E+02    0.53782E-02   -0.42511E-02  7690   0.795E-01    0.391E-01
RMM:   3    -0.763258156077E+02    0.22294E-02   -0.28577E-03  6404   0.389E-01    0.218E-01
RMM:   4    -0.763255933926E+02    0.22222E-03   -0.11950E-03  5468   0.158E-01
  17 F= -.76325593E+02 E0= -.76325593E+02  d E =-.116354E-01  mag=    -0.0000
 trial-energy change:   -0.011635  1 .order   -0.014556   -0.026362   -0.002750
 step:   0.9332(harm=  0.9332)  dis= 0.01397  next Energy=   -76.328674 (dE=-0.147E-01)
 bond charge predicted
       N       E                     dE             d eps       ncg     rms          rms(c)
DAV:   1    -0.763256386557E+02    0.17695E-03   -0.87633E-03 10368   0.488E-01    0.122E-01
RMM:   2    -0.763255708688E+02    0.67787E-04   -0.55906E-04  3802   0.982E-02
  18 F= -.76325571E+02 E0= -.76325571E+02  d E =-.116128E-01  mag=    -0.0000
 curvature:  -0.76 expect dE=-0.176E-01 dE for cont linesearch -0.647E-04
 trial: gam= 0.79100 g(F)=  0.193E-01 g(S)=  0.382E-02 ort =-0.209E-02 (trialstep = 0.847E+00)
 search vector abs. value=  0.521E-01
 bond charge predicted
       N       E                     dE             d eps       ncg     rms          rms(c)
DAV:   1    -0.763452136253E+02   -0.19575E-01   -0.62919E-01  7360   0.325E+00    0.617E-01
RMM:   2    -0.763418747831E+02    0.33388E-02   -0.28801E-02  7734   0.732E-01    0.303E-01
RMM:   3    -0.763406001710E+02    0.12746E-02   -0.20492E-03  6126   0.381E-01    0.276E-01
RMM:   4    -0.763403120965E+02    0.28807E-03   -0.58889E-04  5190   0.129E-01
  19 F= -.76340312E+02 E0= -.76340312E+02  d E =-.147412E-01  mag=    -0.0000
 trial-energy change:   -0.014741  1 .order   -0.015811   -0.018187   -0.013435
 step:   3.2403(harm=  3.2403)  dis= 0.03641  next Energy=   -76.360373 (dE=-0.348E-01)
 bond charge predicted
       N       E                     dE             d eps       ncg     rms          rms(c)
DAV:   1    -0.763879070322E+02   -0.47307E-01   -0.49709E+00  7776   0.913E+00    0.175E+00
RMM:   2    -0.763637055145E+02    0.24202E-01   -0.22747E-01  7802   0.204E+00    0.903E-01
RMM:   3    -0.763541298352E+02    0.95757E-02   -0.16456E-02  7354   0.103E+00    0.635E-01
RMM:   4    -0.763512090645E+02    0.29208E-02   -0.46243E-03  6900   0.365E-01    0.395E-01
RMM:   5    -0.763507867558E+02    0.42231E-03   -0.18686E-03  6266   0.296E-01
  20 F= -.76350787E+02 E0= -.76350787E+02  d E =-.252159E-01  mag=     0.0000
 curvature:  -3.93 expect dE=-0.556E+00 dE for cont linesearch -0.783E-03
 trial: gam= 6.07616 g(F)=  0.135E+00 g(S)=  0.618E-02 ort =-0.322E-02 (trialstep = 0.341E-01)
 search vector abs. value=  0.203E+01
 bond charge predicted
       N       E                     dE             d eps       ncg     rms          rms(c)
DAV:   1    -0.763549416219E+02   -0.37326E-02   -0.37171E-02  9888   0.785E-01    0.109E-01
RMM:   2    -0.763547237416E+02    0.21788E-03   -0.11671E-03  4174   0.151E-01
  21 F= -.76354724E+02 E0= -.76354724E+02  d E =-.393699E-02  mag=    -0.0000
 ZBRENT: can't locate minimum, use default step
 trial-energy change:   -0.003937  1 .order   -0.004004   -0.004157   -0.003851
 step:   0.1363(harm=  0.4639)  dis= 0.01109  next Energy=   -76.379076 (dE=-0.283E-01)
 bond charge predicted
       N       E                     dE             d eps       ncg     rms          rms(c)
DAV:   1    -0.763686034007E+02   -0.13662E-01   -0.35190E-01  7552   0.234E+00    0.405E-01
RMM:   2    -0.763662915038E+02    0.23119E-02   -0.12206E-02  7404   0.484E-01    0.233E-01
RMM:   3    -0.763655255400E+02    0.76596E-03   -0.11104E-03  5014   0.312E-01
  22 F= -.76365526E+02 E0= -.76365526E+02  d E =-.147388E-01  mag=    -0.0000
 curvature:  -1.61 expect dE=-0.205E+00 dE for cont linesearch -0.111E-01
 ZBRENT: increasing intervall
 opt :   0.3408  next Energy=   -76.390690 (dE=-0.399E-01)
 bond charge predicted
       N       E                     dE             d eps       ncg     rms          rms(c)
DAV:   1    -0.763963899541E+02   -0.30098E-01   -0.13917E+00  8000   0.464E+00    0.761E-01
RMM:   2    -0.763874715272E+02    0.89184E-02   -0.49152E-02  7626   0.946E-01    0.516E-01
RMM:   3    -0.763846446395E+02    0.28269E-02   -0.43057E-03  6958   0.551E-01    0.448E-01
RMM:   4    -0.763838617747E+02    0.78286E-03   -0.14044E-03  6042   0.189E-01
  23 F= -.76383862E+02 E0= -.76383862E+02  d E =-.330750E-01  mag=    -0.0000
 curvature:  -3.66 expect dE=-0.389E+00 dE for cont linesearch -0.168E-01
 ZBRENT: increasing intervall
 opt :   0.7499  next Energy=   -76.414523 (dE=-0.637E-01)
 bond charge predicted
       N       E                     dE             d eps       ncg     rms          rms(c)
DAV:   1    -0.764487224261E+02   -0.64078E-01   -0.55447E+00  7488   0.925E+00    0.151E+00
RMM:   2    -0.764203861717E+02    0.28336E-01   -0.18923E-01  7634   0.185E+00    0.916E-01
RMM:   3    -0.764109652732E+02    0.94209E-02   -0.17268E-02  7304   0.113E+00    0.798E-01
RMM:   4    -0.764086684535E+02    0.22968E-02   -0.42888E-03  6840   0.325E-01    0.453E-01
RMM:   5    -0.764078512132E+02    0.81724E-03   -0.22650E-03  6454   0.314E-01
  24 F= -.76407851E+02 E0= -.76407851E+02  d E =-.570645E-01  mag=     0.0000
 curvature:  -6.67 expect dE=-0.542E+00 dE for cont linesearch -0.759E-02
 trial: gam=-0.07335 g(F)=  0.788E-01 g(S)=  0.244E-02 ort = 0.480E-01 (trialstep = 0.177E+00)
 search vector abs. value=  0.851E-01
 bond charge predicted
       N       E                     dE             d eps       ncg     rms          rms(c)
DAV:   1    -0.764189900433E+02   -0.10322E-01   -0.71857E-02  9952   0.132E+00    0.157E-01
RMM:   2    -0.764194710844E+02   -0.48104E-03   -0.63603E-03  6482   0.283E-01
  25 F= -.76419471E+02 E0= -.76419471E+02  d E =-.116199E-01  mag=    -0.0000
 trial-energy change:   -0.011620  1 .order   -0.011407   -0.013781   -0.009033
 step:   0.5143(harm=  0.5143)  dis= 0.01258  next Energy=   -76.427848 (dE=-0.200E-01)
 bond charge predicted
       N       E                     dE             d eps       ncg     rms          rms(c)
DAV:   1    -0.764266798752E+02   -0.76898E-02   -0.26043E-01  9024   0.247E+00    0.257E-01
RMM:   2    -0.764278327137E+02   -0.11528E-02   -0.18696E-02  6992   0.485E-01    0.171E-01
RMM:   3    -0.764273694769E+02    0.46324E-03   -0.63990E-04  4240   0.200E-01
  26 F= -.76427369E+02 E0= -.76427369E+02  d E =-.195183E-01  mag=     0.0000
 curvature:  -0.28 expect dE=-0.529E-02 dE for cont linesearch -0.302E-04
 trial: gam= 0.23911 g(F)=  0.160E-01 g(S)=  0.281E-02 ort =-0.302E-02 (trialstep = 0.245E+00)
 search vector abs. value=  0.222E-01
 bond charge predicted
       N       E                     dE             d eps       ncg     rms          rms(c)
DAV:   1    -0.764313637473E+02   -0.35310E-02   -0.26902E-02  9568   0.745E-01    0.158E-01
RMM:   2    -0.764312223600E+02    0.14139E-03   -0.16520E-03  4156   0.172E-01
  27 F= -.76431222E+02 E0= -.76431222E+02  d E =-.385288E-02  mag=     0.0000
 trial-energy change:   -0.003853  1 .order   -0.003806   -0.004422   -0.003189
 step:   0.8773(harm=  0.8773)  dis= 0.00946  next Energy=   -76.435298 (dE=-0.793E-02)
 bond charge predicted
       N       E                     dE             d eps       ncg     rms          rms(c)
DAV:   1    -0.764370707166E+02   -0.57070E-02   -0.18385E-01  7328   0.193E+00    0.460E-01
RMM:   2    -0.764360235112E+02    0.10472E-02   -0.11818E-02  7316   0.436E-01    0.209E-01
RMM:   3    -0.764356650513E+02    0.35846E-03   -0.76215E-04  4006   0.285E-01
  28 F= -.76435665E+02 E0= -.76435665E+02  d E =-.829557E-02  mag=     0.0000
 curvature:  -0.54 expect dE=-0.771E-02 dE for cont linesearch -0.935E-04
 trial: gam= 0.58714 g(F)=  0.109E-01 g(S)=  0.342E-02 ort = 0.196E-02 (trialstep = 0.340E+00)
 search vector abs. value=  0.243E-01
 reached required accuracy - stopping structural energy minimisation
