  18  18   1   0
  0.8626321E+01  0.6237528E-09  0.5045523E-09  0.5173798E-09  0.5000000E-15
  1.000000000000000E-004
  CAR 
 unknown system                          
     14.26171112    -36.55546084  301     -0.39057346      1.00000000
    -36.555  0.0000E+00  0.0000E+00  0.0000E+00  0.0000E+00
    -36.386  0.0000E+00  0.0000E+00  0.0000E+00  0.0000E+00
    -36.217  0.0000E+00  0.0000E+00  0.0000E+00  0.0000E+00
    -36.047  0.0000E+00  0.0000E+00  0.0000E+00  0.0000E+00
    -35.878  0.0000E+00  0.0000E+00  0.0000E+00  0.0000E+00
    -35.709  0.0000E+00  0.0000E+00  0.0000E+00  0.0000E+00
    -35.539  0.0000E+00  0.0000E+00  0.0000E+00  0.0000E+00
    -35.370  0.0000E+00  0.0000E+00  0.0000E+00  0.0000E+00
    -35.200  0.0000E+00  0.0000E+00  0.0000E+00  0.0000E+00
    -35.031  0.0000E+00  0.0000E+00  0.0000E+00  0.0000E+00
    -34.862  0.0000E+00  0.0000E+00  0.0000E+00  0.0000E+00
    -34.692  0.0000E+00  0.0000E+00  0.0000E+00  0.0000E+00
    -34.523  0.0000E+00  0.0000E+00  0.0000E+00  0.0000E+00
    -34.353  0.0000E+00  0.0000E+00  0.0000E+00  0.0000E+00
    -34.184  0.0000E+00  0.0000E+00  0.1010E-01  0.1010E-01
    -34.015  0.0000E+00  0.0000E+00  0.2020E-01  0.2020E-01
    -33.845  0.0000E+00  0.0000E+00  0.2020E-01  0.2020E-01
    -33.676  0.0000E+00  0.0000E+00  0.2020E-01  0.2020E-01
    -33.506  0.0000E+00  0.0000E+00  0.2020E-01  0.2020E-01
    -33.337  0.0000E+00  0.0000E+00  0.2020E-01  0.2020E-01
    -33.168  0.0000E+00  0.0000E+00  0.2020E-01  0.2020E-01
    -32.998  0.0000E+00  0.0000E+00  0.2020E-01  0.2020E-01
    -32.829  0.0000E+00  0.0000E+00  0.2020E-01  0.2020E-01
    -32.659  0.0000E+00  0.0000E+00  0.2020E-01  0.2020E-01
    -32.490  0.0000E+00  0.0000E+00  0.2020E-01  0.2020E-01
    -32.321  0.0000E+00  0.0000E+00  0.2020E-01  0.2020E-01
    -32.151  0.0000E+00  0.0000E+00  0.2020E-01  0.2020E-01
    -31.982  0.0000E+00  0.0000E+00  0.2020E-01  0.2020E-01
    -31.813  0.0000E+00  0.0000E+00  0.2020E-01  0.2020E-01
    -31.643  0.0000E+00  0.0000E+00  0.2020E-01  0.2020E-01
    -31.474  0.0000E+00  0.0000E+00  0.2020E-01  0.2020E-01
    -31.304  0.0000E+00  0.0000E+00  0.2020E-01  0.2020E-01
    -31.135  0.0000E+00  0.0000E+00  0.2020E-01  0.2020E-01
    -30.966  0.0000E+00  0.0000E+00  0.2020E-01  0.2020E-01
    -30.796  0.0000E+00  0.0000E+00  0.2020E-01  0.2020E-01
    -30.627  0.0000E+00  0.0000E+00  0.2020E-01  0.2020E-01
    -30.457  0.0000E+00  0.0000E+00  0.2020E-01  0.2020E-01
    -30.288  0.0000E+00  0.0000E+00  0.2020E-01  0.2020E-01
    -30.119  0.0000E+00  0.0000E+00  0.2020E-01  0.2020E-01
    -29.949  0.0000E+00  0.0000E+00  0.2020E-01  0.2020E-01
    -29.780  0.0000E+00  0.0000E+00  0.2020E-01  0.2020E-01
    -29.610  0.0000E+00  0.0000E+00  0.2020E-01  0.2020E-01
    -29.441  0.0000E+00  0.0000E+00  0.3030E-01  0.3030E-01
    -29.272  0.0000E+00  0.0000E+00  0.5051E-01  0.5051E-01
    -29.102  0.0000E+00  0.0000E+00  0.5051E-01  0.5051E-01
    -28.933  0.0000E+00  0.0000E+00  0.5051E-01  0.5051E-01
    -28.763  0.0000E+00  0.0000E+00  0.5051E-01  0.5051E-01
    -28.594  0.0000E+00  0.0000E+00  0.5051E-01  0.5051E-01
    -28.425  0.0000E+00  0.0000E+00  0.5051E-01  0.5051E-01
    -28.255  0.0000E+00  0.0000E+00  0.5051E-01  0.5051E-01
    -28.086  0.0000E+00  0.0000E+00  0.5051E-01  0.5051E-01
    -27.917  0.0000E+00  0.0000E+00  0.5051E-01  0.5051E-01
    -27.747  0.0000E+00  0.0000E+00  0.5051E-01  0.5051E-01
    -27.578  0.0000E+00  0.0000E+00  0.5051E-01  0.5051E-01
    -27.408  0.0000E+00  0.0000E+00  0.5051E-01  0.5051E-01
    -27.239  0.0000E+00  0.0000E+00  0.5051E-01  0.5051E-01
    -27.070  0.0000E+00  0.0000E+00  0.5051E-01  0.5051E-01
    -26.900  0.0000E+00  0.0000E+00  0.5051E-01  0.5051E-01
    -26.731  0.0000E+00  0.0000E+00  0.5051E-01  0.5051E-01
    -26.561  0.0000E+00  0.0000E+00  0.5051E-01  0.5051E-01
    -26.392  0.0000E+00  0.0000E+00  0.5051E-01  0.5051E-01
    -26.223  0.0000E+00  0.0000E+00  0.5051E-01  0.5051E-01
    -26.053  0.0000E+00  0.0000E+00  0.5051E-01  0.5051E-01
    -25.884  0.0000E+00  0.0000E+00  0.5051E-01  0.5051E-01
    -25.714  0.0000E+00  0.0000E+00  0.5051E-01  0.5051E-01
    -25.545  0.0000E+00  0.0000E+00  0.5051E-01  0.5051E-01
    -25.376  0.0000E+00  0.0000E+00  0.5051E-01  0.5051E-01
    -25.206  0.0000E+00  0.0000E+00  0.5051E-01  0.5051E-01
    -25.037  0.0000E+00  0.0000E+00  0.5051E-01  0.5051E-01
    -24.868  0.0000E+00  0.0000E+00  0.5051E-01  0.5051E-01
    -24.698  0.0000E+00  0.0000E+00  0.5051E-01  0.5051E-01
    -24.529  0.0000E+00  0.0000E+00  0.5051E-01  0.5051E-01
    -24.359  0.0000E+00  0.0000E+00  0.5051E-01  0.5051E-01
    -24.190  0.0000E+00  0.0000E+00  0.5051E-01  0.5051E-01
    -24.021  0.0000E+00  0.0000E+00  0.5051E-01  0.5051E-01
    -23.851  0.0000E+00  0.0000E+00  0.5051E-01  0.5051E-01
    -23.682  0.0000E+00  0.0000E+00  0.5051E-01  0.5051E-01
    -23.512  0.0000E+00  0.0000E+00  0.5051E-01  0.5051E-01
    -23.343  0.0000E+00  0.0000E+00  0.5051E-01  0.5051E-01
    -23.174  0.0000E+00  0.0000E+00  0.5051E-01  0.5051E-01
    -23.004  0.0000E+00  0.0000E+00  0.5051E-01  0.5051E-01
    -22.835  0.0000E+00  0.0000E+00  0.5051E-01  0.5051E-01
    -22.665  0.0000E+00  0.0000E+00  0.5051E-01  0.5051E-01
    -22.496  0.0000E+00  0.0000E+00  0.5051E-01  0.5051E-01
    -22.327  0.0000E+00  0.0000E+00  0.5051E-01  0.5051E-01
    -22.157  0.0000E+00  0.0000E+00  0.5051E-01  0.5051E-01
    -21.988  0.0000E+00  0.0000E+00  0.5051E-01  0.5051E-01
    -21.818  0.0000E+00  0.0000E+00  0.5051E-01  0.5051E-01
    -21.649  0.0000E+00  0.0000E+00  0.5051E-01  0.5051E-01
    -21.480  0.0000E+00  0.0000E+00  0.5051E-01  0.5051E-01
    -21.310  0.0000E+00  0.0000E+00  0.5051E-01  0.5051E-01
    -21.141  0.0000E+00  0.0000E+00  0.5051E-01  0.5051E-01
    -20.972  0.0000E+00  0.0000E+00  0.5051E-01  0.5051E-01
    -20.802  0.0000E+00  0.0000E+00  0.5051E-01  0.5051E-01
    -20.633  0.0000E+00  0.0000E+00  0.5051E-01  0.5051E-01
    -20.463  0.0000E+00  0.0000E+00  0.5051E-01  0.5051E-01
    -20.294  0.0000E+00  0.0000E+00  0.5051E-01  0.5051E-01
    -20.125  0.0000E+00  0.0000E+00  0.5051E-01  0.5051E-01
    -19.955  0.0000E+00  0.0000E+00  0.5051E-01  0.5051E-01
    -19.786  0.0000E+00  0.0000E+00  0.5051E-01  0.5051E-01
    -19.616  0.0000E+00  0.0000E+00  0.5051E-01  0.5051E-01
    -19.447  0.0000E+00  0.0000E+00  0.5051E-01  0.5051E-01
    -19.278  0.0000E+00  0.0000E+00  0.5051E-01  0.5051E-01
    -19.108  0.0000E+00  0.0000E+00  0.5051E-01  0.5051E-01
    -18.939  0.0000E+00  0.0000E+00  0.5051E-01  0.5051E-01
    -18.769  0.0000E+00  0.0000E+00  0.5051E-01  0.5051E-01
    -18.600  0.0000E+00  0.0000E+00  0.5051E-01  0.5051E-01
    -18.431  0.0000E+00  0.0000E+00  0.5051E-01  0.5051E-01
    -18.261  0.0000E+00  0.0000E+00  0.5051E-01  0.5051E-01
    -18.092  0.0000E+00  0.0000E+00  0.5051E-01  0.5051E-01
    -17.922  0.0000E+00  0.0000E+00  0.5051E-01  0.5051E-01
    -17.753  0.0000E+00  0.0000E+00  0.5051E-01  0.5051E-01
    -17.584  0.0000E+00  0.0000E+00  0.5051E-01  0.5051E-01
    -17.414  0.0000E+00  0.0000E+00  0.5051E-01  0.5051E-01
    -17.245  0.0000E+00  0.0000E+00  0.5051E-01  0.5051E-01
    -17.076  0.0000E+00  0.0000E+00  0.5051E-01  0.5051E-01
    -16.906  0.0000E+00  0.0000E+00  0.5051E-01  0.5051E-01
    -16.737  0.0000E+00  0.0000E+00  0.5051E-01  0.5051E-01
    -16.567  0.0000E+00  0.0000E+00  0.5051E-01  0.5051E-01
    -16.398  0.0000E+00  0.0000E+00  0.5051E-01  0.5051E-01
    -16.229  0.0000E+00  0.0000E+00  0.8081E-01  0.8081E-01
    -16.059  0.0000E+00  0.0000E+00  0.1111E+00  0.1111E+00
    -15.890  0.0000E+00  0.0000E+00  0.1111E+00  0.1111E+00
    -15.720  0.0000E+00  0.0000E+00  0.1111E+00  0.1111E+00
    -15.551  0.0000E+00  0.0000E+00  0.1111E+00  0.1111E+00
    -15.382  0.0000E+00  0.0000E+00  0.1111E+00  0.1111E+00
    -15.212  0.0000E+00  0.0000E+00  0.1111E+00  0.1111E+00
    -15.043  0.0000E+00  0.0000E+00  0.1111E+00  0.1111E+00
    -14.873  0.0000E+00  0.0000E+00  0.1111E+00  0.1111E+00
    -14.704  0.0000E+00  0.0000E+00  0.1111E+00  0.1111E+00
    -14.535  0.0000E+00  0.0000E+00  0.1111E+00  0.1111E+00
    -14.365  0.0000E+00  0.0000E+00  0.1111E+00  0.1111E+00
    -14.196  0.0000E+00  0.0000E+00  0.1111E+00  0.1111E+00
    -14.027  0.0000E+00  0.0000E+00  0.1111E+00  0.1111E+00
    -13.857  0.0000E+00  0.0000E+00  0.1111E+00  0.1111E+00
    -13.688  0.0000E+00  0.0000E+00  0.1111E+00  0.1111E+00
    -13.518  0.0000E+00  0.0000E+00  0.1111E+00  0.1111E+00
    -13.349  0.0000E+00  0.0000E+00  0.1111E+00  0.1111E+00
    -13.180  0.0000E+00  0.0000E+00  0.1111E+00  0.1111E+00
    -13.010  0.0000E+00  0.0000E+00  0.1111E+00  0.1111E+00
    -12.841  0.0000E+00  0.0000E+00  0.1111E+00  0.1111E+00
    -12.671  0.0000E+00  0.0000E+00  0.1111E+00  0.1111E+00
    -12.502  0.0000E+00  0.0000E+00  0.1111E+00  0.1111E+00
    -12.333  0.0000E+00  0.0000E+00  0.1111E+00  0.1111E+00
    -12.163  0.0000E+00  0.0000E+00  0.1111E+00  0.1111E+00
    -11.994  0.0000E+00  0.0000E+00  0.1111E+00  0.1111E+00
    -11.824  0.0000E+00  0.0000E+00  0.1111E+00  0.1111E+00
    -11.655  0.0000E+00  0.0000E+00  0.1111E+00  0.1111E+00
    -11.486  0.0000E+00  0.0000E+00  0.1111E+00  0.1111E+00
    -11.316  0.0000E+00  0.0000E+00  0.1111E+00  0.1111E+00
    -11.147  0.0000E+00  0.0000E+00  0.1111E+00  0.1111E+00
    -10.977  0.0000E+00  0.0000E+00  0.1111E+00  0.1111E+00
    -10.808  0.0000E+00  0.0000E+00  0.1111E+00  0.1111E+00
    -10.639  0.0000E+00  0.0000E+00  0.1111E+00  0.1111E+00
    -10.469  0.0000E+00  0.0000E+00  0.1111E+00  0.1111E+00
    -10.300  0.0000E+00  0.0000E+00  0.1111E+00  0.1111E+00
    -10.131  0.0000E+00  0.0000E+00  0.1111E+00  0.1111E+00
     -9.961  0.0000E+00  0.0000E+00  0.1111E+00  0.1111E+00
     -9.792  0.0000E+00  0.0000E+00  0.1111E+00  0.1111E+00
     -9.622  0.0000E+00  0.0000E+00  0.1111E+00  0.1111E+00
     -9.453  0.0000E+00  0.0000E+00  0.1111E+00  0.1111E+00
     -9.284  0.0000E+00  0.0000E+00  0.1111E+00  0.1111E+00
     -9.114  0.0000E+00  0.0000E+00  0.1111E+00  0.1111E+00
     -8.945  0.0000E+00  0.0000E+00  0.1111E+00  0.1111E+00
     -8.775  0.0000E+00  0.0000E+00  0.1111E+00  0.1111E+00
     -8.606  0.0000E+00  0.0000E+00  0.1111E+00  0.1111E+00
     -8.437  0.9225E-06  0.9227E-06  0.1111E+00  0.1111E+00
     -8.267  0.5331E-02  0.5331E-02  0.1114E+00  0.1114E+00
     -8.098  0.1592E-01  0.1592E-01  0.1132E+00  0.1132E+00
     -7.928  0.3167E-01  0.3167E-01  0.1171E+00  0.1171E+00
     -7.759  0.1165E-01  0.1165E-01  0.1209E+00  0.1209E+00
     -7.590  0.0000E+00  0.0000E+00  0.1212E+00  0.1212E+00
     -7.420  0.0000E+00  0.0000E+00  0.1212E+00  0.1212E+00
     -7.251  0.5229E-02  0.5229E-02  0.1214E+00  0.1214E+00
     -7.082  0.5941E-01  0.5941E-01  0.1259E+00  0.1259E+00
     -6.912  0.9625E-02  0.9625E-02  0.1312E+00  0.1312E+00
     -6.743  0.0000E+00  0.0000E+00  0.1313E+00  0.1313E+00
     -6.573  0.0000E+00  0.0000E+00  0.1313E+00  0.1313E+00
     -6.404  0.0000E+00  0.0000E+00  0.1313E+00  0.1313E+00
     -6.235  0.0000E+00  0.0000E+00  0.1313E+00  0.1313E+00
     -6.065  0.9895E-02  0.9895E-02  0.1318E+00  0.1318E+00
     -5.896  0.3686E-01  0.3686E-01  0.1362E+00  0.1362E+00
     -5.726  0.1623E-01  0.1623E-01  0.1401E+00  0.1401E+00
     -5.557  0.3851E-04  0.3851E-04  0.1414E+00  0.1414E+00
     -5.388  0.0000E+00  0.0000E+00  0.1414E+00  0.1414E+00
     -5.218  0.0000E+00  0.0000E+00  0.1414E+00  0.1414E+00
     -5.049  0.0000E+00  0.0000E+00  0.1414E+00  0.1414E+00
     -4.879  0.0000E+00  0.0000E+00  0.1414E+00  0.1414E+00
     -4.710  0.0000E+00  0.0000E+00  0.1414E+00  0.1414E+00
     -4.541  0.9636E-03  0.9636E-03  0.1414E+00  0.1414E+00
     -4.371  0.1892E-01  0.1892E-01  0.1429E+00  0.1429E+00
     -4.202  0.2702E-01  0.2702E-01  0.1475E+00  0.1475E+00
     -4.032  0.1032E-01  0.1032E-01  0.1503E+00  0.1503E+00
     -3.863  0.2782E-02  0.2782E-02  0.1514E+00  0.1514E+00
     -3.694  0.0000E+00  0.0000E+00  0.1515E+00  0.1515E+00
     -3.524  0.0000E+00  0.0000E+00  0.1515E+00  0.1515E+00
     -3.355  0.0000E+00  0.0000E+00  0.1515E+00  0.1515E+00
     -3.186  0.9669E-03  0.9670E-03  0.1515E+00  0.1515E+00
     -3.016  0.1854E-01  0.1854E-01  0.1530E+00  0.1530E+00
     -2.847  0.1583E-01  0.1583E-01  0.1559E+00  0.1559E+00
     -2.677  0.3173E-01  0.3173E-01  0.1592E+00  0.1592E+00
     -2.508  0.7528E-01  0.7528E-01  0.1674E+00  0.1674E+00
     -2.339  0.5827E-01  0.5827E-01  0.1746E+00  0.1746E+00
     -2.169  0.4576E-01  0.4577E-01  0.1828E+00  0.1828E+00
     -2.000  0.2594E-01  0.2594E-01  0.1922E+00  0.1922E+00
     -1.830  0.2317E-01  0.2317E-01  0.2001E+00  0.2001E+00
     -1.661  0.3667E-02  0.3667E-02  0.2020E+00  0.2020E+00
     -1.492  0.3091E-01  0.3091E-01  0.2046E+00  0.2046E+00
     -1.322  0.5774E-01  0.5774E-01  0.2127E+00  0.2127E+00
     -1.153  0.2683E-01  0.2683E-01  0.2193E+00  0.2193E+00
     -0.983  0.5346E-02  0.5346E-02  0.2219E+00  0.2219E+00
     -0.814  0.3592E-03  0.3592E-03  0.2222E+00  0.2222E+00
     -0.645  0.4694E-01  0.4694E-01  0.2252E+00  0.2252E+00
     -0.475  0.1876E-01  0.1876E-01  0.2318E+00  0.2318E+00
     -0.306  0.0000E+00  0.0000E+00  0.2323E+00  0.2323E+00
     -0.136  0.0000E+00  0.0000E+00  0.2323E+00  0.2323E+00
      0.033  0.0000E+00  0.0000E+00  0.2323E+00  0.2323E+00
      0.202  0.0000E+00  0.0000E+00  0.2323E+00  0.2323E+00
      0.372  0.0000E+00  0.0000E+00  0.2323E+00  0.2323E+00
      0.541  0.0000E+00  0.0000E+00  0.2323E+00  0.2323E+00
      0.710  0.0000E+00  0.0000E+00  0.2323E+00  0.2323E+00
      0.880  0.0000E+00  0.0000E+00  0.2323E+00  0.2323E+00
      1.049  0.0000E+00  0.0000E+00  0.2323E+00  0.2323E+00
      1.219  0.0000E+00  0.0000E+00  0.2323E+00  0.2323E+00
      1.388  0.0000E+00  0.0000E+00  0.2323E+00  0.2323E+00
      1.557  0.0000E+00  0.0000E+00  0.2323E+00  0.2323E+00
      1.727  0.0000E+00  0.0000E+00  0.2323E+00  0.2323E+00
      1.896  0.0000E+00  0.0000E+00  0.2323E+00  0.2323E+00
      2.066  0.0000E+00  0.0000E+00  0.2323E+00  0.2323E+00
      2.235  0.0000E+00  0.0000E+00  0.2323E+00  0.2323E+00
      2.404  0.0000E+00  0.0000E+00  0.2323E+00  0.2323E+00
      2.574  0.0000E+00  0.0000E+00  0.2323E+00  0.2323E+00
      2.743  0.0000E+00  0.0000E+00  0.2323E+00  0.2323E+00
      2.913  0.7985E-04  0.7984E-04  0.2323E+00  0.2323E+00
      3.082  0.4809E-01  0.4809E-01  0.2361E+00  0.2361E+00
      3.251  0.2402E-01  0.2402E-01  0.2411E+00  0.2411E+00
      3.421  0.2592E-01  0.2592E-01  0.2437E+00  0.2437E+00
      3.590  0.2305E-01  0.2305E-01  0.2486E+00  0.2486E+00
      3.759  0.1224E-01  0.1224E-01  0.2520E+00  0.2520E+00
      3.929  0.8035E-02  0.8035E-02  0.2528E+00  0.2528E+00
      4.098  0.6546E-01  0.6545E-01  0.2577E+00  0.2577E+00
      4.268  0.3512E-02  0.3512E-02  0.2626E+00  0.2626E+00
      4.437  0.6124E-01  0.6124E-01  0.2676E+00  0.2676E+00
      4.606  0.2320E-02  0.2320E-02  0.2727E+00  0.2727E+00
      4.776  0.5533E-01  0.5533E-01  0.2760E+00  0.2760E+00
      4.945  0.1316E-01  0.1316E-01  0.2825E+00  0.2825E+00
      5.115  0.5883E-01  0.5883E-01  0.2891E+00  0.2891E+00
      5.284  0.1818E-01  0.1818E-01  0.2937E+00  0.2937E+00
      5.453  0.5219E-01  0.5219E-01  0.2999E+00  0.2999E+00
      5.623  0.2872E-01  0.2872E-01  0.3059E+00  0.3059E+00
      5.792  0.3197E-01  0.3197E-01  0.3116E+00  0.3116E+00
      5.962  0.4879E-01  0.4879E-01  0.3174E+00  0.3174E+00
      6.131  0.2619E-01  0.2619E-01  0.3225E+00  0.3225E+00
      6.300  0.3423E-01  0.3423E-01  0.3291E+00  0.3291E+00
      6.470  0.2473E-01  0.2473E-01  0.3342E+00  0.3342E+00
      6.639  0.3222E-01  0.3222E-01  0.3421E+00  0.3421E+00
      6.809  0.5288E-01  0.5288E-01  0.3472E+00  0.3472E+00
      6.978  0.1217E-01  0.1217E-01  0.3535E+00  0.3535E+00
      7.147  0.5568E-01  0.5568E-01  0.3594E+00  0.3594E+00
      7.317  0.3387E-01  0.3387E-01  0.3653E+00  0.3653E+00
      7.486  0.1965E-01  0.1965E-01  0.3732E+00  0.3732E+00
      7.655  0.4595E-01  0.4595E-01  0.3775E+00  0.3775E+00
      7.825  0.3110E-01  0.3110E-01  0.3847E+00  0.3847E+00
      7.994  0.4494E-01  0.4494E-01  0.3915E+00  0.3915E+00
      8.164  0.4590E-01  0.4590E-01  0.3973E+00  0.3973E+00
      8.333  0.1519E-01  0.1519E-01  0.4033E+00  0.4033E+00
      8.502  0.4890E-01  0.4890E-01  0.4088E+00  0.4088E+00
      8.672  0.7618E-02  0.7618E-02  0.4141E+00  0.4141E+00
      8.841  0.3671E-01  0.3671E-01  0.4171E+00  0.4171E+00
      9.011  0.2496E-01  0.2496E-01  0.4236E+00  0.4236E+00
      9.180  0.1434E-01  0.1434E-01  0.4256E+00  0.4256E+00
      9.349  0.3868E-01  0.3868E-01  0.4297E+00  0.4297E+00
      9.519  0.1157E-01  0.1157E-01  0.4348E+00  0.4348E+00
      9.688  0.3481E-01  0.3481E-01  0.4380E+00  0.4380E+00
      9.858  0.1557E-01  0.1557E-01  0.4435E+00  0.4435E+00
     10.027  0.2419E-01  0.2419E-01  0.4461E+00  0.4461E+00
     10.196  0.2332E-01  0.2332E-01  0.4506E+00  0.4506E+00
     10.366  0.2277E-01  0.2277E-01  0.4544E+00  0.4544E+00
     10.535  0.3560E-01  0.3560E-01  0.4591E+00  0.4591E+00
     10.705  0.2093E-01  0.2093E-01  0.4640E+00  0.4640E+00
     10.874  0.2271E-01  0.2271E-01  0.4673E+00  0.4673E+00
     11.043  0.1971E-01  0.1971E-01  0.4708E+00  0.4708E+00
     11.213  0.1032E-01  0.1032E-01  0.4740E+00  0.4740E+00
     11.382  0.1500E-01  0.1500E-01  0.4761E+00  0.4761E+00
     11.551  0.1949E-01  0.1949E-01  0.4791E+00  0.4791E+00
     11.721  0.1968E-01  0.1968E-01  0.4830E+00  0.4830E+00
     11.890  0.3941E-02  0.3941E-02  0.4848E+00  0.4848E+00
     12.060  0.0000E+00  0.0000E+00  0.4848E+00  0.4848E+00
     12.229  0.0000E+00  0.0000E+00  0.4848E+00  0.4848E+00
     12.398  0.0000E+00  0.0000E+00  0.4848E+00  0.4848E+00
     12.568  0.0000E+00  0.0000E+00  0.4848E+00  0.4848E+00
     12.737  0.0000E+00  0.0000E+00  0.4848E+00  0.4848E+00
     12.907  0.0000E+00  0.0000E+00  0.4848E+00  0.4848E+00
     13.076  0.0000E+00  0.0000E+00  0.4848E+00  0.4848E+00
     13.245  0.0000E+00  0.0000E+00  0.4848E+00  0.4848E+00
     13.415  0.0000E+00  0.0000E+00  0.4848E+00  0.4848E+00
     13.584  0.0000E+00  0.0000E+00  0.4848E+00  0.4848E+00
     13.754  0.0000E+00  0.0000E+00  0.4848E+00  0.4848E+00
     13.923  0.0000E+00  0.0000E+00  0.4848E+00  0.4848E+00
     14.092  0.0000E+00  0.0000E+00  0.4848E+00  0.4848E+00
     14.262  0.0000E+00  0.0000E+00  0.4848E+00  0.4848E+00
     14.26171112    -36.55546084  301     -0.39057346      1.00000000
    -36.555  0.0000E+00  0.0000E+00  0.0000E+00  0.0000E+00  0.0000E+00  0.0000E+00  0.0000E+00  0.0000E+00  0.0000E+00  0.0000E+00  0.0000E+00  0.0000E+00  0.0000E+00  0.0000E+00  0.0000E+00  0.0000E+00  0.0000E+00  0.0000E+00
    -36.386  0.0000E+00  0.0000E+00  0.0000E+00  0.0000E+00  0.0000E+00  0.0000E+00  0.0000E+00  0.0000E+00  0.0000E+00  0.0000E+00  0.0000E+00  0.0000E+00  0.0000E+00  0.0000E+00  0.0000E+00  0.0000E+00  0.0000E+00  0.0000E+00
    -36.217  0.0000E+00  0.0000E+00  0.0000E+00  0.0000E+00  0.0000E+00  0.0000E+00  0.0000E+00  0.0000E+00  0.0000E+00  0.0000E+00  0.0000E+00  0.0000E+00  0.0000E+00  0.0000E+00  0.0000E+00  0.0000E+00  0.0000E+00  0.0000E+00
    -36.047  0.0000E+00  0.0000E+00  0.0000E+00  0.0000E+00  0.0000E+00  0.0000E+00  0.0000E+00  0.0000E+00  0.0000E+00  0.0000E+00  0.0000E+00  0.0000E+00  0.0000E+00  0.0000E+00  0.0000E+00  0.0000E+00  0.0000E+00  0.0000E+00
    -35.878  0.0000E+00  0.0000E+00  0.0000E+00  0.0000E+00  0.0000E+00  0.0000E+00  0.0000E+00  0.0000E+00  0.0000E+00  0.0000E+00  0.0000E+00  0.0000E+00  0.0000E+00  0.0000E+00  0.0000E+00  0.0000E+00  0.0000E+00  0.0000E+00
    -35.709  0.0000E+00  0.0000E+00  0.0000E+00  0.0000E+00  0.0000E+00  0.0000E+00  0.0000E+00  0.0000E+00  0.0000E+00  0.0000E+00  0.0000E+00  0.0000E+00  0.0000E+00  0.0000E+00  0.0000E+00  0.0000E+00  0.0000E+00  0.0000E+00
    -35.539  0.0000E+00  0.0000E+00  0.0000E+00  0.0000E+00  0.0000E+00  0.0000E+00  0.0000E+00  0.0000E+00  0.0000E+00  0.0000E+00  0.0000E+00  0.0000E+00  0.0000E+00  0.0000E+00  0.0000E+00  0.0000E+00  0.0000E+00  0.0000E+00
    -35.370  0.0000E+00  0.0000E+00  0.0000E+00  0.0000E+00  0.0000E+00  0.0000E+00  0.0000E+00  0.0000E+00  0.0000E+00  0.0000E+00  0.0000E+00  0.0000E+00  0.0000E+00  0.0000E+00  0.0000E+00  0.0000E+00  0.0000E+00  0.0000E+00
    -35.200  0.0000E+00  0.0000E+00  0.0000E+00  0.0000E+00  0.0000E+00  0.0000E+00  0.0000E+00  0.0000E+00  0.0000E+00  0.0000E+00  0.0000E+00  0.0000E+00  0.0000E+00  0.0000E+00  0.0000E+00  0.0000E+00  0.0000E+00  0.0000E+00
    -35.031  0.0000E+00  0.0000E+00  0.0000E+00  0.0000E+00  0.0000E+00  0.0000E+00  0.0000E+00  0.0000E+00  0.0000E+00  0.0000E+00  0.0000E+00  0.0000E+00  0.0000E+00  0.0000E+00  0.0000E+00  0.0000E+00  0.0000E+00  0.0000E+00
    -34.862  0.0000E+00  0.0000E+00  0.0000E+00  0.0000E+00  0.0000E+00  0.0000E+00  0.0000E+00  0.0000E+00  0.0000E+00  0.0000E+00  0.0000E+00  0.0000E+00  0.0000E+00  0.0000E+00  0.0000E+00  0.0000E+00  0.0000E+00  0.0000E+00
    -34.692  0.0000E+00  0.0000E+00  0.0000E+00  0.0000E+00  0.0000E+00  0.0000E+00  0.0000E+00  0.0000E+00  0.0000E+00  0.0000E+00  0.0000E+00  0.0000E+00  0.0000E+00  0.0000E+00  0.0000E+00  0.0000E+00  0.0000E+00  0.0000E+00
    -34.523  0.0000E+00  0.0000E+00  0.0000E+00  0.0000E+00  0.0000E+00  0.0000E+00  0.0000E+00  0.0000E+00  0.0000E+00  0.0000E+00  0.0000E+00  0.0000E+00  0.0000E+00  0.0000E+00  0.0000E+00  0.0000E+00  0.0000E+00  0.0000E+00
    -34.353  0.0000E+00  0.0000E+00  0.0000E+00  0.0000E+00  0.0000E+00  0.0000E+00  0.0000E+00  0.0000E+00  0.0000E+00  0.0000E+00  0.0000E+00  0.0000E+00  0.0000E+00  0.0000E+00  0.0000E+00  0.0000E+00  0.0000E+00  0.0000E+00
    -34.184  0.0000E+00  0.0000E+00  0.0000E+00  0.0000E+00  0.0000E+00  0.0000E+00  0.0000E+00  0.0000E+00  0.0000E+00  0.0000E+00  0.0000E+00  0.0000E+00  0.0000E+00  0.0000E+00  0.0000E+00  0.0000E+00  0.0000E+00  0.0000E+00
    -34.015  0.0000E+00  0.0000E+00  0.0000E+00  0.0000E+00  0.0000E+00  0.0000E+00  0.0000E+00  0.0000E+00  0.0000E+00  0.0000E+00  0.0000E+00  0.0000E+00  0.0000E+00  0.0000E+00  0.0000E+00  0.0000E+00  0.0000E+00  0.0000E+00
    -33.845  0.0000E+00  0.0000E+00  0.0000E+00  0.0000E+00  0.0000E+00  0.0000E+00  0.0000E+00  0.0000E+00  0.0000E+00  0.0000E+00  0.0000E+00  0.0000E+00  0.0000E+00  0.0000E+00  0.0000E+00  0.0000E+00  0.0000E+00  0.0000E+00
    -33.676  0.0000E+00  0.0000E+00  0.0000E+00  0.0000E+00  0.0000E+00  0.0000E+00  0.0000E+00  0.0000E+00  0.0000E+00  0.0000E+00  0.0000E+00  0.0000E+00  0.0000E+00  0.0000E+00  0.0000E+00  0.0000E+00  0.0000E+00  0.0000E+00
    -33.506  0.0000E+00  0.0000E+00  0.0000E+00  0.0000E+00  0.0000E+00  0.0000E+00  0.0000E+00  0.0000E+00  0.0000E+00  0.0000E+00  0.0000E+00  0.0000E+00  0.0000E+00  0.0000E+00  0.0000E+00  0.0000E+00  0.0000E+00  0.0000E+00
    -33.337  0.0000E+00  0.0000E+00  0.0000E+00  0.0000E+00  0.0000E+00  0.0000E+00  0.0000E+00  0.0000E+00  0.0000E+00  0.0000E+00  0.0000E+00  0.0000E+00  0.0000E+00  0.0000E+00  0.0000E+00  0.0000E+00  0.0000E+00  0.0000E+00
    -33.168  0.0000E+00  0.0000E+00  0.0000E+00  0.0000E+00  0.0000E+00  0.0000E+00  0.0000E+00  0.0000E+00  0.0000E+00  0.0000E+00  0.0000E+00  0.0000E+00  0.0000E+00  0.0000E+00  0.0000E+00  0.0000E+00  0.0000E+00  0.0000E+00
    -32.998  0.0000E+00  0.0000E+00  0.0000E+00  0.0000E+00  0.0000E+00  0.0000E+00  0.0000E+00  0.0000E+00  0.0000E+00  0.0000E+00  0.0000E+00  0.0000E+00  0.0000E+00  0.0000E+00  0.0000E+00  0.0000E+00  0.0000E+00  0.0000E+00
    -32.829  0.0000E+00  0.0000E+00  0.0000E+00  0.0000E+00  0.0000E+00  0.0000E+00  0.0000E+00  0.0000E+00  0.0000E+00  0.0000E+00  0.0000E+00  0.0000E+00  0.0000E+00  0.0000E+00  0.0000E+00  0.0000E+00  0.0000E+00  0.0000E+00
    -32.659  0.0000E+00  0.0000E+00  0.0000E+00  0.0000E+00  0.0000E+00  0.0000E+00  0.0000E+00  0.0000E+00  0.0000E+00  0.0000E+00  0.0000E+00  0.0000E+00  0.0000E+00  0.0000E+00  0.0000E+00  0.0000E+00  0.0000E+00  0.0000E+00
    -32.490  0.0000E+00  0.0000E+00  0.0000E+00  0.0000E+00  0.0000E+00  0.0000E+00  0.0000E+00  0.0000E+00  0.0000E+00  0.0000E+00  0.0000E+00  0.0000E+00  0.0000E+00  0.0000E+00  0.0000E+00  0.0000E+00  0.0000E+00  0.0000E+00
    -32.321  0.0000E+00  0.0000E+00  0.0000E+00  0.0000E+00  0.0000E+00  0.0000E+00  0.0000E+00  0.0000E+00  0.0000E+00  0.0000E+00  0.0000E+00  0.0000E+00  0.0000E+00  0.0000E+00  0.0000E+00  0.0000E+00  0.0000E+00  0.0000E+00
    -32.151  0.0000E+00  0.0000E+00  0.0000E+00  0.0000E+00  0.0000E+00  0.0000E+00  0.0000E+00  0.0000E+00  0.0000E+00  0.0000E+00  0.0000E+00  0.0000E+00  0.0000E+00  0.0000E+00  0.0000E+00  0.0000E+00  0.0000E+00  0.0000E+00
    -31.982  0.0000E+00  0.0000E+00  0.0000E+00  0.0000E+00  0.0000E+00  0.0000E+00  0.0000E+00  0.0000E+00  0.0000E+00  0.0000E+00  0.0000E+00  0.0000E+00  0.0000E+00  0.0000E+00  0.0000E+00  0.0000E+00  0.0000E+00  0.0000E+00
    -31.813  0.0000E+00  0.0000E+00  0.0000E+00  0.0000E+00  0.0000E+00  0.0000E+00  0.0000E+00  0.0000E+00  0.0000E+00  0.0000E+00  0.0000E+00  0.0000E+00  0.0000E+00  0.0000E+00  0.0000E+00  0.0000E+00  0.0000E+00  0.0000E+00
    -31.643  0.0000E+00  0.0000E+00  0.0000E+00  0.0000E+00  0.0000E+00  0.0000E+00  0.0000E+00  0.0000E+00  0.0000E+00  0.0000E+00  0.0000E+00  0.0000E+00  0.0000E+00  0.0000E+00  0.0000E+00  0.0000E+00  0.0000E+00  0.0000E+00
    -31.474  0.0000E+00  0.0000E+00  0.0000E+00  0.0000E+00  0.0000E+00  0.0000E+00  0.0000E+00  0.0000E+00  0.0000E+00  0.0000E+00  0.0000E+00  0.0000E+00  0.0000E+00  0.0000E+00  0.0000E+00  0.0000E+00  0.0000E+00  0.0000E+00
    -31.304  0.0000E+00  0.0000E+00  0.0000E+00  0.0000E+00  0.0000E+00  0.0000E+00  0.0000E+00  0.0000E+00  0.0000E+00  0.0000E+00  0.0000E+00  0.0000E+00  0.0000E+00  0.0000E+00  0.0000E+00  0.0000E+00  0.0000E+00  0.0000E+00
    -31.135  0.0000E+00  0.0000E+00  0.0000E+00  0.0000E+00  0.0000E+00  0.0000E+00  0.0000E+00  0.0000E+00  0.0000E+00  0.0000E+00  0.0000E+00  0.0000E+00  0.0000E+00  0.0000E+00  0.0000E+00  0.0000E+00  0.0000E+00  0.0000E+00
    -30.966  0.0000E+00  0.0000E+00  0.0000E+00  0.0000E+00  0.0000E+00  0.0000E+00  0.0000E+00  0.0000E+00  0.0000E+00  0.0000E+00  0.0000E+00  0.0000E+00  0.0000E+00  0.0000E+00  0.0000E+00  0.0000E+00  0.0000E+00  0.0000E+00
    -30.796  0.0000E+00  0.0000E+00  0.0000E+00  0.0000E+00  0.0000E+00  0.0000E+00  0.0000E+00  0.0000E+00  0.0000E+00  0.0000E+00  0.0000E+00  0.0000E+00  0.0000E+00  0.0000E+00  0.0000E+00  0.0000E+00  0.0000E+00  0.0000E+00
    -30.627  0.0000E+00  0.0000E+00  0.0000E+00  0.0000E+00  0.0000E+00  0.0000E+00  0.0000E+00  0.0000E+00  0.0000E+00  0.0000E+00  0.0000E+00  0.0000E+00  0.0000E+00  0.0000E+00  0.0000E+00  0.0000E+00  0.0000E+00  0.0000E+00
    -30.457  0.0000E+00  0.0000E+00  0.0000E+00  0.0000E+00  0.0000E+00  0.0000E+00  0.0000E+00  0.0000E+00  0.0000E+00  0.0000E+00  0.0000E+00  0.0000E+00  0.0000E+00  0.0000E+00  0.0000E+00  0.0000E+00  0.0000E+00  0.0000E+00
    -30.288  0.0000E+00  0.0000E+00  0.0000E+00  0.0000E+00  0.0000E+00  0.0000E+00  0.0000E+00  0.0000E+00  0.0000E+00  0.0000E+00  0.0000E+00  0.0000E+00  0.0000E+00  0.0000E+00  0.0000E+00  0.0000E+00  0.0000E+00  0.0000E+00
    -30.119  0.0000E+00  0.0000E+00  0.0000E+00  0.0000E+00  0.0000E+00  0.0000E+00  0.0000E+00  0.0000E+00  0.0000E+00  0.0000E+00  0.0000E+00  0.0000E+00  0.0000E+00  0.0000E+00  0.0000E+00  0.0000E+00  0.0000E+00  0.0000E+00
    -29.949  0.0000E+00  0.0000E+00  0.0000E+00  0.0000E+00  0.0000E+00  0.0000E+00  0.0000E+00  0.0000E+00  0.0000E+00  0.0000E+00  0.0000E+00  0.0000E+00  0.0000E+00  0.0000E+00  0.0000E+00  0.0000E+00  0.0000E+00  0.0000E+00
    -29.780  0.0000E+00  0.0000E+00  0.0000E+00  0.0000E+00  0.0000E+00  0.0000E+00  0.0000E+00  0.0000E+00  0.0000E+00  0.0000E+00  0.0000E+00  0.0000E+00  0.0000E+00  0.0000E+00  0.0000E+00  0.0000E+00  0.0000E+00  0.0000E+00
    -29.610  0.0000E+00  0.0000E+00  0.0000E+00  0.0000E+00  0.0000E+00  0.0000E+00  0.0000E+00  0.0000E+00  0.0000E+00  0.0000E+00  0.0000E+00  0.0000E+00  0.0000E+00  0.0000E+00  0.0000E+00  0.0000E+00  0.0000E+00  0.0000E+00
    -29.441  0.0000E+00  0.0000E+00  0.0000E+00  0.0000E+00  0.0000E+00  0.0000E+00  0.0000E+00  0.0000E+00  0.0000E+00  0.0000E+00  0.0000E+00  0.0000E+00  0.0000E+00  0.0000E+00  0.0000E+00  0.0000E+00  0.0000E+00  0.0000E+00
    -29.272  0.0000E+00  0.0000E+00  0.0000E+00  0.0000E+00  0.0000E+00  0.0000E+00  0.0000E+00  0.0000E+00  0.0000E+00  0.0000E+00  0.0000E+00  0.0000E+00  0.0000E+00  0.0000E+00  0.0000E+00  0.0000E+00  0.0000E+00  0.0000E+00
    -29.102  0.0000E+00  0.0000E+00  0.0000E+00  0.0000E+00  0.0000E+00  0.0000E+00  0.0000E+00  0.0000E+00  0.0000E+00  0.0000E+00  0.0000E+00  0.0000E+00  0.0000E+00  0.0000E+00  0.0000E+00  0.0000E+00  0.0000E+00  0.0000E+00
    -28.933  0.0000E+00  0.0000E+00  0.0000E+00  0.0000E+00  0.0000E+00  0.0000E+00  0.0000E+00  0.0000E+00  0.0000E+00  0.0000E+00  0.0000E+00  0.0000E+00  0.0000E+00  0.0000E+00  0.0000E+00  0.0000E+00  0.0000E+00  0.0000E+00
    -28.763  0.0000E+00  0.0000E+00  0.0000E+00  0.0000E+00  0.0000E+00  0.0000E+00  0.0000E+00  0.0000E+00  0.0000E+00  0.0000E+00  0.0000E+00  0.0000E+00  0.0000E+00  0.0000E+00  0.0000E+00  0.0000E+00  0.0000E+00  0.0000E+00
    -28.594  0.0000E+00  0.0000E+00  0.0000E+00  0.0000E+00  0.0000E+00  0.0000E+00  0.0000E+00  0.0000E+00  0.0000E+00  0.0000E+00  0.0000E+00  0.0000E+00  0.0000E+00  0.0000E+00  0.0000E+00  0.0000E+00  0.0000E+00  0.0000E+00
    -28.425  0.0000E+00  0.0000E+00  0.0000E+00  0.0000E+00  0.0000E+00  0.0000E+00  0.0000E+00  0.0000E+00  0.0000E+00  0.0000E+00  0.0000E+00  0.0000E+00  0.0000E+00  0.0000E+00  0.0000E+00  0.0000E+00  0.0000E+00  0.0000E+00
    -28.255  0.0000E+00  0.0000E+00  0.0000E+00  0.0000E+00  0.0000E+00  0.0000E+00  0.0000E+00  0.0000E+00  0.0000E+00  0.0000E+00  0.0000E+00  0.0000E+00  0.0000E+00  0.0000E+00  0.0000E+00  0.0000E+00  0.0000E+00  0.0000E+00
    -28.086  0.0000E+00  0.0000E+00  0.0000E+00  0.0000E+00  0.0000E+00  0.0000E+00  0.0000E+00  0.0000E+00  0.0000E+00  0.0000E+00  0.0000E+00  0.0000E+00  0.0000E+00  0.0000E+00  0.0000E+00  0.0000E+00  0.0000E+00  0.0000E+00