   16   16   99    2
  0.6212145E+01  0.4312354E-09  0.4474292E-09  0.5831900E-09  0.5000000E-15
  1.000000000000000E-004
  CAR 
 unknown system                          
     16     62     32
 
  0.3742002E-15  0.3742002E-15  0.3742002E-15  0.8333333E-02
    1      -10.811990    -10.811705   1.000000   1.000000
    2       -8.930958     -8.930926   1.000000   1.000000
    3       -8.814466     -8.814435   1.000000   1.000000
    4       -8.419834     -8.419829   1.000000   1.000000
    5       -8.204635     -8.204589   1.000000   1.000000
    6       -8.115868     -8.115776   1.000000   1.000000
    7       -8.044025     -8.043976   1.000000   1.000000
    8       -7.948699     -7.948619   1.000000   1.000000
    9        1.517360      1.520268   0.000000   0.000000
   10        2.030151      2.035059   0.000000   0.000000
   11        2.147556      2.147912   0.000000   0.000000
   12        2.441481      2.442608   0.000000   0.000000
   13        3.148509      3.149359   0.000000   0.000000
   14        3.366172      3.366522   0.000000   0.000000
   15        4.130853      4.131575   0.000000   0.000000
   16        4.736397      4.738320   0.000000   0.000000
   17        5.183084      5.185316   0.000000   0.000000
   18        6.184761      6.186221   0.000000   0.000000
   19        6.384838      6.386044   0.000000   0.000000
   20        6.789572      6.796632   0.000000   0.000000
   21        7.294902      7.295887   0.000000   0.000000
   22        7.697901      7.699291   0.000000   0.000000
   23        8.295389      8.297762   0.000000   0.000000
   24        8.757371      8.758272   0.000000   0.000000
   25        9.626028      9.628709   0.000000   0.000000
   26        9.949744      9.951487   0.000000   0.000000
   27       10.269268     10.270255   0.000000   0.000000
   28       11.033573     11.034590   0.000000   0.000000
   29       11.384423     11.385187   0.000000   0.000000
   30       11.614300     11.616571   0.000000   0.000000
   31       12.233925     12.236634   0.000000   0.000000
   32       12.835620     12.837910   0.000000   0.000000
 
  0.1666667E+00  0.3767603E-15  0.3747003E-15  0.1666667E-01
    1      -10.697436    -10.697163   1.000000   1.000000
    2       -8.916806     -8.916789   1.000000   1.000000
    3       -8.759135     -8.759103   1.000000   1.000000
    4       -8.664201     -8.664158   1.000000   1.000000
    5       -8.263247     -8.263183   1.000000   1.000000
    6       -8.201831     -8.201739   1.000000   1.000000
    7       -8.003179     -8.003150   1.000000   1.000000
    8       -7.852921     -7.852849   1.000000   1.000000
    9        1.566196      1.568833   0.000000   0.000000
   10        1.858346      1.863074   0.000000   0.000000
   11        2.022563      2.023393   0.000000   0.000000
   12        2.390367      2.391561   0.000000   0.000000
   13        2.708431      2.709829   0.000000   0.000000
   14        3.661431      3.661824   0.000000   0.000000
   15        4.379970      4.381193   0.000000   0.000000
   16        4.841860      4.842734   0.000000   0.000000
   17        5.491279      5.493095   0.000000   0.000000
   18        6.368801      6.372509   0.000000   0.000000
   19        6.491425      6.495036   0.000000   0.000000
   20        6.924016      6.925250   0.000000   0.000000
   21        7.347208      7.348429   0.000000   0.000000
   22        7.947037      7.947963   0.000000   0.000000
   23        8.305628      8.307397   0.000000   0.000000
   24        8.932488      8.934062   0.000000   0.000000
   25        9.520401      9.522725   0.000000   0.000000
   26        9.631368      9.633427   0.000000   0.000000
   27       10.101582     10.104443   0.000000   0.000000
   28       10.790870     10.791922   0.000000   0.000000
   29       11.640912     11.643507   0.000000   0.000000
   30       12.094467     12.095903   0.000000   0.000000
   31       12.465427     12.466743   0.000000   0.000000
   32       12.997082     12.999610   0.000000   0.000000
 
  0.3333333E+00  0.3894454E-15  0.3538836E-15  0.1666667E-01
    1      -10.366342    -10.366109   1.000000   1.000000
    2       -9.236429     -9.236299   1.000000   1.000000
    3       -8.856083     -8.856091   1.000000   1.000000
    4       -8.651597     -8.651571   1.000000   1.000000
    5       -8.362538     -8.362477   1.000000   1.000000
    6       -8.199347     -8.199277   1.000000   1.000000
    7       -7.994540     -7.994489   1.000000   1.000000
    8       -7.823153     -7.823094   1.000000   1.000000
    9        1.381219      1.384915   0.000000   0.000000
   10        1.458091      1.460265   0.000000   0.000000
   11        2.030041      2.031645   0.000000   0.000000
   12        2.183600      2.184849   0.000000   0.000000
   13        2.901995      2.905033   0.000000   0.000000
   14        3.848635      3.849188   0.000000   0.000000
   15        4.374744      4.376488   0.000000   0.000000
   16        5.014091      5.016206   0.000000   0.000000
   17        5.835829      5.837460   0.000000   0.000000
   18        6.333592      6.335145   0.000000   0.000000
   19        6.981502      6.982568   0.000000   0.000000
   20        7.155625      7.156909   0.000000   0.000000
   21        7.707997      7.708466   0.000000   0.000000
   22        8.475053      8.476040   0.000000   0.000000
   23        8.802727      8.803875   0.000000   0.000000
   24        9.225028      9.226795   0.000000   0.000000
   25        9.718626      9.720159   0.000000   0.000000
   26        9.890551      9.893482   0.000000   0.000000
   27       10.175945     10.178174   0.000000   0.000000
   28       10.772302     10.774347   0.000000   0.000000
   29       11.275796     11.280892   0.000000   0.000000
   30       11.795915     11.798796   0.000000   0.000000
   31       12.176433     12.177641   0.000000   0.000000
   32       12.613947     12.616033   0.000000   0.000000
 
  0.5000000E+00  0.4206704E-15  0.3885781E-15  0.8333333E-02
    1       -9.919971     -9.919891   1.000000   1.000000
    2       -9.779029     -9.778726   1.000000   1.000000
    3       -8.825806     -8.825831   1.000000   1.000000
    4       -8.600522     -8.600503   1.000000   1.000000
    5       -8.391091     -8.391028   1.000000   1.000000
    6       -8.152123     -8.152040   1.000000   1.000000
    7       -8.069101     -8.069060   1.000000   1.000000
    8       -7.811475     -7.811416   1.000000   1.000000
    9        1.262929      1.267252   0.000000   0.000000
   10        1.273262      1.275116   0.000000   0.000000
   11        1.926059      1.927231   0.000000   0.000000
   12        2.254285      2.254773   0.000000   0.000000
   13        3.092866      3.097097   0.000000   0.000000
   14        4.076379      4.078863   0.000000   0.000000
   15        4.195461      4.196952   0.000000   0.000000
   16        4.805274      4.806561   0.000000   0.000000
   17        6.080824      6.081578   0.000000   0.000000
   18        6.418738      6.420080   0.000000   0.000000
   19        7.052526      7.052860   0.000000   0.000000
   20        7.381913      7.382358   0.000000   0.000000
   21        7.961328      7.962048   0.000000   0.000000
   22        8.507850      8.509353   0.000000   0.000000
   23        9.377707      9.378678   0.000000   0.000000
   24        9.543547      9.544004   0.000000   0.000000
   25        9.890886      9.892728   0.000000   0.000000
   26       10.360115     10.363828   0.000000   0.000000
   27       10.492814     10.495004   0.000000   0.000000
   28       10.780484     10.780360   0.000000   0.000000
   29       11.314908     11.320836   0.000000   0.000000
   30       11.710711     11.712541   0.000000   0.000000
   31       12.040320     12.043209   0.000000   0.000000
   32       12.163884     12.166215   0.000000   0.000000
 
  0.3747003E-15  0.2000000E+00  0.4024558E-15  0.1666667E-01
    1      -10.639678    -10.639412   1.000000   1.000000
    2       -9.143524     -9.143516   1.000000   1.000000
    3       -8.697490     -8.697438   1.000000   1.000000
    4       -8.504920     -8.504884   1.000000   1.000000
    5       -8.392996     -8.392925   1.000000   1.000000
    6       -8.240683     -8.240552   1.000000   1.000000
    7       -7.953812     -7.953776   1.000000   1.000000
    8       -7.832253     -7.832189   1.000000   1.000000
    9        1.508660      1.512675   0.000000   0.000000
   10        1.994078      1.995215   0.000000   0.000000
   11        2.330644      2.333238   0.000000   0.000000
   12        2.686023      2.687017   0.000000   0.000000
   13        3.092235      3.093590   0.000000   0.000000
   14        3.706873      3.707139   0.000000   0.000000
   15        4.192095      4.193131   0.000000   0.000000
   16        4.830735      4.831539   0.000000   0.000000
   17        5.350647      5.354232   0.000000   0.000000
   18        5.776392      5.777823   0.000000   0.000000
   19        6.311268      6.314722   0.000000   0.000000
   20        6.505702      6.508688   0.000000   0.000000
   21        7.177625      7.179172   0.000000   0.000000
   22        7.721584      7.723137   0.000000   0.000000
   23        7.948146      7.950421   0.000000   0.000000
   24        8.953326      8.954961   0.000000   0.000000
   25        9.546497      9.547515   0.000000   0.000000
   26        9.851261      9.853211   0.000000   0.000000
   27       10.786531     10.788693   0.000000   0.000000
   28       11.043821     11.046225   0.000000   0.000000
   29       11.809078     11.810703   0.000000   0.000000
   30       12.143595     12.144752   0.000000   0.000000
   31       12.783225     12.785199   0.000000   0.000000
   32       12.916152     12.919319   0.000000   0.000000
 
  0.1666667E+00  0.2000000E+00  0.3885781E-15  0.1666667E-01
    1      -10.459721    -10.459476   1.000000   1.000000
    2       -9.121318     -9.121329   1.000000   1.000000
    3       -8.851653     -8.851623   1.000000   1.000000
    4       -8.668610     -8.668490   1.000000   1.000000
    5       -8.439850     -8.439770   1.000000   1.000000
    6       -8.359030     -8.358911   1.000000   1.000000
    7       -7.835061     -7.835017   1.000000   1.000000
    8       -7.748945     -7.748889   1.000000   1.000000
    9        1.476303      1.480633   0.000000   0.000000
   10        1.895324      1.896762   0.000000   0.000000
   11        2.430723      2.432940   0.000000   0.000000
   12        2.582556      2.583390   0.000000   0.000000
   13        3.057546      3.058659   0.000000   0.000000
   14        3.964322      3.966300   0.000000   0.000000
   15        4.141106      4.141125   0.000000   0.000000
   16        4.704224      4.705364   0.000000   0.000000
   17        5.466469      5.468253   0.000000   0.000000
   18        5.910353      5.912386   0.000000   0.000000
   19        6.105154      6.109756   0.000000   0.000000
   20        6.784267      6.785670   0.000000   0.000000
   21        7.539743      7.541590   0.000000   0.000000
   22        7.901806      7.903817   0.000000   0.000000
   23        8.159727      8.160803   0.000000   0.000000
   24        8.709714      8.711735   0.000000   0.000000
   25        9.657420      9.658906   0.000000   0.000000
   26       10.344099     10.346120   0.000000   0.000000
   27       10.671614     10.673801   0.000000   0.000000
   28       10.913677     10.915154   0.000000   0.000000
   29       11.599279     11.602132   0.000000   0.000000
   30       11.863192     11.864633   0.000000   0.000000
   31       12.481486     12.483580   0.000000   0.000000
   32       12.683994     12.687219   0.000000   0.000000
 
  0.3333333E+00  0.2000000E+00  0.3885781E-15  0.1666667E-01
    1      -10.079290    -10.079097   1.000000   1.000000
    2       -9.322303     -9.322172   1.000000   1.000000
    3       -8.969274     -8.969294   1.000000   1.000000
    4       -8.785140     -8.785048   1.000000   1.000000
    5       -8.459290     -8.459221   1.000000   1.000000
    6       -8.312943     -8.312842   1.000000   1.000000
    7       -7.884728     -7.884682   1.000000   1.000000
    8       -7.798676     -7.798618   1.000000   1.000000
    9        1.304363      1.308966   0.000000   0.000000
   10        1.494433      1.495893   0.000000   0.000000
   11        2.341031      2.342232   0.000000   0.000000
   12        2.697761      2.698497   0.000000   0.000000
   13        3.192199      3.195197   0.000000   0.000000
   14        3.588593      3.591107   0.000000   0.000000
   15        4.076746      4.077822   0.000000   0.000000
   16        4.993502      4.994968   0.000000   0.000000
   17        5.518891      5.520585   0.000000   0.000000
   18        6.258207      6.259057   0.000000   0.000000
   19        6.643368      6.644623   0.000000   0.000000
   20        7.362272      7.363454   0.000000   0.000000
   21        8.009253      8.010381   0.000000   0.000000
   22        8.242616      8.242853   0.000000   0.000000
   23        8.748945      8.751537   0.000000   0.000000
   24        9.244249      9.247233   0.000000   0.000000
   25        9.748036      9.750575   0.000000   0.000000
   26       10.235660     10.236104   0.000000   0.000000
   27       10.347088     10.349298   0.000000   0.000000
   28       11.017876     11.019815   0.000000   0.000000
   29       11.273555     11.275924   0.000000   0.000000
   30       11.800883     11.801914   0.000000   0.000000
   31       12.286978     12.292278   0.000000   0.000000
   32       12.833500     12.835317   0.000000   0.000000
 
  0.5000000E+00  0.2000000E+00  0.3885781E-15  0.1666667E-01
    1       -9.898486     -9.898327   1.000000   1.000000
    2       -9.529985     -9.529801   1.000000   1.000000
    3       -8.799968     -8.799998   1.000000   1.000000
    4       -8.707641     -8.707606   1.000000   1.000000
    5       -8.544294     -8.544195   1.000000   1.000000
    6       -8.227359     -8.227278   1.000000   1.000000
    7       -8.033209     -8.033172   1.000000   1.000000
    8       -7.931295     -7.931220   1.000000   1.000000
    9        1.201487      1.205773   0.000000   0.000000
   10        1.422449      1.424288   0.000000   0.000000
   11        2.154625      2.155950   0.000000   0.000000
   12        2.441678      2.442769   0.000000   0.000000
   13        2.962764      2.966591   0.000000   0.000000
   14        3.765216      3.766235   0.000000   0.000000
   15        4.535925      4.538537   0.000000   0.000000
   16        4.835589      4.836553   0.000000   0.000000
   17        5.596380      5.597632   0.000000   0.000000
   18        6.433841      6.435368   0.000000   0.000000
   19        7.076753      7.076992   0.000000   0.000000
   20        7.328380      7.329132   0.000000   0.000000
   21        8.274423      8.274816   0.000000   0.000000
   22        8.781788      8.783011   0.000000   0.000000
   23        9.203048      9.204253   0.000000   0.000000
   24        9.440715      9.441372   0.000000   0.000000
   25        9.898482      9.900521   0.000000   0.000000
   26       10.365411     10.369005   0.000000   0.000000
   27       10.557656     10.558605   0.000000   0.000000
   28       11.138517     11.139820   0.000000   0.000000
   29       11.497955     11.500277   0.000000   0.000000
   30       11.630927     11.633025   0.000000   0.000000
   31       11.852212     11.855466   0.000000   0.000000
   32       12.223759     12.226394   0.000000   0.000000
 
 -0.3333333E+00  0.2000000E+00  0.3816392E-15  0.1666667E-01
    1      -10.337383    -10.337148   1.000000   1.000000
    2       -8.975775     -8.975706   1.000000   1.000000
    3       -8.839337     -8.839307   1.000000   1.000000
    4       -8.641049     -8.641045   1.000000   1.000000
    5       -8.413140     -8.413064   1.000000   1.000000
    6       -8.184695     -8.184642   1.000000   1.000000
    7       -8.163149     -8.163085   1.000000   1.000000
    8       -8.049086     -8.048993   1.000000   1.000000
    9        1.294849      1.298699   0.000000   0.000000
   10        1.682641      1.684737   0.000000   0.000000
   11        2.026936      2.028725   0.000000   0.000000
   12        2.445888      2.447976   0.000000   0.000000
   13        2.578009      2.580139   0.000000   0.000000
   14        3.813962      3.814565   0.000000   0.000000
   15        4.603643      4.605364   0.000000   0.000000
   16        5.021401      5.022501   0.000000   0.000000
   17        5.660196      5.662544   0.000000   0.000000
   18        6.407514      6.410586   0.000000   0.000000
   19        6.802963      6.803700   0.000000   0.000000
   20        7.278382      7.278898   0.000000   0.000000
   21        7.788956      7.789537   0.000000   0.000000
   22        8.218179      8.219012   0.000000   0.000000
   23        8.689329      8.690450   0.000000   0.000000
   24        9.462421      9.464755   0.000000   0.000000
   25        9.933574      9.934014   0.000000   0.000000
   26       10.334533     10.336457   0.000000   0.000000
   27       10.665534     10.667480   0.000000   0.000000
   28       11.192517     11.196552   0.000000   0.000000
   29       11.494251     11.495548   0.000000   0.000000
   30       11.935636     11.936963   0.000000   0.000000
   31       12.303037     12.305942   0.000000   0.000000
   32       12.846109     12.849629   0.000000   0.000000
 
 -0.1666667E+00  0.2000000E+00  0.3885781E-15  0.1666667E-01
    1      -10.597745    -10.597481   1.000000   1.000000
    2       -9.044778     -9.044758   1.000000   1.000000
    3       -8.615245     -8.615225   1.000000   1.000000
    4       -8.529194     -8.529167   1.000000   1.000000
    5       -8.372022     -8.371958   1.000000   1.000000
    6       -8.180563     -8.180520   1.000000   1.000000
    7       -8.136267     -8.136113   1.000000   1.000000
    8       -7.992643     -7.992598   1.000000   1.000000
    9        1.442473      1.446115   0.000000   0.000000
   10        1.957823      1.959513   0.000000   0.000000
   11        2.152194      2.154842   0.000000   0.000000
   12        2.384743      2.386545   0.000000   0.000000
   13        2.830720      2.831811   0.000000   0.000000
   14        3.691976      3.692578   0.000000   0.000000
   15        4.591887      4.592412   0.000000   0.000000
   16        4.719486      4.722018   0.000000   0.000000
   17        5.777830      5.779398   0.000000   0.000000
   18        6.063977      6.065461   0.000000   0.000000
   19        6.510160      6.514593   0.000000   0.000000
   20        6.850117      6.851314   0.000000   0.000000
   21        7.067113      7.068615   0.000000   0.000000
   22        7.789928      7.790414   0.000000   0.000000
   23        8.362136      8.363843   0.000000   0.000000
   24        9.078378      9.080868   0.000000   0.000000
   25        9.739918      9.742932   0.000000   0.000000
   26       10.301963     10.303202   0.000000   0.000000
   27       10.537766     10.538507   0.000000   0.000000
   28       11.051575     11.052342   0.000000   0.000000
   29       11.609234     11.610527   0.000000   0.000000
   30       12.147296     12.151010   0.000000   0.000000
   31       12.448993     12.450937   0.000000   0.000000
   32       12.992711     12.997280   0.000000   0.000000
 
  0.3747003E-15  0.4000000E+00  0.3053113E-15  0.1666667E-01
    1      -10.158829    -10.158627   1.000000   1.000000
    2       -9.424011     -9.423870   1.000000   1.000000
    3       -9.237884     -9.237892   1.000000   1.000000
    4       -8.530426     -8.530263   1.000000   1.000000
    5       -8.337132     -8.337075   1.000000   1.000000
    6       -8.142092     -8.142042   1.000000   1.000000
    7       -7.907104     -7.907043   1.000000   1.000000
    8       -7.837008     -7.836942   1.000000   1.000000
    9        1.620630      1.625432   0.000000   0.000000
   10        2.028595      2.029431   0.000000   0.000000
   11        2.382270      2.383108   0.000000   0.000000
   12        2.869132      2.870071   0.000000   0.000000
   13        3.465381      3.467975   0.000000   0.000000
   14        3.950364      3.951298   0.000000   0.000000
   15        4.190489      4.191252   0.000000   0.000000
   16        4.690011      4.692158   0.000000   0.000000
   17        5.041408      5.044227   0.000000   0.000000
   18        5.579065      5.581794   0.000000   0.000000
   19        6.458739      6.460106   0.000000   0.000000
   20        6.802662      6.804966   0.000000   0.000000
   21        7.304353      7.306248   0.000000   0.000000
   22        8.022874      8.024003   0.000000   0.000000
   23        8.324098      8.324926   0.000000   0.000000
   24        8.769276      8.770712   0.000000   0.000000
   25        9.229842      9.231238   0.000000   0.000000
   26       10.129630     10.131768   0.000000   0.000000
   27       10.499558     10.501455   0.000000   0.000000
   28       10.853419     10.854457   0.000000   0.000000
   29       11.379177     11.380280   0.000000   0.000000
   30       11.974716     11.978130   0.000000   0.000000
   31       12.568753     12.577011   0.000000   0.000000
   32       12.807441     12.809703   0.000000   0.000000
 
  0.1666667E+00  0.4000000E+00  0.3608225E-15  0.1666667E-01
    1       -9.942438     -9.942273   1.000000   1.000000
    2       -9.489020     -9.488849   1.000000   1.000000
    3       -9.192887     -9.192922   1.000000   1.000000
    4       -8.653344     -8.653258   1.000000   1.000000
    5       -8.484184     -8.483993   1.000000   1.000000
    6       -8.206331     -8.206297   1.000000   1.000000
    7       -7.867487     -7.867434   1.000000   1.000000
    8       -7.817089     -7.817026   1.000000   1.000000
    9        1.514243      1.519040   0.000000   0.000000
   10        2.023960      2.024556   0.000000   0.000000
   11        2.390100      2.391344   0.000000   0.000000
   12        2.998873      2.999837   0.000000   0.000000
   13        3.245207      3.248377   0.000000   0.000000
   14        3.862434      3.863731   0.000000   0.000000
   15        3.965060      3.966212   0.000000   0.000000
   16        4.753373      4.756074   0.000000   0.000000
   17        5.111566      5.112312   0.000000   0.000000
   18        5.901226      5.902928   0.000000   0.000000
   19        6.506090      6.507484   0.000000   0.000000
   20        7.291304      7.293827   0.000000   0.000000
   21        7.630187      7.633256   0.000000   0.000000
   22        8.132733      8.134017   0.000000   0.000000
   23        8.211081      8.211585   0.000000   0.000000
   24        8.946103      8.947318   0.000000   0.000000
   25        9.399767      9.401223   0.000000   0.000000
   26        9.975015      9.976585   0.000000   0.000000
   27       10.664579     10.665569   0.000000   0.000000
   28       10.981420     10.982096   0.000000   0.000000
   29       11.345081     11.345697   0.000000   0.000000
   30       11.968976     11.974028   0.000000   0.000000
   31       12.193205     12.198949   0.000000   0.000000
   32       12.651241     12.655903   0.000000   0.000000
 
  0.3333333E+00  0.4000000E+00  0.3885781E-15  0.1666667E-01
    1       -9.581435     -9.581332   1.000000   1.000000
    2       -9.397312     -9.397193   1.000000   1.000000
    3       -9.153021     -9.152883   1.000000   1.000000
    4       -8.952852     -8.952822   1.000000   1.000000
    5       -8.469422     -8.469296   1.000000   1.000000
    6       -8.320311     -8.320257   1.000000   1.000000
    7       -8.007630     -8.007585   1.000000   1.000000
    8       -7.914733     -7.914653   1.000000   1.000000
    9        1.259140      1.263803   0.000000   0.000000
   10        1.814161      1.815004   0.000000   0.000000
   11        2.686348      2.690293   0.000000   0.000000
   12        2.790656      2.792164   0.000000   0.000000
   13        3.056278      3.057424   0.000000   0.000000
   14        3.452581      3.453814   0.000000   0.000000
   15        4.064778      4.065641   0.000000   0.000000
   16        4.725924      4.728403   0.000000   0.000000
   17        5.463623      5.464211   0.000000   0.000000
   18        6.291277      6.293041   0.000000   0.000000
   19        6.795254      6.795784   0.000000   0.000000
   20        7.555886      7.556855   0.000000   0.000000
   21        8.132095      8.134679   0.000000   0.000000
   22        8.675622      8.676535   0.000000   0.000000
   23        8.849663      8.851147   0.000000   0.000000
   24        9.338988      9.339391   0.000000   0.000000
   25        9.871040      9.874226   0.000000   0.000000
   26       10.172235     10.173682   0.000000   0.000000
   27       10.659049     10.660348   0.000000   0.000000
   28       10.837354     10.838334   0.000000   0.000000
   29       11.320715     11.321396   0.000000   0.000000
   30       11.581777     11.584980   0.000000   0.000000
   31       12.145230     12.147238   0.000000   0.000000
   32       12.587253     12.591029   0.000000   0.000000
 
  0.5000000E+00  0.4000000E+00  0.3330669E-15  0.1666667E-01
    1       -9.650058     -9.649913   1.000000   1.000000
    2       -9.208313     -9.208224   1.000000   1.000000
    3       -9.047711     -9.047609   1.000000   1.000000
    4       -8.730346     -8.730346   1.000000   1.000000
    5       -8.590328     -8.590242   1.000000   1.000000
    6       -8.368205     -8.368125   1.000000   1.000000
    7       -8.248325     -8.248254   1.000000   1.000000
    8       -8.027348     -8.027251   1.000000   1.000000
    9        1.119226      1.123699   0.000000   0.000000
   10        1.851691      1.853268   0.000000   0.000000
   11        2.410947      2.415058   0.000000   0.000000
   12        2.648816      2.649805   0.000000   0.000000
   13        3.044727      3.045784   0.000000   0.000000
   14        3.559824      3.560837   0.000000   0.000000
   15        4.301753      4.303226   0.000000   0.000000
   16        4.489044      4.490997   0.000000   0.000000
   17        5.557780      5.558828   0.000000   0.000000
   18        6.465773      6.467785   0.000000   0.000000
   19        6.769842      6.770876   0.000000   0.000000
   20        7.635645      7.635864   0.000000   0.000000
   21        8.669767      8.671102   0.000000   0.000000
   22        8.996246      8.997008   0.000000   0.000000
   23        9.292025      9.293062   0.000000   0.000000
   24        9.580965      9.582155   0.000000   0.000000
   25        9.944282      9.945518   0.000000   0.000000
   26       10.328126     10.329398   0.000000   0.000000
   27       10.853714     10.855236   0.000000   0.000000
   28       11.163774     11.164724   0.000000   0.000000
   29       11.370026     11.371768   0.000000   0.000000
   30       11.868670     11.871461   0.000000   0.000000
   31       12.411813     12.413389   0.000000   0.000000
   32       12.649139     12.652186   0.000000   0.000000
 
 -0.3333333E+00  0.4000000E+00  0.3330669E-15  0.1666667E-01
    1      -10.001700    -10.001503   1.000000   1.000000
    2       -9.033364     -9.033367   1.000000   1.000000
    3       -8.904940     -8.904914   1.000000   1.000000
    4       -8.702788     -8.702638   1.000000   1.000000
    5       -8.537788     -8.537719   1.000000   1.000000
    6       -8.345713     -8.345648   1.000000   1.000000
    7       -8.210705     -8.210644   1.000000   1.000000
    8       -8.059728     -8.059620   1.000000   1.000000
    9        1.204943      1.209349   0.000000   0.000000
   10        2.070825      2.072519   0.000000   0.000000
   11        2.391462      2.392887   0.000000   0.000000
   12        2.494024      2.497295   0.000000   0.000000
   13        2.864098      2.865192   0.000000   0.000000
   14        3.723625      3.724662   0.000000   0.000000
   15        4.345984      4.347230   0.000000   0.000000
   16        4.803461      4.805473   0.000000   0.000000
   17        5.329160      5.330458   0.000000   0.000000
   18        6.239179      6.241899   0.000000   0.000000
   19        6.625574      6.626247   0.000000   0.000000
   20        7.540898      7.541731   0.000000   0.000000
   21        8.065352      8.065668   0.000000   0.000000
   22        8.539410      8.541099   0.000000   0.000000
   23        9.148209      9.149888   0.000000   0.000000
   24        9.627854      9.628725   0.000000   0.000000
   25        9.881557      9.882854   0.000000   0.000000
   26       10.529306     10.530840   0.000000   0.000000
   27       10.956824     10.957661   0.000000   0.000000
   28       11.159497     11.160978   0.000000   0.000000
   29       11.332105     11.333393   0.000000   0.000000
   30       11.773995     11.774428   0.000000   0.000000
   31       12.020225     12.025738   0.000000   0.000000
   32       12.634665     12.637641   0.000000   0.000000
 
 -0.1666667E+00  0.4000000E+00  0.3330669E-15  0.1666667E-01
    1      -10.180739    -10.180526   1.000000   1.000000
    2       -9.249909     -9.249868   1.000000   1.000000
    3       -9.096984     -9.096918   1.000000   1.000000
    4       -8.533766     -8.533680   1.000000   1.000000
    5       -8.429594     -8.429487   1.000000   1.000000
    6       -8.131537     -8.131490   1.000000   1.000000
    7       -8.043587     -8.043529   1.000000   1.000000
    8       -7.980228     -7.980142   1.000000   1.000000
    9        1.441835      1.446298   0.000000   0.000000
   10        2.067532      2.068408   0.000000   0.000000
   11        2.363904      2.364905   0.000000   0.000000
   12        2.790251      2.793317   0.000000   0.000000
   13        3.012344      3.013858   0.000000   0.000000
   14        3.706078      3.707210   0.000000   0.000000
   15        4.466338      4.467430   0.000000   0.000000
   16        4.975434      4.975904   0.000000   0.000000