  23  23   0   0
  0.7462587E+01  0.4985903E-09  0.4750590E-09  0.7319029E-09  0.5000000E-15
  1.000000000000000E-004
  CAR 
 unknown system                          
     10.21955857    -36.75064970  301     -0.72240656      1.00000000
    -36.751  0.0000E+00  0.0000E+00
    -36.594  0.0000E+00  0.0000E+00
    -36.438  0.0000E+00  0.0000E+00
    -36.281  0.0000E+00  0.0000E+00
    -36.124  0.0000E+00  0.0000E+00
    -35.968  0.0000E+00  0.0000E+00
    -35.811  0.0000E+00  0.0000E+00
    -35.655  0.0000E+00  0.0000E+00
    -35.498  0.2507E-32  0.3926E-33
    -35.342  0.1215E-21  0.1903E-22
    -35.185  0.3717E-13  0.5820E-14
    -35.028  0.6257E-07  0.9796E-08
    -34.872  0.3513E-03  0.5502E-04
    -34.715 -0.1118E-01 -0.1696E-02
    -34.559  0.2172E+00  0.3231E-01
    -34.402  0.5554E-02  0.3318E-01
    -34.246  0.9901E-03  0.3333E-01
    -34.089  0.1385E-05  0.3333E-01
    -33.932  0.3846E-11  0.3333E-01
    -33.776  0.0000E+00  0.3333E-01
    -33.619  0.0000E+00  0.3333E-01
    -33.463  0.0000E+00  0.3333E-01
    -33.306  0.0000E+00  0.3333E-01
    -33.150  0.0000E+00  0.3333E-01
    -32.993  0.0000E+00  0.3333E-01
    -32.836  0.0000E+00  0.3333E-01
    -32.680  0.0000E+00  0.3333E-01
    -32.523  0.0000E+00  0.3333E-01
    -32.367  0.0000E+00  0.3333E-01
    -32.210  0.0000E+00  0.3333E-01
    -32.054  0.0000E+00  0.3333E-01
    -31.897  0.0000E+00  0.3333E-01
    -31.740  0.0000E+00  0.3333E-01
    -31.584  0.0000E+00  0.3333E-01
    -31.427  0.0000E+00  0.3333E-01
    -31.271  0.0000E+00  0.3333E-01
    -31.114  0.5043E-35  0.3333E-01
    -30.958  0.7553E-24  0.3333E-01
    -30.801  0.7247E-15  0.3333E-01
    -30.645  0.4006E-08  0.3333E-01
    -30.488  0.8994E-04  0.3335E-01
    -30.331 -0.4943E-02  0.3257E-01
    -30.175  0.1577E+00  0.5726E-01
    -30.018  0.8528E-01  0.7061E-01
    -29.862  0.2288E+00  0.1064E+00
    -29.705  0.1797E+00  0.1346E+00
    -29.549 -0.7997E-02  0.1333E+00
    -29.392  0.1738E-03  0.1333E+00
    -29.235  0.1421E-07  0.1333E+00
    -29.079  0.4374E-14  0.1333E+00
    -28.922  0.0000E+00  0.1333E+00
    -28.766  0.0000E+00  0.1333E+00
    -28.609  0.0000E+00  0.1333E+00
    -28.453  0.0000E+00  0.1333E+00
    -28.296  0.0000E+00  0.1333E+00
    -28.139  0.0000E+00  0.1333E+00
    -27.983  0.0000E+00  0.1333E+00
    -27.826  0.0000E+00  0.1333E+00
    -27.670  0.0000E+00  0.1333E+00
    -27.513  0.0000E+00  0.1333E+00
    -27.357  0.0000E+00  0.1333E+00
    -27.200  0.0000E+00  0.1333E+00
    -27.043  0.0000E+00  0.1333E+00
    -26.887  0.0000E+00  0.1333E+00
    -26.730  0.0000E+00  0.1333E+00
    -26.574  0.0000E+00  0.1333E+00
    -26.417  0.0000E+00  0.1333E+00
    -26.261  0.0000E+00  0.1333E+00
    -26.104  0.0000E+00  0.1333E+00
    -25.948  0.0000E+00  0.1333E+00
    -25.791  0.0000E+00  0.1333E+00
    -25.634  0.0000E+00  0.1333E+00
    -25.478  0.0000E+00  0.1333E+00
    -25.321  0.0000E+00  0.1333E+00
    -25.165  0.0000E+00  0.1333E+00
    -25.008  0.0000E+00  0.1333E+00
    -24.852  0.0000E+00  0.1333E+00
    -24.695  0.0000E+00  0.1333E+00
    -24.538  0.0000E+00  0.1333E+00
    -24.382  0.0000E+00  0.1333E+00
    -24.225  0.0000E+00  0.1333E+00
    -24.069  0.0000E+00  0.1333E+00
    -23.912  0.0000E+00  0.1333E+00
    -23.756  0.0000E+00  0.1333E+00
    -23.599  0.0000E+00  0.1333E+00
    -23.442  0.0000E+00  0.1333E+00
    -23.286  0.0000E+00  0.1333E+00
    -23.129  0.0000E+00  0.1333E+00
    -22.973  0.0000E+00  0.1333E+00
    -22.816  0.0000E+00  0.1333E+00
    -22.660  0.0000E+00  0.1333E+00
    -22.503  0.0000E+00  0.1333E+00
    -22.346  0.0000E+00  0.1333E+00
    -22.190  0.0000E+00  0.1333E+00
    -22.033  0.0000E+00  0.1333E+00
    -21.877  0.0000E+00  0.1333E+00
    -21.720  0.0000E+00  0.1333E+00
    -21.564  0.0000E+00  0.1333E+00
    -21.407  0.0000E+00  0.1333E+00
    -21.250  0.0000E+00  0.1333E+00
    -21.094  0.0000E+00  0.1333E+00
    -20.937  0.0000E+00  0.1333E+00
    -20.781  0.0000E+00  0.1333E+00
    -20.624  0.0000E+00  0.1333E+00
    -20.468  0.0000E+00  0.1333E+00
    -20.311  0.0000E+00  0.1333E+00
    -20.155  0.0000E+00  0.1333E+00
    -19.998  0.0000E+00  0.1333E+00
    -19.841  0.0000E+00  0.1333E+00
    -19.685  0.0000E+00  0.1333E+00
    -19.528  0.0000E+00  0.1333E+00
    -19.372  0.0000E+00  0.1333E+00
    -19.215  0.0000E+00  0.1333E+00
    -19.059  0.0000E+00  0.1333E+00
    -18.902  0.0000E+00  0.1333E+00
    -18.745  0.0000E+00  0.1333E+00
    -18.589  0.0000E+00  0.1333E+00
    -18.432  0.0000E+00  0.1333E+00
    -18.276  0.0000E+00  0.1333E+00
    -18.119  0.0000E+00  0.1333E+00
    -17.963  0.0000E+00  0.1333E+00
    -17.806  0.0000E+00  0.1333E+00
    -17.649  0.4289E-28  0.1333E+00
    -17.493  0.3158E-18  0.1333E+00
    -17.336  0.1422E-10  0.1333E+00
    -17.180  0.3187E-05  0.1333E+00
    -17.023  0.1043E-02  0.1335E+00
    -16.867  0.2298E-01  0.1371E+00
    -16.710  0.2062E+00  0.1694E+00
    -16.553  0.4000E+00  0.2320E+00
    -16.397  0.7271E-02  0.2331E+00
    -16.240  0.1275E-02  0.2333E+00
    -16.084  0.2895E-05  0.2333E+00
    -15.927  0.1426E-10  0.2333E+00
    -15.771  0.0000E+00  0.2333E+00
    -15.614  0.0000E+00  0.2333E+00
    -15.457  0.0000E+00  0.2333E+00
    -15.301  0.0000E+00  0.2333E+00
    -15.144  0.0000E+00  0.2333E+00
    -14.988  0.0000E+00  0.2333E+00
    -14.831  0.0000E+00  0.2333E+00
    -14.675  0.0000E+00  0.2333E+00
    -14.518  0.0000E+00  0.2333E+00
    -14.362  0.0000E+00  0.2333E+00
    -14.205  0.0000E+00  0.2333E+00
    -14.048  0.0000E+00  0.2333E+00
    -13.892  0.0000E+00  0.2333E+00
    -13.735  0.0000E+00  0.2333E+00
    -13.579  0.0000E+00  0.2333E+00
    -13.422  0.0000E+00  0.2333E+00
    -13.266  0.0000E+00  0.2333E+00
    -13.109  0.0000E+00  0.2333E+00
    -12.952  0.0000E+00  0.2333E+00
    -12.796  0.0000E+00  0.2333E+00
    -12.639  0.0000E+00  0.2333E+00
    -12.483  0.0000E+00  0.2333E+00
    -12.326  0.0000E+00  0.2333E+00
    -12.170  0.0000E+00  0.2333E+00
    -12.013  0.0000E+00  0.2333E+00
    -11.856  0.0000E+00  0.2333E+00
    -11.700  0.0000E+00  0.2333E+00
    -11.543  0.0000E+00  0.2333E+00
    -11.387  0.0000E+00  0.2333E+00
    -11.230  0.0000E+00  0.2333E+00
    -11.074  0.0000E+00  0.2333E+00
    -10.917  0.0000E+00  0.2333E+00
    -10.760  0.4997E-30  0.2333E+00
    -10.604  0.2686E-20  0.2333E+00
    -10.447  0.8853E-13  0.2333E+00
    -10.291  0.1561E-07  0.2333E+00
    -10.134  0.1030E-04  0.2333E+00
     -9.978 -0.1033E-03  0.2333E+00
     -9.821  0.7011E-02  0.2344E+00
     -9.664  0.1747E-01  0.2372E+00
     -9.508  0.2785E-01  0.2415E+00
     -9.351  0.3096E-01  0.2464E+00
     -9.195  0.4211E-01  0.2530E+00
     -9.038  0.3684E-01  0.2587E+00
     -8.882  0.2621E-01  0.2628E+00
     -8.725  0.2378E-01  0.2665E+00
     -8.569  0.2299E-01  0.2701E+00
     -8.412  0.4213E-01  0.2767E+00
     -8.255  0.8970E-01  0.2908E+00
     -8.099  0.5646E-01  0.2996E+00
     -7.942  0.3643E-02  0.3002E+00
     -7.786  0.2591E-01  0.3043E+00
     -7.629  0.8354E-01  0.3173E+00
     -7.473  0.7852E-01  0.3296E+00
     -7.316  0.7298E-01  0.3411E+00
     -7.159  0.7894E-01  0.3534E+00
     -7.003  0.3626E-01  0.3591E+00
     -6.846  0.4003E-01  0.3654E+00
     -6.690  0.6383E-01  0.3754E+00
     -6.533  0.6134E-01  0.3850E+00
     -6.377  0.5003E-01  0.3928E+00
     -6.220  0.4470E-01  0.3998E+00
     -6.063  0.4491E-01  0.4068E+00
     -5.907  0.4723E-01  0.4142E+00
     -5.750  0.7570E-01  0.4261E+00
     -5.594  0.1214E+00  0.4451E+00
     -5.437  0.8216E-01  0.4579E+00
     -5.281  0.4376E-01  0.4648E+00
     -5.124  0.1207E-01  0.4667E+00
     -4.967  0.2307E-01  0.4703E+00
     -4.811  0.3392E-01  0.4756E+00
     -4.654  0.3979E-01  0.4818E+00
     -4.498  0.3797E-01  0.4878E+00
     -4.341  0.3750E-01  0.4936E+00
     -4.185  0.2654E-01  0.4978E+00
     -4.028  0.1667E-01  0.5004E+00
     -3.872  0.9658E-02  0.5019E+00
     -3.715  0.2302E-01  0.5055E+00
     -3.558  0.4380E-01  0.5124E+00
     -3.402  0.7883E-01  0.5247E+00
     -3.245  0.1039E+00  0.5410E+00
     -3.089  0.5168E-01  0.5491E+00
     -2.932  0.5646E-01  0.5579E+00
     -2.776  0.9606E-01  0.5730E+00
     -2.619  0.3730E-01  0.5788E+00
     -2.462  0.1233E+00  0.5981E+00
     -2.306  0.1006E+00  0.6139E+00
     -2.149  0.6003E-01  0.6233E+00
     -1.993  0.5477E-01  0.6318E+00
     -1.836  0.4514E-01  0.6389E+00
     -1.680  0.7414E-01  0.6505E+00
     -1.523  0.6815E-01  0.6612E+00
     -1.366  0.9244E-01  0.6756E+00
     -1.210  0.5001E-01  0.6835E+00
     -1.053  0.3048E-01  0.6882E+00
     -0.897  0.4147E-01  0.6947E+00
     -0.740  0.3217E-01  0.6998E+00
     -0.584  0.1333E-02  0.7000E+00
     -0.427  0.8571E-04  0.7000E+00
     -0.270  0.4480E-06  0.7000E+00
     -0.114  0.4654E-11  0.7000E+00
      0.043  0.2189E-18  0.7000E+00
      0.199  0.0000E+00  0.7000E+00
      0.356  0.0000E+00  0.7000E+00
      0.512  0.0000E+00  0.7000E+00
      0.669  0.0000E+00  0.7000E+00
      0.826  0.0000E+00  0.7000E+00
      0.982  0.0000E+00  0.7000E+00
      1.139  0.0000E+00  0.7000E+00
      1.295  0.0000E+00  0.7000E+00
      1.452  0.2798E-34  0.7000E+00
      1.608  0.1054E-23  0.7000E+00
      1.765  0.2608E-15  0.7000E+00
      1.921  0.3935E-09  0.7000E+00
      2.078  0.2856E-05  0.7000E+00
      2.235 -0.2543E-05  0.7000E+00
      2.391  0.3158E-02  0.7005E+00
      2.548  0.5072E-01  0.7084E+00
      2.704  0.1404E+00  0.7304E+00
      2.861  0.4748E-01  0.7379E+00
      3.017  0.7412E-01  0.7495E+00
      3.174  0.6020E-01  0.7589E+00
      3.331  0.5747E-01  0.7679E+00
      3.487  0.6250E-01  0.7777E+00
      3.644  0.7543E-01  0.7895E+00
      3.800  0.7352E-01  0.8010E+00
      3.957  0.1053E+00  0.8175E+00
      4.113  0.7537E-01  0.8293E+00
      4.270  0.6022E-01  0.8387E+00
      4.427  0.7850E-01  0.8510E+00
      4.583  0.1159E+00  0.8691E+00
      4.740  0.1078E+00  0.8860E+00
      4.896  0.1040E+00  0.9023E+00
      5.053  0.1008E+00  0.9181E+00
      5.209  0.1079E+00  0.9350E+00
      5.366  0.1022E+00  0.9510E+00
      5.523  0.1113E+00  0.9684E+00
      5.679  0.9640E-01  0.9835E+00
      5.836  0.9077E-01  0.9977E+00
      5.992  0.1032E+00  0.1014E+01
      6.149  0.9265E-01  0.1028E+01
      6.305  0.1251E+00  0.1048E+01
      6.462  0.9368E-01  0.1063E+01
      6.619  0.1060E+00  0.1079E+01
      6.775  0.9758E-01  0.1095E+01
      6.932  0.1023E+00  0.1111E+01
      7.088  0.1155E+00  0.1129E+01
      7.245  0.1109E+00  0.1146E+01
      7.401  0.1197E+00  0.1165E+01
      7.558  0.1056E+00  0.1181E+01
      7.714  0.8963E-01  0.1195E+01
      7.871  0.2580E-01  0.1199E+01
      8.028  0.3950E-02  0.1200E+01
      8.184  0.4364E-03  0.1200E+01
      8.341 -0.2291E-04  0.1200E+01
      8.497  0.8415E-06  0.1200E+01
      8.654  0.1562E-09  0.1200E+01
      8.810  0.9597E-16  0.1200E+01
      8.967  0.0000E+00  0.1200E+01
      9.124  0.0000E+00  0.1200E+01
      9.280  0.0000E+00  0.1200E+01
      9.437  0.0000E+00  0.1200E+01
      9.593  0.0000E+00  0.1200E+01
      9.750  0.0000E+00  0.1200E+01
      9.906  0.0000E+00  0.1200E+01
     10.063  0.0000E+00  0.1200E+01
     10.220  0.0000E+00  0.1200E+01
