unknown system                          
           1
     4.241413    0.078248    0.058723
     1.028050    4.454323   -0.114883
     0.504560   -0.120308    6.694800
   H 
  20
Direct configuration=     1
   0.71612700  0.28943300  0.29720900
   0.85809500  0.26668400  0.35756200
   0.19580900  0.45117500  0.18982300
   0.28530800  0.04632900  0.46446000
   0.37325200  0.05346000  0.36453500
   0.76151100  0.69787600  0.16705300
   0.60438800  0.76157200  0.12497100
   0.01783000  0.73454200  0.47899300
   0.83978100  0.75621800  0.46832100
   0.40229800  0.94641100  0.73957500
   0.28212800  0.85258500  0.75519300
   0.17056100  0.01966300  0.05588300
   0.11384200  0.91144100  0.12231900
   0.66506100  0.20291800  0.87238300
   0.75303900  0.08265400  0.93450900
   0.54076700  0.42390400  0.62210800
   0.37745700  0.39041600  0.63371900
   0.96734400  0.52590500  0.86022000
   0.89135900  0.61075400  0.77609900
   0.33422000  0.42364900  0.10938300
unknown system                          
           1
     4.290928    0.080486    0.057995
     1.041475    4.506764   -0.116384
     0.508123   -0.121175    6.776470
   H 
  20
Direct configuration=     2
   0.71601542  0.28960747  0.29730492
   0.85782919  0.26639365  0.35758441
   0.19613063  0.45082289  0.18981158
   0.28531591  0.04608672  0.46447668
   0.37323914  0.05320253  0.36432090
   0.76140054  0.69794114  0.16711782
   0.60421942  0.76190755  0.12477365
   0.01746684  0.73451332  0.47912486
   0.83974180  0.75647598  0.46854273
   0.40195842  0.94686265  0.73979156
   0.28167951  0.85314813  0.75528633
   0.17100977  0.01916782  0.05573772
   0.11417434  0.91143822  0.12218989
   0.66523593  0.20280543  0.87235506
   0.75262560  0.08287672  0.93453546
   0.54133007  0.42395670  0.62192285
   0.37736569  0.39023045  0.63382975
   0.96739590  0.52580114  0.85998980
   0.89177279  0.61056267  0.77618372
   0.33427008  0.42378780  0.10943832
unknown system                          
           1
     4.439471    0.087199    0.055810
     1.081749    4.664086   -0.120886
     0.518810   -0.123777    7.021479
   H 
  20
Direct configuration=     3
   0.71568455  0.29012486  0.29758915
   0.85704122  0.26553297  0.35765063
   0.19708475  0.44977859  0.18977788
   0.28533964  0.04536832  0.46452609
   0.37320084  0.05243921  0.36368633
   0.76107303  0.69813436  0.16730989
   0.60371883  0.76290272  0.12418868
   0.01639018  0.73442855  0.47951543
   0.83962573  0.75724085  0.46919988
   0.40095139  0.94820203  0.74043323
   0.28034914  0.85481820  0.75556270
   0.17234078  0.01769924  0.05530736
   0.11515965  0.91142974  0.12180745
   0.66575475  0.20247152  0.87227236
   0.75139950  0.08353745  0.93461367
   0.54299947  0.42411257  0.62137444
   0.37709531  0.38968031  0.63415793
   0.96754946  0.52549325  0.85930754
   0.89300022  0.60999496  0.77643506
   0.33441857  0.42419930  0.10960233
unknown system                          
           1
     4.450962    0.087781    0.055658
     1.084898    4.677574   -0.120759
     0.519631   -0.123256    7.041829
   H 
  20
Direct configuration=     4
   0.71597947  0.29011467  0.29774982
   0.85665629  0.26551527  0.35751657
   0.19749635  0.44962729  0.18958008
   0.28561366  0.04532850  0.46422115
   0.37292601  0.05235310  0.36394446
   0.76059797  0.69833523  0.16720264
   0.60412968  0.76279990  0.12426349
   0.01592823  0.73446813  0.47952601
   0.83998897  0.75725588  0.46927535
   0.40054940  0.94806826  0.74052571
   0.28055723  0.85520278  0.75554423
   0.17231880  0.01733417  0.05542370
   0.11537040  0.91167264  0.12162401
   0.66597516  0.20219815  0.87239431
   0.75111955  0.08383940  0.93449190
   0.54255627  0.42400608  0.62137438
   0.37765279  0.38975581  0.63414204
   0.96742043  0.52562725  0.85909582
   0.89324308  0.60978982  0.77661090
   0.33409724  0.42429668  0.10981144
unknown system                          
           1
     4.485433    0.089528    0.055203
     1.094345    4.718035   -0.120377
     0.522092   -0.121692    7.102879
   H 
  20
Direct configuration=     5
   0.71686207  0.29008401  0.29823047
   0.85550437  0.26546252  0.35711552
   0.19872785  0.44917472  0.18898846
   0.28643343  0.04520948  0.46330904
   0.37210379  0.05209543  0.36471659
   0.75917640  0.69893626  0.16688172
   0.60535914  0.76249222  0.12448735
   0.01454596  0.73458664  0.47955761
   0.84107593  0.75730072  0.46950116
   0.39934660  0.94766816  0.74080235
   0.28117990  0.85635315  0.75548892
   0.17225308  0.01624208  0.05577175
   0.11600092  0.91239927  0.12107528
   0.66663477  0.20138027  0.87275918
   0.75028180  0.08474276  0.93412758
   0.54123009  0.42368760  0.62137416
   0.37932095  0.38998153  0.63409456
   0.96703420  0.52602823  0.85846245
   0.89396989  0.60917604  0.77713696
   0.33313587  0.42458791  0.11043691
unknown system                          
           1
     4.554375    0.093021    0.054293
     1.113240    4.798958   -0.119613
     0.527015   -0.118565    7.224979
   H 
  20
Direct configuration=     6
   0.71861434  0.29002230  0.29918372
   0.85321766  0.26535887  0.35632006
   0.20117132  0.44827747  0.18781590
   0.28805935  0.04497416  0.46150076
   0.37047283  0.05158399  0.36624746
   0.75635464  0.70012899  0.16624483
   0.60779950  0.76188133  0.12493163
   0.01180259  0.73482221  0.47961987
   0.84323352  0.75738889  0.46994913
   0.39695969  0.94687504  0.74135072
   0.28241567  0.85863393  0.75537895
   0.17212303  0.01407628  0.05646229
   0.11725168  0.91384041  0.11998713
   0.66794431  0.19975783  0.87348312
   0.74861870  0.08653477  0.93340464
   0.53859799  0.42305671  0.62137355
   0.38263170  0.39042841  0.63400073
   0.96626692  0.52682419  0.85720636
   0.89541300  0.60795810  0.77818045
   0.33122857  0.42516510  0.11167672
unknown system                          
           1
     4.692259    0.100008    0.052472
     1.151029    4.960804   -0.118085
     0.536861   -0.112311    7.469179
   H 
  20
Direct configuration=     7
   0.72206827  0.28989737  0.30105882
   0.84871130  0.26515879  0.35475509
   0.20598194  0.44651370  0.18551229
   0.29125807  0.04451401  0.45794634
   0.36726353  0.05057645  0.36925701
   0.75079468  0.70247804  0.16499037
   0.61260773  0.76067711  0.12580676
   0.00639863  0.73528761  0.47974084
   0.84748472  0.75755941  0.47083084
   0.39225900  0.94531643  0.74242840
   0.28484983  0.86311771  0.75516154
   0.17186834  0.00981637  0.05782159
   0.11971309  0.91667535  0.11784713
   0.67052554  0.19656501  0.87490834
   0.74534100  0.09006131  0.93198108
   0.53341303  0.42181849  0.62137162
   0.38915329  0.39130446  0.63381744
   0.96475261  0.52839266  0.85473574
   0.89825811  0.60555978  0.78023372
   0.32747427  0.42629893  0.11411305
unknown system                          
           1
     4.752277    0.102920    0.051670
     1.167444    5.027313   -0.119043
     0.541228   -0.112052    7.571874
   H 
  20
Direct configuration=     8
   0.72227334  0.29008187  0.30129822
   0.84812360  0.26486891  0.35461736
   0.20683817  0.44600203  0.18520188
   0.29181004  0.04427961  0.45739007
   0.36671253  0.05024626  0.36962552
   0.74997551  0.70282913  0.16487795
   0.61318749  0.76073784  0.12578602
   0.00564220  0.73527213  0.47985436
   0.84781618  0.75778891  0.47108320
   0.39144973  0.94545323  0.74271012
   0.28481767  0.86406174  0.75518002
   0.17219852  0.00901915  0.05782601
   0.12018448  0.91695079  0.11755675
   0.67095991  0.19613253  0.87503919
   0.74463442  0.09062845  0.93184918
   0.53288339  0.42166400  0.62125326
   0.39016570  0.39134566  0.63387944
   0.96465213  0.52843250  0.85435386
   0.89884663  0.60522042  0.78046247
   0.32700536  0.42657384  0.11447312
unknown system                          
           1
     4.912943    0.110717    0.049523
     1.211388    5.205354   -0.121608
     0.552918   -0.111357    7.846782
   H 
  20
Direct configuration=     9
   0.72281576  0.29056883  0.30193046
   0.84657000  0.26410382  0.35425345
   0.20910108  0.44465001  0.18438273
   0.29326810  0.04366051  0.45592150
   0.36525698  0.04937416  0.37059841
   0.74780980  0.70375733  0.16458059
   0.61471990  0.76089781  0.12573153
   0.00364296  0.73523177  0.48015373
   0.84869268  0.75839459  0.47174972
   0.38931108  0.94581498  0.74345358
   0.28473220  0.86655543  0.75522862
   0.17307173  0.00691299  0.05783802
   0.12142980  0.91767825  0.11679016
   0.67210857  0.19498962  0.87538501
   0.74276616  0.09212729  0.93150042
   0.53148323  0.42125648  0.62094049
   0.39284188  0.39145358  0.63404366
   0.96438577  0.52853822  0.85334540
   0.90040288  0.60432327  0.78106689
   0.32576644  0.42730006  0.11542361
unknown system                          
           1
     4.900533    0.110200    0.049171
     1.208151    5.189420   -0.121953
     0.551218   -0.112022    7.823757
   H 
  20
Direct configuration=    10
   0.72267863  0.29059620  0.30185303
   0.84678465  0.26411465  0.35429660
   0.20843549  0.44478710  0.18473626
   0.29259289  0.04363062  0.45673556
   0.36593873  0.04946618  0.36983434
   0.74862677  0.70341194  0.16479763
   0.61399606  0.76115885  0.12554670
   0.00394659  0.73518780  0.48014563
   0.84846410  0.75837712  0.47169182
   0.38982932  0.94607697  0.74335675
   0.28435544  0.86611108  0.75525194
   0.17306651  0.00716256  0.05776203
   0.12127613  0.91752344  0.11691551
   0.67187112  0.19530670  0.87523545
   0.74303044  0.09180519  0.93164809
   0.53281033  0.42155542  0.62084571
   0.39141286  0.39120079  0.63416503
   0.96442057  0.52850063  0.85345146
   0.90027743  0.60442337  0.78098509
   0.32636295  0.42719237  0.11506336
unknown system                          
           1
     4.901436    0.110238    0.049197
     1.208387    5.190579   -0.121928
     0.551342   -0.111974    7.825432
   H 
  20
Direct configuration=    11
   0.72268863  0.29059421  0.30185868
   0.84676900  0.26411386  0.35429345
   0.20848404  0.44477709  0.18471047
   0.29264214  0.04363279  0.45667617
   0.36588901  0.04945948  0.36989009
   0.74856718  0.70343714  0.16478179
   0.61404885  0.76113980  0.12556019
   0.00392444  0.73519101  0.48014622
   0.84848077  0.75837839  0.47169604
   0.38979152  0.94605785  0.74336381
   0.28438292  0.86614351  0.75525024
   0.17306689  0.00714435  0.05776757
   0.12128734  0.91753473  0.11690637
   0.67188845  0.19528356  0.87524637
   0.74301116  0.09182869  0.93163732
   0.53271354  0.42153361  0.62085262
   0.39151708  0.39121924  0.63415618
   0.96441803  0.52850338  0.85344372
   0.90028658  0.60441607  0.78099106
   0.32631944  0.42720023  0.11508965
