   14   14   60    1
  0.7951061E+01  0.3245615E-09  0.6007001E-09  0.6934321E-09  0.5000000E-15
  1.000000000000000E-004
  CAR 
 unknown system                          
     33    365     24
 
  0.3742002E-15  0.3742002E-15  0.3742002E-15  0.1373626E-02
    1      -33.949587   1.000000
    2      -29.537314   1.000000
    3      -29.516798   1.000000
    4      -29.451678   1.000000
    5      -16.141973   1.000000
    6      -15.988777   1.000000
    7      -15.515464   1.000000
    8       -8.608149   1.000000
    9       -6.358201   1.000000
   10       -5.674523   1.000000
   11       -5.051117   1.000000
   12       -3.320742   1.000000
   13       -2.704460   1.000000
   14       -2.213185   1.000000
   15       -1.026460   1.000000
   16        1.941671   0.000000
   17        2.441642   0.000000
   18        2.699196   0.000000
   19        2.923049   0.000000
   20        3.707935   0.000000
   21        4.365104   0.000000
   22        5.904195   0.000000
   23        6.689940   0.000000
   24        7.051531   0.000000
 
  0.7692308E-01  0.3747003E-15  0.3642919E-15  0.2747253E-02
    1      -33.941892   1.000000
    2      -29.539157   1.000000
    3      -29.534252   1.000000
    4      -29.449110   1.000000
    5      -16.129866   1.000000
    6      -15.978017   1.000000
    7      -15.597070   1.000000
    8       -8.531720   1.000000
    9       -6.330349   1.000000
   10       -5.597598   1.000000
   11       -5.019378   1.000000
   12       -3.294814   1.000000
   13       -2.690185   1.000000
   14       -2.228289   1.000000
   15       -1.042584   1.000000
   16        1.251098   1.047585
   17        2.208547   0.000000
   18        2.978712   0.000000
   19        3.229171   0.000000
   20        4.044621   0.000000
   21        4.522562   0.000000
   22        5.948750   0.000000
   23        6.702869   0.000000
   24        6.864885   0.000000
 
  0.1538462E+00  0.3747003E-15  0.3608225E-15  0.2747253E-02
    1      -33.920471   1.000000
    2      -29.599384   1.000000
    3      -29.526893   1.000000
    4      -29.441880   1.000000
    5      -16.096225   1.000000
    6      -15.948044   1.000000
    7      -15.815660   1.000000
    8       -8.312189   1.000000
    9       -6.263287   1.000000
   10       -5.391606   1.000000
   11       -4.911495   1.000000
   12       -3.241118   1.000000
   13       -2.664060   1.000000
   14       -2.262640   1.000000
   15       -1.124093   1.000000
   16        0.409880   1.000000
   17        1.667189   0.000064
   18        3.389792   0.000000
   19        3.761391   0.000000
   20        4.500460   0.000000
   21        4.829893   0.000000
   22        5.969024   0.000000
   23        6.442941   0.000000
   24        6.778832   0.000000
 
  0.2307692E+00  0.3747003E-15  0.3538836E-15  0.2747253E-02
    1      -33.890014   1.000000
    2      -29.683674   1.000000
    3      -29.516089   1.000000
    4      -29.431665   1.000000
    5      -16.110728   1.000000
    6      -16.046431   1.000000
    7      -15.904318   1.000000
    8       -7.985964   1.000000
    9       -6.193247   1.000000
   10       -5.158612   1.000000
   11       -4.668822   1.000000
   12       -3.211007   1.000000
   13       -2.671014   1.000000
   14       -2.292090   1.000000
   15       -1.330975   1.000000
   16       -0.262621   1.000000
   17        1.329924   0.571964
   18        3.698788   0.000000
   19        4.267182   0.000000
   20        4.605838   0.000000
   21        5.077431   0.000000
   22        5.803754   0.000000
   23        6.440575   0.000000
   24        6.535872   0.000000
 
  0.3076923E+00  0.3747003E-15  0.3469447E-15  0.2747253E-02
    1      -33.857352   1.000000
    2      -29.771896   1.000000
    3      -29.504760   1.000000
    4      -29.420868   1.000000
    5      -16.403441   1.000000
    6      -15.995871   1.000000
    7      -15.857535   1.000000
    8       -7.599935   1.000000
    9       -6.151605   1.000000
   10       -5.020907   1.000000
   11       -4.261929   1.000000
   12       -3.246731   1.000000
   13       -2.721625   1.000000
   14       -2.327064   1.000000
   15       -1.620741   1.000000
   16       -0.732203   1.000000
   17        1.223459   1.043575
   18        3.871024   0.000000
   19        4.266216   0.000000
   20        4.522645   0.000000
   21        5.414815   0.000000
   22        5.702870   0.000000
   23        6.186144   0.000000
   24        6.427656   0.000000
 
  0.3846154E+00  0.3764350E-15  0.3330669E-15  0.2747253E-02
    1      -33.830006   1.000000
    2      -29.843928   1.000000
    3      -29.495294   1.000000
    4      -29.411848   1.000000
    5      -16.635486   1.000000
    6      -15.952404   1.000000
    7      -15.817914   1.000000
    8       -7.211921   1.000000
    9       -6.166318   1.000000
   10       -4.969142   1.000000
   11       -3.818534   1.000000
   12       -3.320679   1.000000
   13       -2.754132   1.000000
   14       -2.404671   1.000000
   15       -1.892775   1.000000
   16       -1.030758   1.000000
   17        1.235715   1.050772
   18        3.794543   0.000000
   19        4.158294   0.000000
   20        4.649520   0.000000
   21        5.223544   0.000000
   22        5.764272   0.000000
   23        5.887365   0.000000
   24        6.360635   0.000000
 
  0.4615385E+00  0.3747003E-15  0.3330669E-15  0.2747253E-02
    1      -33.814455   1.000000
    2      -29.884155   1.000000
    3      -29.489931   1.000000
    4      -29.406736   1.000000
    5      -16.762345   1.000000
    6      -15.927768   1.000000
    7      -15.795052   1.000000
    8       -6.924351   1.000000
    9       -6.230574   1.000000
   10       -4.964406   1.000000
   11       -3.579388   1.000000
   12       -3.280818   1.000000
   13       -2.728977   1.000000
   14       -2.535305   1.000000
   15       -2.070110   1.000000
   16       -1.182552   1.000000
   17        1.262409   1.031283
   18        3.719838   0.000000
   19        4.047035   0.000000
   20        4.904407   0.000000
   21        5.099615   0.000000
   22        5.576528   0.000000
   23        5.730379   0.000000
   24        6.611846   0.000000
 
  0.3751340E-15  0.1250000E+00  0.3330669E-15  0.2747253E-02
    1      -33.949725   1.000000
    2      -29.537282   1.000000
    3      -29.516792   1.000000
    4      -29.451572   1.000000
    5      -16.143564   1.000000
    6      -15.993262   1.000000
    7      -15.515656   1.000000
    8       -8.531932   1.000000
    9       -6.524654   1.000000
   10       -5.593253   1.000000
   11       -5.020445   1.000000
   12       -3.339912   1.000000
   13       -2.705467   1.000000
   14       -2.306777   1.000000
   15       -0.965963   1.000000
   16        1.920993   0.000000
   17        2.452970   0.000000
   18        2.705474   0.000000
   19        2.878281   0.000000
   20        3.770811   0.000000
   21        4.411714   0.000000
   22        5.985007   0.000000
   23        6.748858   0.000000
   24        7.062440   0.000000
 
  0.7692308E-01  0.1250000E+00  0.3469447E-15  0.2747253E-02
    1      -33.942018   1.000000
    2      -29.539184   1.000000
    3      -29.533912   1.000000
    4      -29.448914   1.000000
    5      -16.131584   1.000000
    6      -15.982059   1.000000
    7      -15.596998   1.000000
    8       -8.440927   1.000000
    9       -6.502068   1.000000
   10       -5.517891   1.000000
   11       -5.001826   1.000000
   12       -3.311450   1.000000
   13       -2.692220   1.000000
   14       -2.302238   1.000000
   15       -0.986980   1.000000
   16        1.220004   1.040685
   17        2.207944   0.000000
   18        3.030639   0.000000
   19        3.226950   0.000000
   20        4.129209   0.000000
   21        4.537763   0.000000
   22        6.045429   0.000000
   23        6.728396   0.000000
   24        6.859736   0.000000
 
  0.1538462E+00  0.1250000E+00  0.3469447E-15  0.2747253E-02
    1      -33.920573   1.000000
    2      -29.599371   1.000000
    3      -29.526704   1.000000
    4      -29.441765   1.000000
    5      -16.098109   1.000000
    6      -15.951241   1.000000
    7      -15.815334   1.000000
    8       -8.215325   1.000000
    9       -6.427744   1.000000
   10       -5.317241   1.000000
   11       -4.910787   1.000000
   12       -3.260443   1.000000
   13       -2.649095   1.000000
   14       -2.328165   1.000000
   15       -1.082750   1.000000
   16        0.368420   1.000000
   17        1.671861   0.000050
   18        3.463230   0.000000
   19        3.824755   0.000000
   20        4.568669   0.000000
   21        4.835425   0.000000
   22        5.989991   0.000000
   23        6.458926   0.000000
   24        6.739368   0.000000
 
  0.2307692E+00  0.1250000E+00  0.3330669E-15  0.2747253E-02
    1      -33.890084   1.000000
    2      -29.683864   1.000000
    3      -29.516092   1.000000
    4      -29.431606   1.000000
    5      -16.110108   1.000000
    6      -16.048478   1.000000
    7      -15.906522   1.000000
    8       -7.891687   1.000000
    9       -6.335495   1.000000
   10       -5.090574   1.000000
   11       -4.690700   1.000000
   12       -3.240210   1.000000
   13       -2.622469   1.000000
   14       -2.368894   1.000000
   15       -1.291294   1.000000
   16       -0.314194   1.000000
   17        1.332865   0.541062
   18        3.711606   0.000000
   19        4.255975   0.000000
   20        4.745788   0.000000
   21        5.246603   0.000000
   22        5.799302   0.000000
   23        6.134512   0.000000
   24        6.574167   0.000000
 
  0.3076923E+00  0.1250000E+00  0.3608225E-15  0.2747253E-02
    1      -33.857369   1.000000
    2      -29.771991   1.000000
    3      -29.504720   1.000000
    4      -29.420808   1.000000
    5      -16.402384   1.000000
    6      -15.997374   1.000000
    7      -15.858540   1.000000
    8       -7.515550   1.000000
    9       -6.260248   1.000000
   10       -4.971116   1.000000
   11       -4.285585   1.000000
   12       -3.282293   1.000000
   13       -2.645026   1.000000
   14       -2.425703   1.000000
   15       -1.562686   1.000000
   16       -0.778522   1.000000
   17        1.202713   1.024405
   18        3.733994   0.000000
   19        4.179081   0.000000
   20        4.905031   0.000000
   21        5.540351   0.000000
   22        5.780165   0.000000
   23        6.023538   0.000000
   24        6.237621   0.000000
 
  0.3846154E+00  0.1250000E+00  0.3330669E-15  0.2747253E-02
    1      -33.829980   1.000000
    2      -29.844038   1.000000
    3      -29.495341   1.000000
    4      -29.411818   1.000000
    5      -16.634142   1.000000
    6      -15.953734   1.000000
    7      -15.817797   1.000000
    8       -7.149034   1.000000
    9       -6.229174   1.000000
   10       -4.955656   1.000000
   11       -3.823841   1.000000
   12       -3.362575   1.000000
   13       -2.676363   1.000000
   14       -2.533864   1.000000
   15       -1.814937   1.000000
   16       -1.045559   1.000000
   17        1.179473   1.006122
   18        3.686752   0.000000
   19        4.079676   0.000000
   20        4.924055   0.000000
   21        5.357389   0.000000
   22        5.653619   0.000000
   23        5.939537   0.000000
   24        6.352282   0.000000
 
  0.4615385E+00  0.1250000E+00  0.2775558E-15  0.2747253E-02
    1      -33.814402   1.000000
    2      -29.884289   1.000000
    3      -29.490088   1.000000
    4      -29.406726   1.000000
    5      -16.761086   1.000000
    6      -15.928563   1.000000
    7      -15.794501   1.000000
    8       -6.893824   1.000000
    9       -6.240034   1.000000
   10       -4.994086   1.000000
   11       -3.569585   1.000000
   12       -3.299735   1.000000
   13       -2.783934   1.000000
   14       -2.560513   1.000000
   15       -1.992331   1.000000
   16       -1.169631   1.000000
   17        1.187087   1.011171
   18        3.695416   0.000000
   19        4.053076   0.000000
   20        4.825708   0.000000
   21        5.267739   0.000000
   22        5.613061   0.000000
   23        5.765996   0.000000
   24        6.695199   0.000000
 
 -0.4615385E+00  0.1250000E+00  0.4371503E-15  0.2747253E-02
    1      -33.814397   1.000000
    2      -29.884347   1.000000
    3      -29.490024   1.000000
    4      -29.406683   1.000000
    5      -16.761147   1.000000
    6      -15.928219   1.000000
    7      -15.794214   1.000000
    8       -6.916565   1.000000
    9       -6.210773   1.000000
   10       -5.013420   1.000000
   11       -3.592226   1.000000
   12       -3.233900   1.000000
   13       -2.896111   1.000000
   14       -2.428677   1.000000
   15       -2.026888   1.000000
   16       -1.173612   1.000000
   17        1.188941   1.012555
   18        3.721223   0.000000
   19        4.137833   0.000000
   20        4.736741   0.000000
   21        5.171024   0.000000
   22        5.660069   0.000000
   23        5.847033   0.000000
   24        6.545595   0.000000
 
 -0.3846154E+00  0.1250000E+00  0.3920475E-15  0.2747253E-02
    1      -33.829965   1.000000
    2      -29.844094   1.000000
    3      -29.495305   1.000000
    4      -29.411826   1.000000
    5      -16.634394   1.000000
    6      -15.952625   1.000000
    7      -15.817479   1.000000
    8       -7.201660   1.000000
    9       -6.163714   1.000000
   10       -5.003380   1.000000
   11       -3.801250   1.000000
   12       -3.318023   1.000000
   13       -2.851957   1.000000
   14       -2.320620   1.000000
   15       -1.875715   1.000000
   16       -1.033215   1.000000
   17        1.173010   1.002663
   18        3.768630   0.000000
   19        4.310754   0.000000
   20        4.662862   0.000000
   21        5.144872   0.000000
   22        5.699631   0.000000
   23        6.082000   0.000000
   24        6.413799   0.000000
 
 -0.3076923E+00  0.1250000E+00  0.3894454E-15  0.2747253E-02
    1      -33.857350   1.000000
    2      -29.772028   1.000000
    3      -29.504730   1.000000
    4      -29.420857   1.000000
    5      -16.402727   1.000000
    6      -15.995846   1.000000
    7      -15.858172   1.000000
    8       -7.583266   1.000000
    9       -6.183274   1.000000
   10       -5.021313   1.000000
   11       -4.216376   1.000000
   12       -3.279515   1.000000
   13       -2.773758   1.000000
   14       -2.297534   1.000000
   15       -1.602434   1.000000
   16       -0.747403   1.000000
   17        1.177966   1.005248
   18        3.804027   0.000000
   19        4.374225   0.000000
   20        4.693574   0.000000
   21        5.264090   0.000000
   22        5.733185   0.000000
   23        6.198561   0.000000
   24        6.459768   0.000000
 
 -0.2307692E+00  0.1250000E+00  0.3903128E-15  0.2747253E-02
    1      -33.890061   1.000000
    2      -29.683750   1.000000
    3      -29.516080   1.000000
    4      -29.431628   1.000000
    5      -16.110621   1.000000
    6      -16.046228   1.000000
    7      -15.906100   1.000000
    8       -7.956848   1.000000
    9       -6.262681   1.000000
   10       -5.122289   1.000000
   11       -4.614980   1.000000
   12       -3.249245   1.000000
   13       -2.691447   1.000000
   14       -2.327145   1.000000
   15       -1.299449   1.000000
   16       -0.290116   1.000000
   17        1.306871   0.795164
   18        3.671156   0.000000
   19        4.305851   0.000000
   20        4.717995   0.000000
   21        5.044344   0.000000
   22        5.812372   0.000000
   23        6.324384   0.000000
   24        6.592196   0.000000
 
 -0.1538462E+00  0.1250000E+00  0.3642919E-15  0.2747253E-02
    1      -33.920560   1.000000
    2      -29.599401   1.000000
    3      -29.526857   1.000000
    4      -29.441810   1.000000
    5      -16.096706   1.000000
    6      -15.951596   1.000000
    7      -15.815025   1.000000
    8       -8.268382   1.000000
    9       -6.373088   1.000000
   10       -5.330000   1.000000
   11       -4.861631   1.000000
   12       -3.273343   1.000000
   13       -2.653036   1.000000
   14       -2.353678   1.000000
   15       -1.081908   1.000000
   16        0.377796   1.000000
   17        1.658293   0.000103
   18        3.394727   0.000000
   19        3.799181   0.000000
   20        4.487717   0.000000
   21        4.873805   0.000000
   22        5.915077   0.000000
   23        6.429836   0.000000
   24        6.761328   0.000000
 
 -0.7692308E-01  0.1250000E+00  0.3677614E-15  0.2747253E-02
    1      -33.942010   1.000000
    2      -29.539015   1.000000
    3      -29.534150   1.000000
    4      -29.448956   1.000000
    5      -16.130779   1.000000
    6      -15.982124   1.000000
    7      -15.596878   1.000000
    8       -8.469459   1.000000
    9       -6.473201   1.000000
   10       -5.521940   1.000000
   11       -4.974631   1.000000
   12       -3.318812   1.000000
   13       -2.678037   1.000000
   14       -2.333763   1.000000
   15       -0.986250   1.000000
   16        1.222074   1.042448
   17        2.202396   0.000000
   18        3.014756   0.000000
   19        3.217505   0.000000
   20        4.069565   0.000000
   21        4.544129   0.000000
   22        5.948881   0.000000
   23        6.763615   0.000000
   24        6.892124   0.000000
 
  0.3768687E-15  0.2500000E+00  0.3053113E-15  0.2747253E-02
    1      -33.950047   1.000000
    2      -29.536621   1.000000
    3      -29.516718   1.000000
    4      -29.451111   1.000000
    5      -16.146458   1.000000
    6      -16.003396   1.000000
    7      -15.515848   1.000000
    8       -8.313450   1.000000
    9       -6.813257   1.000000
   10       -5.607416   1.000000
   11       -4.877806   1.000000
   12       -3.361091   1.000000
   13       -2.760001   1.000000
   14       -2.419097   1.000000
   15       -0.873363   1.000000
   16        1.888272   0.000000
   17        2.480628   0.000000
   18        2.709927   0.000000
   19        2.796409   0.000000
   20        3.894854   0.000000
   21        4.620162   0.000000
   22        6.066675   0.000000
   23        6.792796   0.000000
   24        7.100526   0.000000
 
  0.7692308E-01  0.2500000E+00  0.3885781E-15  0.2747253E-02
    1      -33.942328   1.000000
    2      -29.539235   1.000000
    3      -29.533455   1.000000
    4      -29.448574   1.000000
    5      -16.134792   1.000000
    6      -15.991711   1.000000
    7      -15.597022   1.000000
    8       -8.218309   1.000000
    9       -6.788806   1.000000
   10       -5.561037   1.000000
   11       -4.851202   1.000000
   12       -3.332339   1.000000
   13       -2.754663   1.000000
   14       -2.395604   1.000000
   15       -0.906096   1.000000
   16        1.172151   1.002261
   17        2.179746   0.000000
   18        3.107324   0.000000
   19        3.253148   0.000000
   20        4.223759   0.000000
   21        4.679991   0.000000
   22        6.158558   0.000000
   23        6.630923   0.000000
   24        6.883372   0.000000
 
  0.1538462E+00  0.2500000E+00  0.3053113E-15  0.2747253E-02
    1      -33.920815   1.000000
    2      -29.599407   1.000000
    3      -29.526320   1.000000
    4      -29.441456   1.000000
    5      -16.101052   1.000000
    6      -15.959066   1.000000
    7      -15.814400   1.000000
    8       -7.998210   1.000000
    9       -6.697352   1.000000
   10       -5.368815   1.000000
   11       -4.764983   1.000000
   12       -3.288099   1.000000
   13       -2.696032   1.000000
   14       -2.403537   1.000000
   15       -1.011430   1.000000
   16        0.303474   1.000000
   17        1.648673   0.000168
   18        3.554782   0.000000
   19        3.940990   0.000000
   20        4.659005   0.000000
   21        4.936455   0.000000
   22        6.018999   0.000000
   23        6.252061   0.000000
   24        6.699548   0.000000
 
  0.2307692E+00  0.2500000E+00  0.3608225E-15  0.2747253E-02
    1      -33.890220   1.000000
    2      -29.684027   1.000000
    3      -29.515854   1.000000
    4      -29.431413   1.000000
    5      -16.108898   1.000000
    6      -16.050611   1.000000
    7      -15.911567   1.000000
    8       -7.692845   1.000000
    9       -6.575808   1.000000
   10       -5.107987   1.000000
   11       -4.603277   1.000000
   12       -3.275955   1.000000
   13       -2.636624   1.000000
   14       -2.441761   1.000000
   15       -1.205300   1.000000
   16       -0.397999   1.000000
   17        1.288959   0.925945
   18        3.716212   0.000000
   19        4.311296   0.000000
   20        5.030029   0.000000
   21        5.429012   0.000000
   22        5.694963   0.000000
   23        5.896408   0.000000
   24        6.560787   0.000000
 
  0.3076923E+00  0.2500000E+00  0.2220446E-15  0.2747253E-02
    1      -33.857394   1.000000
    2      -29.772341   1.000000
    3      -29.504642   1.000000
    4      -29.420696   1.000000
    5      -16.400238   1.000000
    6      -15.999580   1.000000
    7      -15.860518   1.000000
    8       -7.348288   1.000000
    9       -6.445883   1.000000
   10       -4.960054   1.000000
   11       -4.269693   1.000000
   12       -3.321666   1.000000
   13       -2.630344   1.000000
   14       -2.514463   1.000000
   15       -1.439344   1.000000
   16       -0.859938   1.000000
   17        1.103421   0.996751
   18        3.676769   0.000000
   19        4.235280   0.000000
   20        5.158869   0.000000
   21        5.447397   0.000000
   22        5.849907   0.000000
   23        5.964602   0.000000
   24        6.537263   0.000000
 
  0.3846154E+00  0.2500000E+00  0.2498002E-15  0.2747253E-02
    1      -33.829900   1.000000
    2      -29.844344   1.000000
    3      -29.495228   1.000000
    4      -29.411736   1.000000
    5      -16.631342   1.000000
    6      -15.955407   1.000000
    7      -15.817061   1.000000
    8       -7.024912   1.000000
    9       -6.326923   1.000000
   10       -4.984772   1.000000
   11       -3.821025   1.000000
   12       -3.397380   1.000000
   13       -2.705519   1.000000
   14       -2.591893   1.000000
   15       -1.670759   1.000000
   16       -1.071196   1.000000
   17        1.022633   0.999849
   18        3.677782   0.000000
   19        4.161680   0.000000
   20        4.894776   0.000000
   21        5.282661   0.000000
   22        5.844721   0.000000
   23        6.082052   0.000000
   24        6.653258   0.000000
 
  0.4615385E+00  0.2500000E+00  0.3053113E-15  0.2747253E-02
    1      -33.814267   1.000000
    2      -29.884565   1.000000
    3      -29.489995   1.000000
    4      -29.406752   1.000000
    5      -16.757839   1.000000
    6      -15.930155   1.000000
    7      -15.792104   1.000000
    8       -6.829492   1.000000
    9       -6.233666   1.000000
   10       -5.078460   1.000000
   11       -3.575799   1.000000
   12       -3.305441   1.000000
   13       -2.909978   1.000000
   14       -2.565357   1.000000
   15       -1.835926   1.000000
   16       -1.143119   1.000000
   17        1.001975   0.999950
   18        3.712151   0.000000
   19        4.191659   0.000000
   20        4.737892   0.000000
   21        5.195665   0.000000
   22        5.779723   0.000000
   23        5.973882   0.000000
   24        6.675860   0.000000
 
 -0.4615385E+00  0.2500000E+00  0.3955170E-15  0.2747253E-02
    1      -33.814264   1.000000
    2      -29.884707   1.000000
    3      -29.490054   1.000000
    4      -29.406774   1.000000
    5      -16.758106   1.000000
    6      -15.929598   1.000000
    7      -15.792174   1.000000
    8       -6.869377   1.000000
    9       -6.191080   1.000000
   10       -5.100511   1.000000
   11       -3.618611   1.000000
   12       -3.184914   1.000000
   13       -3.039171   1.000000
   14       -2.466152   1.000000
   15       -1.866737   1.000000
   16       -1.144354   1.000000
   17        1.009144   0.999925
   18        3.688195   0.000000
   19        4.331808   0.000000
   20        4.758332   0.000000
   21        5.179477   0.000000
   22        5.660585   0.000000
   23        6.003510   0.000000
   24        6.593409   0.000000
 
 -0.3846154E+00  0.2500000E+00  0.3747003E-15  0.2747253E-02
    1      -33.829884   1.000000
    2      -29.844488   1.000000
    3      -29.495344   1.000000
    4      -29.411818   1.000000
    5      -16.631798   1.000000
    6      -15.953870   1.000000
    7      -15.817043   1.000000
    8       -7.119933   1.000000
    9       -6.231210   1.000000
   10       -5.026747   1.000000
   11       -3.792161   1.000000
   12       -3.356488   1.000000
   13       -2.901362   1.000000
   14       -2.379037   1.000000
   15       -1.742631   1.000000
   16       -1.045396   1.000000
   17        1.026330   0.999819
   18        3.689396   0.000000
   19        4.432867   0.000000
   20        4.904753   0.000000
   21        5.216862   0.000000
   22        5.663716   0.000000
   23        6.154861   0.000000
   24        6.397330   0.000000
 
 -0.3076923E+00  0.2500000E+00  0.3677614E-15  0.2747253E-02
    1      -33.857365   1.000000
    2      -29.772329   1.000000
    3      -29.504687   1.000000
    4      -29.420818   1.000000
    5      -16.400618   1.000000
    6      -15.997178   1.000000
    7      -15.860263   1.000000
    8       -7.464572   1.000000
    9       -6.343765   1.000000
   10       -4.970215   1.000000
   11       -4.177519   1.000000
   12       -3.352750   1.000000
   13       -2.785856   1.000000
   14       -2.375339   1.000000
   15       -1.497518   1.000000
   16       -0.808557   1.000000
   17        1.085012   0.998032
   18        3.747624   0.000000
   19        4.383076   0.000000
   20        5.076830   0.000000
   21        5.313066   0.000000
   22        5.845031   0.000000
   23        6.069096   0.000000
   24        6.335321   0.000000
 
 -0.2307692E+00  0.2500000E+00  0.3608225E-15  0.2747253E-02
    1      -33.890186   1.000000
    2      -29.683905   1.000000
    3      -29.515875   1.000000
    4      -29.431488   1.000000
    5      -16.109738   1.000000
    6      -16.047430   1.000000
    7      -15.910908   1.000000
    8       -7.806549   1.000000
    9       -6.489120   1.000000
   10       -5.033395   1.000000
   11       -4.557730   1.000000
   12       -3.319663   1.000000
   13       -2.676017   1.000000
   14       -2.449027   1.000000
   15       -1.212814   1.000000
   16       -0.372644   1.000000
   17        1.262434   1.031230
   18        3.727472   0.000000
   19        4.306326   0.000000
   20        4.951070   0.000000
   21        5.137323   0.000000
   22        5.778995   0.000000
   23        6.133950   0.000000
   24        6.567706   0.000000
 
 -0.1538462E+00  0.2500000E+00  0.3747003E-15  0.2747253E-02
    1      -33.920791   1.000000
    2      -29.599469   1.000000
    3      -29.526420   1.000000
    4      -29.441556   1.000000
    5      -16.098954   1.000000
    6      -15.959377   1.000000
    7      -15.814034   1.000000
    8       -8.089814   1.000000
    9       -6.640008   1.000000
   10       -5.268695   1.000000
   11       -4.760775   1.000000
   12       -3.325832   1.000000
   13       -2.616240   1.000000
   14       -2.528876   1.000000
   15       -1.000914   1.000000
   16        0.302388   1.000000
   17        1.630803   0.000391
   18        3.481603   0.000000
   19        3.948003   0.000000
   20        4.516837   0.000000
   21        4.943975   0.000000
   22        5.771375   0.000000
   23        6.434635   0.000000
   24        6.746823   0.000000
 
 -0.7692308E-01  0.2500000E+00  0.3191891E-15  0.2747253E-02
    1      -33.942311   1.000000
    2      -29.539002   1.000000
    3      -29.533715   1.000000
    4      -29.448631   1.000000
    5      -16.133567   1.000000
    6      -15.991777   1.000000
    7      -15.596842   1.000000
    8       -8.267721   1.000000
    9       -6.759178   1.000000
   10       -5.502259   1.000000
   11       -4.848905   1.000000
   12       -3.353087   1.000000
   13       -2.701959   1.000000
   14       -2.472537   1.000000
   15       -0.898258   1.000000
   16        1.162360   0.998565
   17        2.169039   0.000000
   18        3.081809   0.000000
   19        3.261913   0.000000
   20        4.160311   0.000000
   21        4.664960   0.000000
   22        5.904139   0.000000
   23        6.824833   0.000000
   24        6.947052   0.000000
 
  0.3773024E-15  0.3750000E+00  0.3053113E-15  0.2747253E-02
    1      -33.950376   1.000000
    2      -29.536029   1.000000
    3      -29.516631   1.000000
    4      -29.450748   1.000000
    5      -16.149262   1.000000
    6      -16.013596   1.000000
    7      -15.515995   1.000000
    8       -8.023196   1.000000
    9       -7.086433   1.000000
   10       -5.752207   1.000000
   11       -4.720084   1.000000
   12       -3.348616   1.000000
   13       -2.879020   1.000000
   14       -2.420956   1.000000
   15       -0.838284   1.000000
   16        1.865952   0.000000
   17        2.505433   0.000000
   18        2.669878   0.000000
   19        2.777251   0.000000
   20        4.058794   0.000000
   21        4.894933   0.000000
   22        6.009145   0.000000
   23        6.596554   0.000000
   24        7.123490   0.000000
 
  0.7692308E-01  0.3750000E+00  0.3330669E-15  0.2747253E-02
    1      -33.942624   1.000000
    2      -29.539128   1.000000
    3      -29.532967   1.000000
    4      -29.448215   1.000000
    5      -16.137272   1.000000
    6      -16.001201   1.000000
    7      -15.596867   1.000000
    8       -7.932761   1.000000
    9       -7.060796   1.000000
   10       -5.695867   1.000000
   11       -4.692048   1.000000
   12       -3.324886   1.000000
   13       -2.861689   1.000000
   14       -2.406229   1.000000
   15       -0.871898   1.000000
   16        1.141569   0.995224
   17        2.126465   0.000000
   18        3.172713   0.000000
   19        3.316318   0.000000
   20        4.291561   0.000000