 running on   32 total cores
 distrk:  each k-point on   32 cores,    1 groups
 distr:  one band on    8 cores,    4 groups
 using from now: INCAR     
 vasp.5.4.4.18Apr17-6-g9f103f2a35 (build Nov 01 2019 12:17:22) complex          
  
 POSCAR found type information on POSCAR  H  Nb H  Sr
 POSCAR found :  4 types and      14 ions
 LDA part: xc-table for Pade appr. of Perdew
 generate k-points for:   13    8    7
 POSCAR, INCAR and KPOINTS ok, starting setup
 FFT: planning ...
 WAVECAR not read
 entering main loop
       N       E                     dE             d eps       ncg     rms          rms(c)
DAV:   1     0.119681677256E+03    0.11968E+03   -0.10625E+04 18160   0.718E+02
DAV:   2    -0.454976164896E+02   -0.16518E+03   -0.15948E+03 22720   0.282E+02
DAV:   3    -0.550059017326E+02   -0.95083E+01   -0.94279E+01 29080   0.542E+01
DAV:   4    -0.554250882593E+02   -0.41919E+00   -0.41844E+00 27088   0.984E+00
DAV:   5    -0.554322227602E+02   -0.71345E-02   -0.71341E-02 28112   0.102E+00    0.363E+01
DAV:   6    -0.528094417155E+02    0.26228E+01   -0.53998E+00 26216   0.175E+01    0.155E+01
DAV:   7    -0.521708956801E+02    0.63855E+00   -0.16777E+00 25752   0.685E+00    0.877E+00
DAV:   8    -0.520975384061E+02    0.73357E-01   -0.40769E-01 25768   0.429E+00    0.179E+00
DAV:   9    -0.520984280791E+02   -0.88967E-03   -0.32659E-02 22744   0.105E+00    0.538E-01
DAV:  10    -0.521001009416E+02   -0.16729E-02   -0.72561E-03 25928   0.592E-01    0.265E-01
DAV:  11    -0.521003713403E+02   -0.27040E-03   -0.63671E-04 22464   0.181E-01    0.839E-02
DAV:  12    -0.521007394175E+02   -0.36808E-03   -0.43166E-04 20576   0.120E-01    0.418E-02
DAV:  13    -0.521007456515E+02   -0.62340E-05   -0.29699E-05 16368   0.358E-02
   1 F= -.52100746E+02 E0= -.52100958E+02  d E =-.521007E+02
 curvature:   0.00 expect dE= 0.000E+00 dE for cont linesearch  0.000E+00
 trial: gam= 0.00000 g(F)=  0.184E-02 g(S)=  0.134E-02 ort = 0.000E+00 (trialstep = 0.100E+01)
 search vector abs. value=  0.317E-02
 bond charge predicted
       N       E                     dE             d eps       ncg     rms          rms(c)
DAV:   1    -0.521016615864E+02   -0.92217E-03   -0.15754E-01 20520   0.348E+00    0.189E-01
DAV:   2    -0.521029917083E+02   -0.13301E-02   -0.19239E-02 20152   0.819E-01    0.929E-02
DAV:   3    -0.521028816051E+02    0.11010E-03   -0.33976E-04 21800   0.136E-01    0.513E-02
DAV:   4    -0.521028480031E+02    0.33602E-04   -0.11909E-04 15656   0.849E-02
   2 F= -.52102848E+02 E0= -.52103073E+02  d E =-.210235E-02
 trial-energy change:   -0.002102  1 .order   -0.002121   -0.003175   -0.001068
 step:   1.5066(harm=  1.5066)  dis= 0.00825  next Energy=   -52.103137 (dE=-0.239E-02)
 bond charge predicted
       N       E                     dE             d eps       ncg     rms          rms(c)
DAV:   1    -0.521027828825E+02    0.98723E-04   -0.40329E-02 20456   0.178E+00    0.956E-02
DAV:   2    -0.521031233397E+02   -0.34046E-03   -0.49077E-03 20472   0.413E-01    0.490E-02
DAV:   3    -0.521030961938E+02    0.27146E-04   -0.77400E-05 16664   0.698E-02
   3 F= -.52103096E+02 E0= -.52103331E+02  d E =-.235054E-02
 curvature:  -0.75 expect dE=-0.333E-02 dE for cont linesearch -0.183E-05
 trial: gam= 1.36410 g(F)=  0.348E-02 g(S)=  0.938E-03 ort = 0.878E-04 (trialstep = 0.331E+00)
 search vector abs. value=  0.106E-01
 bond charge predicted
       N       E                     dE             d eps       ncg     rms          rms(c)
DAV:   1    -0.521045425739E+02   -0.14192E-02   -0.27956E-02 17520   0.118E+00    0.108E-01
DAV:   2    -0.521044469832E+02    0.95591E-04   -0.14083E-03 24232   0.276E-01    0.617E-02
DAV:   3    -0.521043907174E+02    0.56266E-04   -0.87755E-05 15608   0.686E-02
   4 F= -.52104391E+02 E0= -.52104632E+02  d E =-.129452E-02
 ZBRENT: can't locate minimum, use default step
 trial-energy change:   -0.001295  1 .order   -0.001407   -0.001502   -0.001313
 step:   1.3237(harm=  2.6297)  dis= 0.00562  next Energy=   -52.109063 (dE=-0.597E-02)
 bond charge predicted
       N       E                     dE             d eps       ncg     rms          rms(c)
DAV:   1    -0.521084548472E+02   -0.40079E-02   -0.25347E-01 17520   0.353E+00    0.322E-01
DAV:   2    -0.521075563879E+02    0.89846E-03   -0.12550E-02 24512   0.829E-01    0.185E-01
DAV:   3    -0.521070682948E+02    0.48809E-03   -0.87772E-04 23216   0.203E-01    0.824E-02
DAV:   4    -0.521069648165E+02    0.10348E-03   -0.30737E-04 23256   0.127E-01    0.388E-02
DAV:   5    -0.521069684420E+02   -0.36255E-05   -0.37527E-05 12288   0.439E-02
   5 F= -.52106968E+02 E0= -.52107226E+02  d E =-.387225E-02
 curvature:  -2.07 expect dE=-0.696E-02 dE for cont linesearch -0.555E-03
 trial: gam= 0.31406 g(F)=  0.324E-02 g(S)=  0.119E-03 ort = 0.168E-02 (trialstep = 0.529E+00)
 search vector abs. value=  0.546E-02
 bond charge predicted
       N       E                     dE             d eps       ncg     rms          rms(c)
DAV:   1    -0.521076062485E+02   -0.64143E-03   -0.86989E-02 20440   0.264E+00    0.115E-01
DAV:   2    -0.521084230566E+02   -0.81681E-03   -0.10307E-02 19264   0.593E-01    0.574E-02
DAV:   3    -0.521084044120E+02    0.18645E-04   -0.14764E-04 20376   0.876E-02
   6 F= -.52108404E+02 E0= -.52108664E+02  d E =-.143597E-02
 trial-energy change:   -0.001436  1 .order   -0.001465   -0.002058   -0.000872
 step:   0.9190(harm=  0.9190)  dis= 0.00379  next Energy=   -52.108754 (dE=-0.179E-02)
 bond charge predicted
       N       E                     dE             d eps       ncg     rms          rms(c)
DAV:   1    -0.521082349402E+02    0.18812E-03   -0.46230E-02 20440   0.192E+00    0.835E-02
DAV:   2    -0.521086559547E+02   -0.42101E-03   -0.54494E-03 19856   0.429E-01    0.448E-02
DAV:   3    -0.521086454533E+02    0.10501E-04   -0.70773E-05 16688   0.646E-02
   7 F= -.52108645E+02 E0= -.52108906E+02  d E =-.167701E-02
 curvature:  -0.65 expect dE=-0.180E-02 dE for cont linesearch -0.186E-05
 trial: gam= 1.07667 g(F)=  0.263E-02 g(S)=  0.155E-03 ort =-0.125E-03 (trialstep = 0.375E+00)
 search vector abs. value=  0.884E-02
 bond charge predicted
       N       E                     dE             d eps       ncg     rms          rms(c)
DAV:   1    -0.521093290067E+02   -0.67305E-03   -0.40507E-02 20432   0.164E+00    0.971E-02
DAV:   2    -0.521095111451E+02   -0.18214E-03   -0.33089E-03 21816   0.374E-01    0.486E-02
DAV:   3    -0.521094954157E+02    0.15729E-04   -0.69363E-05 16200   0.622E-02
   8 F= -.52109495E+02 E0= -.52109754E+02  d E =-.849962E-03
 ZBRENT: can't locate minimum, use default step
 trial-energy change:   -0.000850  1 .order   -0.000897   -0.000994   -0.000801
 step:   1.4996(harm=  1.9348)  dis= 0.00912  next Energy=   -52.111209 (dE=-0.256E-02)
 bond charge predicted
       N       E                     dE             d eps       ncg     rms          rms(c)
DAV:   1    -0.521093035194E+02    0.20763E-03   -0.36687E-01 20408   0.494E+00    0.293E-01
DAV:   2    -0.521109742930E+02   -0.16708E-02   -0.29876E-02 21648   0.112E+00    0.140E-01
DAV:   3    -0.521108468629E+02    0.12743E-03   -0.76528E-04 25016   0.185E-01    0.846E-02
DAV:   4    -0.521107887073E+02    0.58156E-04   -0.14963E-04 16656   0.101E-01
   9 F= -.52110789E+02 E0= -.52111043E+02  d E =-.214325E-02
 curvature:  -2.98 expect dE=-0.178E-01 dE for cont linesearch -0.751E-04
 trial: gam= 1.41476 g(F)=  0.589E-02 g(S)=  0.871E-04 ort = 0.472E-03 (trialstep = 0.212E+00)
 search vector abs. value=  0.250E-01
 bond charge predicted
       N       E                     dE             d eps       ncg     rms          rms(c)
DAV:   1    -0.521119566709E+02   -0.11098E-02   -0.32340E-02 17520   0.138E+00    0.945E-02
DAV:   2    -0.521120946031E+02   -0.13793E-03   -0.22449E-03 23320   0.329E-01    0.476E-02
DAV:   3    -0.521120809980E+02    0.13605E-04   -0.56701E-05 14688   0.544E-02
  10 F= -.52112081E+02 E0= -.52112336E+02  d E =-.129229E-02
 ZBRENT: can't locate minimum, use default step
 trial-energy change:   -0.001292  1 .order   -0.001320   -0.001409   -0.001231
 step:   0.8482(harm=  1.6770)  dis= 0.00933  next Energy=   -52.116360 (dE=-0.557E-02)
 bond charge predicted
       N       E                     dE             d eps       ncg     rms          rms(c)
DAV:   1    -0.521136871496E+02   -0.15925E-02   -0.29147E-01 17520   0.415E+00    0.242E-01
DAV:   2    -0.521149234531E+02   -0.12363E-02   -0.20059E-02 22920   0.983E-01    0.127E-01
DAV:   3    -0.521148243912E+02    0.99062E-04   -0.60485E-04 25304   0.158E-01
  11 F= -.52114824E+02 E0= -.52115080E+02  d E =-.403568E-02
 curvature:  -2.15 expect dE=-0.445E-02 dE for cont linesearch -0.972E-03
 trial: gam= 0.04069 g(F)=  0.176E-02 g(S)=  0.316E-03 ort = 0.337E-02 (trialstep = 0.339E+00)
 search vector abs. value=  0.239E-02
 bond charge predicted
       N       E                     dE             d eps       ncg     rms          rms(c)
DAV:   1    -0.521153409562E+02   -0.41750E-03   -0.83119E-03 18848   0.760E-01    0.790E-02
DAV:   2    -0.521153722438E+02   -0.31288E-04   -0.87934E-04 23160   0.201E-01
  12 F= -.52115372E+02 E0= -.52115631E+02  d E =-.547853E-03
 trial-energy change:   -0.000548  1 .order   -0.000600   -0.000750   -0.000451
 step:   0.8523(harm=  0.8523)  dis= 0.00332  next Energy=   -52.115766 (dE=-0.942E-03)
 bond charge predicted
       N       E                     dE             d eps       ncg     rms          rms(c)
DAV:   1    -0.521156434591E+02   -0.30250E-03   -0.19804E-02 19376   0.118E+00    0.120E-01
DAV:   2    -0.521156968169E+02   -0.53358E-04   -0.19526E-03 22808   0.301E-01    0.481E-02
DAV:   3    -0.521156691010E+02    0.27716E-04   -0.76751E-05 15056   0.606E-02
  13 F= -.52115669E+02 E0= -.52115930E+02  d E =-.844710E-03
 curvature:  -0.46 expect dE=-0.106E-02 dE for cont linesearch -0.214E-06
 trial: gam= 1.15249 g(F)=  0.219E-02 g(S)=  0.113E-03 ort = 0.333E-04 (trialstep = 0.190E+00)
 search vector abs. value=  0.555E-02
 reached required accuracy - stopping structural energy minimisation
