       N       E                     dE             d eps       ncg     rms          rms(c)
DAV:   1    -0.191193273403E+02   -0.19119E+02   -0.39164E+03 14496   0.362E+02
DAV:   2    -0.539610929151E+02   -0.34842E+02   -0.33741E+02 18652   0.910E+01
DAV:   3    -0.553377406258E+02   -0.13766E+01   -0.13716E+01 17724   0.172E+01
DAV:   4    -0.553415439894E+02   -0.38034E-02   -0.38031E-02 16924   0.108E+00
DAV:   5    -0.553415583461E+02   -0.14357E-04   -0.14356E-04 16844   0.614E-02    0.123E+01
DAV:   6    -0.532662331041E+02    0.20753E+01   -0.53782E-01 15592   0.351E+00    0.698E+00
DAV:   7    -0.522366844724E+02    0.10295E+01   -0.14672E+00 16208   0.598E+00    0.654E-01
DAV:   8    -0.522659984006E+02   -0.29314E-01   -0.69994E-02 15508   0.123E+00    0.387E-01
DAV:   9    -0.522628992242E+02    0.30992E-02   -0.38234E-03 18316   0.327E-01    0.560E-02
DAV:  10    -0.522630340951E+02   -0.13487E-03   -0.22551E-04 15828   0.785E-02    0.145E-02
DAV:  11    -0.522630569519E+02   -0.22857E-04   -0.23132E-05 13368   0.263E-02
   1 F= -.52263057E+02 E0= -.52263078E+02  d E =-.522631E+02
       N       E                     dE             d eps       ncg     rms          rms(c)
DAV:   1    -0.522635965236E+02   -0.56243E-03   -0.26127E-02 15692   0.934E-01    0.651E-02
DAV:   2    -0.522636667640E+02   -0.70240E-04   -0.11831E-03 16812   0.188E-01    0.511E-02
DAV:   3    -0.522636343559E+02    0.32408E-04   -0.43940E-05 12788   0.735E-02
   2 F= -.52263634E+02 E0= -.52263655E+02  d E =-.577404E-03
       N       E                     dE             d eps       ncg     rms          rms(c)
DAV:   1    -0.522637510812E+02   -0.84317E-04   -0.21252E-03 15392   0.259E-01    0.202E-02
DAV:   2    -0.522637515419E+02   -0.46068E-06   -0.74598E-05  7328   0.492E-02
   3 F= -.52263752E+02 E0= -.52263772E+02  d E =-.694590E-03
