 running on   32 total cores
 distrk:  each k-point on   32 cores,    1 groups
 distr:  one band on    8 cores,    4 groups
 using from now: INCAR     
 vasp.5.4.4.18Apr17-6-g9f103f2a35 (build Nov 01 2019 12:17:22) complex          
  
 POSCAR found type information on POSCAR  H  Sr H  Nb H 
 POSCAR found :  5 types and      21 ions

 ----------------------------------------------------------------------------- 
|                                                                             |
|  ADVICE TO THIS USER RUNNING 'VASP/VAMP'   (HEAR YOUR MASTER'S VOICE ...):  |
|                                                                             |
|      You have a (more or less) 'large supercell' and for larger cells       |
|      it might be more efficient to use real space projection opertators     |
|      So try LREAL= Auto  in the INCAR   file.                               |
|      Mind:          For very  accurate calculation you might also keep the  |
|      reciprocal projection scheme          (i.e. LREAL=.FALSE.)             |
|                                                                             |
 ----------------------------------------------------------------------------- 

 LDA part: xc-table for Pade appr. of Perdew
 generate k-points for:    7    8    8
 POSCAR, INCAR and KPOINTS ok, starting setup
 FFT: planning ...
 WAVECAR not read
 entering main loop
       N       E                     dE             d eps       ncg     rms          rms(c)
DAV:   1     0.113671664213E+03    0.11367E+03   -0.12739E+04 15440   0.643E+02
DAV:   2    -0.683184956508E+02   -0.18199E+03   -0.17668E+03 18368   0.241E+02
DAV:   3    -0.791913038512E+02   -0.10873E+02   -0.10818E+02 22208   0.487E+01
DAV:   4    -0.796428135923E+02   -0.45151E+00   -0.45018E+00 23216   0.864E+00
DAV:   5    -0.796516576953E+02   -0.88441E-02   -0.88435E-02 21128   0.948E-01    0.394E+01
DAV:   6    -0.767059527425E+02    0.29457E+01   -0.41263E+00 21696   0.121E+01    0.178E+01
DAV:   7    -0.756568934559E+02    0.10491E+01   -0.18145E+00 21672   0.571E+00    0.683E+00
DAV:   8    -0.756191922625E+02    0.37701E-01   -0.36566E-01 21672   0.321E+00    0.198E+00
DAV:   9    -0.756249828968E+02   -0.57906E-02   -0.19878E-02 18584   0.758E-01    0.899E-01
DAV:  10    -0.756288701224E+02   -0.38872E-02   -0.73816E-03 20296   0.454E-01    0.128E-01
DAV:  11    -0.756293635987E+02   -0.49348E-03   -0.80223E-04 18264   0.163E-01    0.620E-02
DAV:  12    -0.756295442130E+02   -0.18061E-03   -0.21688E-04 17640   0.757E-02    0.399E-02
DAV:  13    -0.756295521347E+02   -0.79217E-05   -0.16101E-05 11816   0.269E-02
   1 F= -.75629552E+02 E0= -.75629882E+02  d E =-.756296E+02
 curvature:   0.00 expect dE= 0.000E+00 dE for cont linesearch  0.000E+00
 trial: gam= 0.00000 g(F)=  0.199E-02 g(S)=  0.162E-02 ort = 0.000E+00 (trialstep = 0.100E+01)
 search vector abs. value=  0.361E-02
 bond charge predicted
       N       E                     dE             d eps       ncg     rms          rms(c)
DAV:   1    -0.756308045153E+02   -0.12603E-02   -0.88313E-02 17664   0.196E+00    0.210E-01
DAV:   2    -0.756310268646E+02   -0.22235E-03   -0.75453E-03 18656   0.462E-01    0.124E-01
DAV:   3    -0.756308464425E+02    0.18042E-03   -0.30623E-04 20000   0.117E-01    0.459E-02
DAV:   4    -0.756308331933E+02    0.13249E-04   -0.15704E-04 14584   0.703E-02
   2 F= -.75630833E+02 E0= -.75631163E+02  d E =-.128106E-02
 trial-energy change:   -0.001281  1 .order   -0.001317   -0.003607    0.000973
 step:   0.7876(harm=  0.7876)  dis= 0.00255  next Energy=   -75.630973 (dE=-0.142E-02)
 bond charge predicted
       N       E                     dE             d eps       ncg     rms          rms(c)
DAV:   1    -0.756309478948E+02   -0.10145E-03   -0.40689E-03 17648   0.413E-01    0.455E-02
DAV:   2    -0.756309564591E+02   -0.85643E-05   -0.31945E-04 16600   0.956E-02
   3 F= -.75630956E+02 E0= -.75631288E+02  d E =-.140432E-02
 curvature:  -0.39 expect dE=-0.162E-02 dE for cont linesearch -0.437E-05
 trial: gam= 1.19295 g(F)=  0.359E-02 g(S)=  0.516E-03 ort =-0.200E-03 (trialstep = 0.394E+00)
 search vector abs. value=  0.876E-02
 bond charge predicted
       N       E                     dE             d eps       ncg     rms          rms(c)
DAV:   1    -0.756325398321E+02   -0.15919E-02   -0.24857E-02 14576   0.923E-01    0.114E-01
DAV:   2    -0.756324789237E+02    0.60908E-04   -0.11930E-03 18176   0.195E-01    0.677E-02
DAV:   3    -0.756324185817E+02    0.60342E-04   -0.10742E-04 12144   0.639E-02
   4 F= -.75632419E+02 E0= -.75632764E+02  d E =-.146212E-02
 ZBRENT: can't locate minimum, use default step
 trial-energy change:   -0.001462  1 .order   -0.001468   -0.001524   -0.001412
 step:   1.5773(harm=  5.3715)  dis= 0.00518  next Energy=   -75.641335 (dE=-0.104E-01)
 bond charge predicted
       N       E                     dE             d eps       ncg     rms          rms(c)
DAV:   1    -0.756366830331E+02   -0.42041E-02   -0.21979E-01 14464   0.275E+00    0.353E-01
DAV:   2    -0.756359678956E+02    0.71514E-03   -0.10480E-02 18592   0.574E-01    0.207E-01
DAV:   3    -0.756353770100E+02    0.59089E-03   -0.11919E-03 20512   0.206E-01    0.582E-02
DAV:   4    -0.756353682869E+02    0.87230E-05   -0.25707E-04 17688   0.869E-02
   5 F= -.75635368E+02 E0= -.75635769E+02  d E =-.441183E-02
 curvature:  -2.55 expect dE=-0.656E-02 dE for cont linesearch -0.751E-03
 trial: gam= 0.18688 g(F)=  0.241E-02 g(S)=  0.158E-03 ort = 0.161E-02 (trialstep = 0.631E+00)
 search vector abs. value=  0.348E-02
 bond charge predicted
       N       E                     dE             d eps       ncg     rms          rms(c)
DAV:   1    -0.756361346784E+02   -0.75767E-03   -0.46705E-02 16328   0.156E+00    0.106E-01
DAV:   2    -0.756365370440E+02   -0.40237E-03   -0.52919E-03 17944   0.372E-01    0.607E-02
DAV:   3    -0.756365030727E+02    0.33971E-04   -0.79078E-05 15984   0.587E-02
   6 F= -.75636503E+02 E0= -.75636901E+02  d E =-.113479E-02
 trial-energy change:   -0.001135  1 .order   -0.001174   -0.001811   -0.000538
 step:   0.8972(harm=  0.8972)  dis= 0.00321  next Energy=   -75.636656 (dE=-0.129E-02)
 bond charge predicted
       N       E                     dE             d eps       ncg     rms          rms(c)
DAV:   1    -0.756365034107E+02    0.33633E-04   -0.79061E-03 16752   0.639E-01    0.425E-02
DAV:   2    -0.756365649663E+02   -0.61556E-04   -0.84265E-04 18128   0.145E-01
   7 F= -.75636565E+02 E0= -.75636962E+02  d E =-.119668E-02
 curvature:  -0.54 expect dE=-0.149E-02 dE for cont linesearch -0.391E-05
 trial: gam= 1.26850 g(F)=  0.256E-02 g(S)=  0.193E-03 ort =-0.158E-03 (trialstep = 0.300E+00)
 search vector abs. value=  0.794E-02
 bond charge predicted
       N       E                     dE             d eps       ncg     rms          rms(c)
DAV:   1    -0.756372832423E+02   -0.77983E-03   -0.11823E-02 14608   0.614E-01    0.943E-02
DAV:   2    -0.756372520440E+02    0.31198E-04   -0.48190E-04 19072   0.144E-01
   8 F= -.75637252E+02 E0= -.75637650E+02  d E =-.687078E-03
 ZBRENT: can't locate minimum, use default step
 trial-energy change:   -0.000687  1 .order   -0.000724   -0.000763   -0.000686
 step:   1.1981(harm=  2.9546)  dis= 0.00581  next Energy=   -75.640329 (dE=-0.376E-02)
 bond charge predicted
       N       E                     dE             d eps       ncg     rms          rms(c)
DAV:   1    -0.756389839652E+02   -0.17007E-02   -0.10659E-01 14464   0.184E+00    0.277E-01
DAV:   2    -0.756387606735E+02    0.22329E-03   -0.43637E-03 19912   0.435E-01    0.110E-01
DAV:   3    -0.756385999287E+02    0.16074E-03   -0.32335E-04 18592   0.101E-01    0.632E-02
DAV:   4    -0.756385766651E+02    0.23264E-04   -0.11577E-04 12656   0.679E-02
   9 F= -.75638577E+02 E0= -.75638983E+02  d E =-.201170E-02
 curvature:  -2.59 expect dE=-0.110E-01 dE for cont linesearch -0.331E-03
 trial: gam= 0.67530 g(F)=  0.420E-02 g(S)=  0.367E-04 ort = 0.101E-02 (trialstep = 0.413E+00)
 search vector abs. value=  0.922E-02
 bond charge predicted
       N       E                     dE             d eps       ncg     rms          rms(c)
DAV:   1    -0.756396983352E+02   -0.10984E-02   -0.53644E-02 16296   0.169E+00    0.127E-01
DAV:   2    -0.756401431414E+02   -0.44481E-03   -0.61420E-03 17536   0.386E-01    0.548E-02
DAV:   3    -0.756401283346E+02    0.14807E-04   -0.98513E-05 16104   0.582E-02
  10 F= -.75640128E+02 E0= -.75640553E+02  d E =-.155167E-02
 trial-energy change:   -0.001552  1 .order   -0.001575   -0.002030   -0.001120
 step:   0.9214(harm=  0.9214)  dis= 0.00715  next Energy=   -75.640842 (dE=-0.227E-02)
 bond charge predicted
       N       E                     dE             d eps       ncg     rms          rms(c)
DAV:   1    -0.756400651168E+02    0.78025E-04   -0.80213E-02 16272   0.206E+00    0.148E-01
DAV:   2    -0.756413017662E+02   -0.12366E-02   -0.91812E-03 17776   0.471E-01    0.665E-02
DAV:   3    -0.756407053952E+02    0.59637E-03   -0.16154E-04 18592   0.711E-02    0.417E-02
DAV:   4    -0.756406966233E+02    0.87719E-05   -0.33904E-05 11664   0.423E-02
  11 F= -.75640697E+02 E0= -.75641154E+02  d E =-.211996E-02
 curvature:  -0.86 expect dE=-0.248E-02 dE for cont linesearch -0.576E-05
 trial: gam= 1.00929 g(F)=  0.275E-02 g(S)=  0.121E-03 ort =-0.248E-03 (trialstep = 0.403E+00)
 search vector abs. value=  0.118E-01
 bond charge predicted
       N       E                     dE             d eps       ncg     rms          rms(c)
DAV:   1    -0.756416216759E+02   -0.91628E-03   -0.29560E-02 14496   0.927E-01    0.767E-02
DAV:   2    -0.756422185964E+02   -0.59692E-03   -0.91849E-04 20048   0.198E-01    0.523E-02
DAV:   3    -0.756416099376E+02    0.60866E-03   -0.35411E-05 11896   0.381E-02    0.288E-02
DAV:   4    -0.756416043246E+02    0.56130E-05   -0.22802E-05  9160   0.364E-02
  12 F= -.75641604E+02 E0= -.75642071E+02  d E =-.907701E-03
 ZBRENT: can't locate minimum, use default step
 trial-energy change:   -0.000908  1 .order   -0.000926   -0.001058   -0.000794
 step:   1.6130(harm=  1.6177)  dis= 0.00737  next Energy=   -75.642819 (dE=-0.212E-02)
 bond charge predicted
       N       E                     dE             d eps       ncg     rms          rms(c)
DAV:   1    -0.756428267437E+02   -0.12168E-02   -0.26693E-01 14464   0.278E+00    0.224E-01
DAV:   2    -0.756435160557E+02   -0.68931E-03   -0.83692E-03 20064   0.602E-01    0.155E-01
DAV:   3    -0.756433787849E+02    0.13727E-03   -0.33376E-04 18080   0.105E-01    0.853E-02
DAV:   4    -0.756433293090E+02    0.49476E-04   -0.18815E-04 15584   0.799E-02
  13 F= -.75643329E+02 E0= -.75643329E+02  d E =-.263269E-02
 curvature:  -3.63 expect dE=-0.325E-01 dE for cont linesearch -0.434E-07
 trial: gam= 2.40263 g(F)=  0.839E-02 g(S)=  0.575E-03 ort =-0.119E-04 (trialstep = 0.988E-01)
 search vector abs. value=  0.768E-01
 bond charge predicted
       N       E                     dE             d eps       ncg     rms          rms(c)
DAV:   1    -0.756435623761E+02   -0.18359E-03   -0.11102E-02 14680   0.548E-01    0.546E-02
DAV:   2    -0.756435597361E+02    0.26400E-05   -0.31004E-04 18080   0.111E-01
  14 F= -.75643560E+02 E0= -.75644055E+02  d E =-.230427E-03
 ZBRENT: can't locate minimum, use default step
 trial-energy change:   -0.000230  1 .order   -0.000857   -0.000883   -0.000832
 step:   0.3952(harm=  1.7097)  dis= 0.00490  next Energy=   -75.650967 (dE=-0.764E-02)
 bond charge predicted
       N       E                     dE             d eps       ncg     rms          rms(c)
DAV:   1    -0.756457521255E+02   -0.21897E-02   -0.10017E-01 14480   0.165E+00    0.141E-01
DAV:   2    -0.756457586532E+02   -0.65277E-05   -0.26492E-03 20144   0.327E-01    0.908E-02
DAV:   3    -0.756456809604E+02    0.77693E-04   -0.13000E-04 13000   0.669E-02
  15 F= -.75645681E+02 E0= -.75646182E+02  d E =-.235165E-02
 curvature:  -2.46 expect dE=-0.121E-01 dE for cont linesearch -0.142E-02
 ZBRENT: increasing intervall
 opt :   0.9881  next Energy=   -75.648597 (dE=-0.527E-02)
 bond charge predicted
       N       E                     dE             d eps       ncg     rms          rms(c)
DAV:   1    -0.756483400422E+02   -0.25814E-02   -0.39910E-01 14464   0.330E+00    0.268E-01
DAV:   2    -0.756484716873E+02   -0.13165E-03   -0.10421E-02 19744   0.644E-01    0.167E-01
DAV:   3    -0.756482110923E+02    0.26059E-03   -0.51805E-04 19896   0.124E-01    0.784E-02
DAV:   4    -0.756481893443E+02    0.21748E-04   -0.21875E-04 16312   0.831E-02
  16 F= -.75648189E+02 E0= -.75648695E+02  d E =-.486004E-02
 curvature:  -5.04 expect dE=-0.202E-01 dE for cont linesearch -0.319E-03
 trial: gam= 0.25723 g(F)=  0.394E-02 g(S)=  0.794E-04 ort = 0.221E-02 (trialstep = 0.277E+00)
 search vector abs. value=  0.102E-01
 bond charge predicted
       N       E                     dE             d eps       ncg     rms          rms(c)
DAV:   1    -0.756488941104E+02   -0.68302E-03   -0.31474E-02 16384   0.129E+00    0.708E-02
DAV:   2    -0.756492084044E+02   -0.31429E-03   -0.37579E-03 16408   0.289E-01    0.378E-02
DAV:   3    -0.756492025149E+02    0.58895E-05   -0.40309E-05 13856   0.396E-02
  17 F= -.75649203E+02 E0= -.75649715E+02  d E =-.101317E-02
 trial-energy change:   -0.001013  1 .order   -0.001016   -0.001268   -0.000764
 step:   0.6955(harm=  0.6955)  dis= 0.00639  next Energy=   -75.649784 (dE=-0.159E-02)
 bond charge predicted
       N       E                     dE             d eps       ncg     rms          rms(c)
DAV:   1    -0.756490027841E+02    0.20562E-03   -0.71045E-02 16288   0.194E+00    0.105E-01
DAV:   2    -0.756497141319E+02   -0.71135E-03   -0.86116E-03 16240   0.435E-01    0.576E-02
DAV:   3    -0.756497043984E+02    0.97335E-05   -0.11706E-04 19160   0.599E-02
  18 F= -.75649704E+02 E0= -.75650230E+02  d E =-.151505E-02
 curvature:  -0.78 expect dE=-0.151E-02 dE for cont linesearch -0.247E-05
 trial: gam= 0.72449 g(F)=  0.183E-02 g(S)=  0.117E-03 ort =-0.180E-03 (trialstep = 0.360E+00)
 search vector abs. value=  0.706E-02
 bond charge predicted
       N       E                     dE             d eps       ncg     rms          rms(c)
DAV:   1    -0.756502291787E+02   -0.51505E-03   -0.15639E-02 16400   0.805E-01    0.634E-02
DAV:   2    -0.756502906054E+02   -0.61427E-04   -0.99195E-04 18048   0.163E-01
  19 F= -.75650291E+02 E0= -.75650822E+02  d E =-.586207E-03
 ZBRENT: can't locate minimum, use default step
 trial-energy change:   -0.000586  1 .order   -0.000606   -0.000655   -0.000557
 step:   1.4418(harm=  2.4123)  dis= 0.00551  next Energy=   -75.651896 (dE=-0.219E-02)
 bond charge predicted
       N       E                     dE             d eps       ncg     rms          rms(c)
DAV:   1    -0.756509575796E+02   -0.72840E-03   -0.14401E-01 16272   0.246E+00    0.205E-01
DAV:   2    -0.756515270283E+02   -0.56945E-03   -0.92467E-03 18080   0.504E-01    0.117E-01
DAV:   3    -0.756514473377E+02    0.79691E-04   -0.21396E-04 19048   0.830E-02
  20 F= -.75651447E+02 E0= -.75651993E+02  d E =-.174294E-02
 curvature:  -3.64 expect dE=-0.144E-01 dE for cont linesearch -0.335E-03
 trial: gam= 0.00000 g(F)=  0.389E-02 g(S)=  0.651E-04 ort = 0.806E-03 (trialstep = 0.577E+00)
 search vector abs. value=  0.395E-02
 bond charge predicted
       N       E                     dE             d eps       ncg     rms          rms(c)
DAV:   1    -0.756511321787E+02    0.39485E-03   -0.11907E-01 16272   0.243E+00    0.114E-01
DAV:   2    -0.756523932749E+02   -0.12611E-02   -0.14318E-02 15864   0.535E-01    0.605E-02
DAV:   3    -0.756523910150E+02    0.22599E-05   -0.18290E-04 19944   0.684E-02
  21 F= -.75652391E+02 E0= -.75652906E+02  d E =-.943677E-03
 trial-energy change:   -0.000944  1 .order   -0.000964   -0.002279    0.000352
 step:   0.4996(harm=  0.4996)  dis= 0.00188  next Energy=   -75.652435 (dE=-0.987E-03)
 bond charge predicted
       N       E                     dE             d eps       ncg     rms          rms(c)
DAV:   1    -0.756523907239E+02    0.25510E-05   -0.23729E-03 16504   0.351E-01    0.171E-02
DAV:   2    -0.756524178438E+02   -0.27120E-04   -0.29436E-04 14032   0.823E-02
  22 F= -.75652418E+02 E0= -.75652936E+02  d E =-.970506E-03
 curvature:  -0.25 expect dE=-0.144E-03 dE for cont linesearch -0.129E-06
 trial: gam= 0.15721 g(F)=  0.487E-03 g(S)=  0.890E-04 ort =-0.452E-04 (trialstep = 0.561E+00)
 search vector abs. value=  0.660E-03
 reached required accuracy - stopping structural energy minimisation
