  16  16   1   0
  0.5750615E+01  0.4122731E-09  0.5076440E-09  0.5076441E-09  0.5000000E-15
  1.000000000000000E-004
  CAR 
 unknown system                          
     16.96439086    -12.42887148  301     -7.11358988      1.00000000
    -12.429  0.0000E+00  0.0000E+00  0.0000E+00  0.0000E+00
    -12.331  0.0000E+00  0.0000E+00  0.0000E+00  0.0000E+00
    -12.233  0.0000E+00  0.0000E+00  0.0000E+00  0.0000E+00
    -12.135  0.0000E+00  0.0000E+00  0.0000E+00  0.0000E+00
    -12.037  0.0000E+00  0.0000E+00  0.0000E+00  0.0000E+00
    -11.939  0.0000E+00  0.0000E+00  0.0000E+00  0.0000E+00
    -11.841  0.0000E+00  0.0000E+00  0.0000E+00  0.0000E+00
    -11.743  0.0000E+00  0.0000E+00  0.0000E+00  0.0000E+00
    -11.645  0.0000E+00  0.0000E+00  0.0000E+00  0.0000E+00
    -11.547  0.0000E+00  0.0000E+00  0.0000E+00  0.0000E+00
    -11.449  0.0000E+00  0.0000E+00  0.0000E+00  0.0000E+00
    -11.351  0.0000E+00  0.0000E+00  0.0000E+00  0.0000E+00
    -11.253  0.0000E+00  0.0000E+00  0.0000E+00  0.0000E+00
    -11.155  0.0000E+00  0.0000E+00  0.0000E+00  0.0000E+00
    -11.057  0.1152E-03  0.1133E-03  0.1368E-05  0.1334E-05
    -10.959  0.1620E-02  0.1612E-02  0.7213E-04  0.7165E-04
    -10.861  0.3320E-02  0.3318E-02  0.3355E-03  0.3345E-03
    -10.763  0.3589E-02  0.3587E-02  0.6758E-03  0.6747E-03
    -10.665  0.4433E-02  0.4431E-02  0.1068E-02  0.1067E-02
    -10.567  0.5336E-02  0.5333E-02  0.1546E-02  0.1545E-02
    -10.469  0.6108E-02  0.6106E-02  0.2110E-02  0.2109E-02
    -10.371  0.6813E-02  0.6808E-02  0.2734E-02  0.2732E-02
    -10.273  0.8261E-02  0.8258E-02  0.3477E-02  0.3474E-02
    -10.175  0.8544E-02  0.8543E-02  0.4306E-02  0.4304E-02
    -10.077  0.8503E-02  0.8503E-02  0.5143E-02  0.5141E-02
     -9.979  0.8257E-02  0.8258E-02  0.5965E-02  0.5963E-02
     -9.881  0.8452E-02  0.8456E-02  0.6801E-02  0.6798E-02
     -9.783  0.9151E-02  0.9147E-02  0.7699E-02  0.7696E-02
     -9.686  0.1026E-01  0.1025E-01  0.8637E-02  0.8634E-02
     -9.588  0.1227E-01  0.1227E-01  0.9750E-02  0.9747E-02
     -9.490  0.1172E-01  0.1173E-01  0.1093E-01  0.1093E-01
     -9.392  0.1344E-01  0.1344E-01  0.1213E-01  0.1213E-01
     -9.294  0.1586E-01  0.1586E-01  0.1358E-01  0.1358E-01
     -9.196  0.1497E-01  0.1497E-01  0.1511E-01  0.1511E-01
     -9.098  0.1682E-01  0.1682E-01  0.1665E-01  0.1664E-01
     -9.000  0.1595E-01  0.1595E-01  0.1827E-01  0.1827E-01
     -8.902  0.1321E-01  0.1321E-01  0.1970E-01  0.1970E-01
     -8.804  0.1805E-01  0.1803E-01  0.2118E-01  0.2117E-01
     -8.706  0.2304E-01  0.2302E-01  0.2322E-01  0.2322E-01
     -8.608  0.2071E-01  0.2072E-01  0.2553E-01  0.2553E-01
     -8.510  0.2015E-01  0.2015E-01  0.2752E-01  0.2751E-01
     -8.412  0.2039E-01  0.2039E-01  0.2950E-01  0.2950E-01
     -8.314  0.2571E-01  0.2566E-01  0.3154E-01  0.3153E-01
     -8.216  0.4984E-01  0.4972E-01  0.3452E-01  0.3451E-01
     -8.118  0.4746E-01  0.4755E-01  0.3897E-01  0.3896E-01
     -8.020  0.4670E-01  0.4671E-01  0.4325E-01  0.4324E-01
     -7.922  0.4235E-01  0.4236E-01  0.4766E-01  0.4765E-01
     -7.824  0.3646E-01  0.3649E-01  0.5149E-01  0.5148E-01
     -7.726  0.2045E-01  0.2047E-01  0.5432E-01  0.5432E-01
     -7.628  0.4245E-01  0.4241E-01  0.5747E-01  0.5746E-01
     -7.530  0.5759E-01  0.5761E-01  0.6258E-01  0.6257E-01
     -7.432  0.5240E-01  0.5239E-01  0.6775E-01  0.6774E-01
     -7.334  0.7088E-01  0.7087E-01  0.7356E-01  0.7355E-01
     -7.236  0.2603E-01  0.2615E-01  0.8020E-01  0.8019E-01
     -7.138  0.0000E+00  0.0000E+00  0.8081E-01  0.8081E-01
     -7.040  0.0000E+00  0.0000E+00  0.8081E-01  0.8081E-01
     -6.942  0.0000E+00  0.0000E+00  0.8081E-01  0.8081E-01
     -6.844  0.0000E+00  0.0000E+00  0.8081E-01  0.8081E-01
     -6.746  0.0000E+00  0.0000E+00  0.8081E-01  0.8081E-01
     -6.648  0.0000E+00  0.0000E+00  0.8081E-01  0.8081E-01
     -6.550  0.0000E+00  0.0000E+00  0.8081E-01  0.8081E-01
     -6.452  0.0000E+00  0.0000E+00  0.8081E-01  0.8081E-01
     -6.354  0.0000E+00  0.0000E+00  0.8081E-01  0.8081E-01
     -6.256  0.0000E+00  0.0000E+00  0.8081E-01  0.8081E-01
     -6.158  0.0000E+00  0.0000E+00  0.8081E-01  0.8081E-01
     -6.060  0.0000E+00  0.0000E+00  0.8081E-01  0.8081E-01
     -5.962  0.0000E+00  0.0000E+00  0.8081E-01  0.8081E-01
     -5.864  0.0000E+00  0.0000E+00  0.8081E-01  0.8081E-01
     -5.766  0.0000E+00  0.0000E+00  0.8081E-01  0.8081E-01
     -5.668  0.0000E+00  0.0000E+00  0.8081E-01  0.8081E-01
     -5.570  0.0000E+00  0.0000E+00  0.8081E-01  0.8081E-01
     -5.472  0.0000E+00  0.0000E+00  0.8081E-01  0.8081E-01
     -5.374  0.0000E+00  0.0000E+00  0.8081E-01  0.8081E-01
     -5.277  0.0000E+00  0.0000E+00  0.8081E-01  0.8081E-01
     -5.179  0.0000E+00  0.0000E+00  0.8081E-01  0.8081E-01
     -5.081  0.0000E+00  0.0000E+00  0.8081E-01  0.8081E-01
     -4.983  0.0000E+00  0.0000E+00  0.8081E-01  0.8081E-01
     -4.885  0.0000E+00  0.0000E+00  0.8081E-01  0.8081E-01
     -4.787  0.0000E+00  0.0000E+00  0.8081E-01  0.8081E-01
     -4.689  0.0000E+00  0.0000E+00  0.8081E-01  0.8081E-01
     -4.591  0.0000E+00  0.0000E+00  0.8081E-01  0.8081E-01
     -4.493  0.0000E+00  0.0000E+00  0.8081E-01  0.8081E-01
     -4.395  0.0000E+00  0.0000E+00  0.8081E-01  0.8081E-01
     -4.297  0.0000E+00  0.0000E+00  0.8081E-01  0.8081E-01
     -4.199  0.0000E+00  0.0000E+00  0.8081E-01  0.8081E-01
     -4.101  0.0000E+00  0.0000E+00  0.8081E-01  0.8081E-01
     -4.003  0.0000E+00  0.0000E+00  0.8081E-01  0.8081E-01
     -3.905  0.0000E+00  0.0000E+00  0.8081E-01  0.8081E-01
     -3.807  0.0000E+00  0.0000E+00  0.8081E-01  0.8081E-01
     -3.709  0.0000E+00  0.0000E+00  0.8081E-01  0.8081E-01
     -3.611  0.0000E+00  0.0000E+00  0.8081E-01  0.8081E-01
     -3.513  0.0000E+00  0.0000E+00  0.8081E-01  0.8081E-01
     -3.415  0.0000E+00  0.0000E+00  0.8081E-01  0.8081E-01
     -3.317  0.0000E+00  0.0000E+00  0.8081E-01  0.8081E-01
     -3.219  0.0000E+00  0.0000E+00  0.8081E-01  0.8081E-01
     -3.121  0.0000E+00  0.0000E+00  0.8081E-01  0.8081E-01
     -3.023  0.0000E+00  0.0000E+00  0.8081E-01  0.8081E-01
     -2.925  0.0000E+00  0.0000E+00  0.8081E-01  0.8081E-01
     -2.827  0.0000E+00  0.0000E+00  0.8081E-01  0.8081E-01
     -2.729  0.0000E+00  0.0000E+00  0.8081E-01  0.8081E-01
     -2.631  0.0000E+00  0.0000E+00  0.8081E-01  0.8081E-01
     -2.533  0.0000E+00  0.0000E+00  0.8081E-01  0.8081E-01
     -2.435  0.0000E+00  0.0000E+00  0.8081E-01  0.8081E-01
     -2.337  0.0000E+00  0.0000E+00  0.8081E-01  0.8081E-01
     -2.239  0.0000E+00  0.0000E+00  0.8081E-01  0.8081E-01
     -2.141  0.0000E+00  0.0000E+00  0.8081E-01  0.8081E-01
     -2.043  0.0000E+00  0.0000E+00  0.8081E-01  0.8081E-01
     -1.945  0.0000E+00  0.0000E+00  0.8081E-01  0.8081E-01
     -1.847  0.0000E+00  0.0000E+00  0.8081E-01  0.8081E-01
     -1.749  0.0000E+00  0.0000E+00  0.8081E-01  0.8081E-01
     -1.651  0.0000E+00  0.0000E+00  0.8081E-01  0.8081E-01
     -1.553  0.0000E+00  0.0000E+00  0.8081E-01  0.8081E-01
     -1.455  0.0000E+00  0.0000E+00  0.8081E-01  0.8081E-01
     -1.357  0.0000E+00  0.0000E+00  0.8081E-01  0.8081E-01
     -1.259  0.0000E+00  0.0000E+00  0.8081E-01  0.8081E-01
     -1.161  0.0000E+00  0.0000E+00  0.8081E-01  0.8081E-01
     -1.063  0.0000E+00  0.0000E+00  0.8081E-01  0.8081E-01
     -0.965  0.0000E+00  0.0000E+00  0.8081E-01  0.8081E-01
     -0.868  0.0000E+00  0.0000E+00  0.8081E-01  0.8081E-01
     -0.770  0.0000E+00  0.0000E+00  0.8081E-01  0.8081E-01
     -0.672  0.0000E+00  0.0000E+00  0.8081E-01  0.8081E-01
     -0.574  0.0000E+00  0.0000E+00  0.8081E-01  0.8081E-01
     -0.476  0.0000E+00  0.0000E+00  0.8081E-01  0.8081E-01
     -0.378  0.0000E+00  0.0000E+00  0.8081E-01  0.8081E-01
     -0.280  0.0000E+00  0.0000E+00  0.8081E-01  0.8081E-01
     -0.182  0.0000E+00  0.0000E+00  0.8081E-01  0.8081E-01
     -0.084  0.0000E+00  0.0000E+00  0.8081E-01  0.8081E-01
      0.014  0.0000E+00  0.0000E+00  0.8081E-01  0.8081E-01
      0.112  0.0000E+00  0.0000E+00  0.8081E-01  0.8081E-01
      0.210  0.0000E+00  0.0000E+00  0.8081E-01  0.8081E-01
      0.308  0.0000E+00  0.0000E+00  0.8081E-01  0.8081E-01
      0.406  0.0000E+00  0.0000E+00  0.8081E-01  0.8081E-01
      0.504  0.0000E+00  0.0000E+00  0.8081E-01  0.8081E-01
      0.602  0.0000E+00  0.0000E+00  0.8081E-01  0.8081E-01
      0.700  0.0000E+00  0.0000E+00  0.8081E-01  0.8081E-01
      0.798  0.0000E+00  0.0000E+00  0.8081E-01  0.8081E-01
      0.896  0.0000E+00  0.0000E+00  0.8081E-01  0.8081E-01
      0.994  0.0000E+00  0.0000E+00  0.8081E-01  0.8081E-01
      1.092  0.0000E+00  0.0000E+00  0.8081E-01  0.8081E-01
      1.190  0.0000E+00  0.0000E+00  0.8081E-01  0.8081E-01
      1.288  0.0000E+00  0.0000E+00  0.8081E-01  0.8081E-01
      1.386  0.0000E+00  0.0000E+00  0.8081E-01  0.8081E-01
      1.484  0.0000E+00  0.0000E+00  0.8081E-01  0.8081E-01
      1.582  0.0000E+00  0.0000E+00  0.8081E-01  0.8081E-01
      1.680  0.1964E-04  0.1898E-04  0.8081E-01  0.8081E-01
      1.778  0.5656E-03  0.5618E-03  0.8083E-01  0.8083E-01
      1.876  0.2329E-02  0.2315E-02  0.8095E-01  0.8095E-01
      1.974  0.6485E-02  0.6464E-02  0.8137E-01  0.8137E-01
      2.072  0.1194E-01  0.1191E-01  0.8227E-01  0.8226E-01
      2.170  0.1670E-01  0.1668E-01  0.8368E-01  0.8367E-01
      2.268  0.1838E-01  0.1837E-01  0.8537E-01  0.8537E-01
      2.366  0.1896E-01  0.1895E-01  0.8726E-01  0.8726E-01
      2.464  0.2235E-01  0.2233E-01  0.8928E-01  0.8927E-01
      2.562  0.2808E-01  0.2806E-01  0.9173E-01  0.9172E-01
      2.660  0.3214E-01  0.3213E-01  0.9470E-01  0.9469E-01
      2.758  0.4229E-01  0.4233E-01  0.9808E-01  0.9806E-01
      2.856  0.3718E-01  0.3716E-01  0.1019E+00  0.1019E+00
      2.954  0.4273E-01  0.4278E-01  0.1061E+00  0.1060E+00
      3.052  0.3593E-01  0.3596E-01  0.1098E+00  0.1098E+00
      3.150  0.2630E-01  0.2628E-01  0.1129E+00  0.1129E+00
      3.248  0.2638E-01  0.2638E-01  0.1155E+00  0.1155E+00
      3.346  0.2363E-01  0.2367E-01  0.1181E+00  0.1180E+00
      3.443  0.1706E-01  0.1707E-01  0.1199E+00  0.1199E+00
      3.541  0.1648E-01  0.1649E-01  0.1216E+00  0.1216E+00
      3.639  0.1632E-01  0.1632E-01  0.1232E+00  0.1232E+00
      3.737  0.1818E-01  0.1815E-01  0.1248E+00  0.1248E+00
      3.835  0.1898E-01  0.1898E-01  0.1267E+00  0.1267E+00
      3.933  0.1755E-01  0.1755E-01  0.1285E+00  0.1285E+00
      4.031  0.1693E-01  0.1695E-01  0.1302E+00  0.1302E+00
      4.129  0.1724E-01  0.1722E-01  0.1318E+00  0.1317E+00
      4.227  0.2398E-01  0.2394E-01  0.1337E+00  0.1337E+00
      4.325  0.2540E-01  0.2541E-01  0.1363E+00  0.1363E+00
      4.423  0.2179E-01  0.2180E-01  0.1386E+00  0.1386E+00
      4.521  0.2058E-01  0.2059E-01  0.1407E+00  0.1407E+00
      4.619  0.2209E-01  0.2207E-01  0.1428E+00  0.1428E+00
      4.717  0.3084E-01  0.3061E-01  0.1453E+00  0.1453E+00
      4.815  0.2191E-01  0.2199E-01  0.1481E+00  0.1481E+00
      4.913  0.1037E-01  0.1039E-01  0.1495E+00  0.1495E+00
      5.011  0.6410E-02  0.6414E-02  0.1504E+00  0.1504E+00
      5.109  0.1749E-01  0.1748E-01  0.1514E+00  0.1514E+00
      5.207  0.1522E-01  0.1521E-01  0.1529E+00  0.1529E+00
      5.305  0.1669E-01  0.1669E-01  0.1545E+00  0.1544E+00
      5.403  0.1700E-01  0.1700E-01  0.1561E+00  0.1561E+00
      5.501  0.1359E-01  0.1360E-01  0.1576E+00  0.1576E+00
      5.599  0.1616E-01  0.1615E-01  0.1590E+00  0.1590E+00
      5.697  0.1110E-01  0.1110E-01  0.1602E+00  0.1602E+00
      5.795  0.9864E-02  0.9867E-02  0.1612E+00  0.1612E+00
      5.893  0.9287E-02  0.9288E-02  0.1622E+00  0.1621E+00
      5.991  0.8817E-02  0.8818E-02  0.1630E+00  0.1630E+00
      6.089  0.8529E-02  0.8530E-02  0.1639E+00  0.1639E+00
      6.187  0.8269E-02  0.8270E-02  0.1647E+00  0.1647E+00
      6.285  0.8010E-02  0.8010E-02  0.1655E+00  0.1655E+00
      6.383  0.7747E-02  0.7748E-02  0.1663E+00  0.1663E+00
      6.481  0.7482E-02  0.7482E-02  0.1670E+00  0.1670E+00
      6.579  0.6808E-02  0.6811E-02  0.1677E+00  0.1677E+00
      6.677  0.5896E-02  0.5898E-02  0.1684E+00  0.1684E+00
      6.775  0.5491E-02  0.5492E-02  0.1689E+00  0.1689E+00
      6.873  0.6680E-02  0.6673E-02  0.1695E+00  0.1695E+00
      6.971  0.1093E-01  0.1090E-01  0.1704E+00  0.1704E+00
      7.069  0.1118E-01  0.1117E-01  0.1714E+00  0.1714E+00
      7.167  0.1297E-01  0.1296E-01  0.1726E+00  0.1726E+00
      7.265  0.1348E-01  0.1348E-01  0.1739E+00  0.1739E+00
      7.363  0.1037E-01  0.1039E-01  0.1751E+00  0.1751E+00
      7.461  0.1192E-01  0.1191E-01  0.1761E+00  0.1761E+00
      7.559  0.1545E-01  0.1546E-01  0.1776E+00  0.1776E+00
      7.657  0.1485E-01  0.1485E-01  0.1791E+00  0.1791E+00
      7.755  0.1529E-01  0.1529E-01  0.1806E+00  0.1806E+00
      7.852  0.1573E-01  0.1573E-01  0.1821E+00  0.1821E+00
      7.950  0.1573E-01  0.1573E-01  0.1836E+00  0.1836E+00
      8.048  0.1552E-01  0.1552E-01  0.1852E+00  0.1852E+00
      8.146  0.1535E-01  0.1535E-01  0.1867E+00  0.1867E+00
      8.244  0.2056E-01  0.2054E-01  0.1883E+00  0.1883E+00
      8.342  0.2181E-01  0.2183E-01  0.1905E+00  0.1904E+00
      8.440  0.1996E-01  0.1996E-01  0.1925E+00  0.1925E+00
      8.538  0.2010E-01  0.2010E-01  0.1944E+00  0.1944E+00
      8.636  0.1997E-01  0.1997E-01  0.1964E+00  0.1964E+00
      8.734  0.1774E-01  0.1775E-01  0.1983E+00  0.1983E+00
      8.832  0.1906E-01  0.1905E-01  0.2000E+00  0.2000E+00
      8.930  0.2443E-01  0.2437E-01  0.2022E+00  0.2022E+00
      9.028  0.1943E-01  0.1939E-01  0.2041E+00  0.2041E+00
      9.126  0.1893E-01  0.1893E-01  0.2060E+00  0.2060E+00
      9.224  0.1827E-01  0.1828E-01  0.2078E+00  0.2078E+00
      9.322  0.1704E-01  0.1705E-01  0.2095E+00  0.2095E+00
      9.420  0.1415E-01  0.1415E-01  0.2111E+00  0.2110E+00
      9.518  0.2166E-01  0.2167E-01  0.2133E+00  0.2133E+00
      9.616  0.2019E-01  0.2021E-01  0.2153E+00  0.2153E+00
      9.714  0.1936E-01  0.1936E-01  0.2173E+00  0.2173E+00
      9.812  0.1853E-01  0.1856E-01  0.2191E+00  0.2191E+00
      9.910  0.1639E-01  0.1640E-01  0.2208E+00  0.2208E+00
     10.008  0.1425E-01  0.1424E-01  0.2223E+00  0.2223E+00
     10.106  0.1554E-01  0.1554E-01  0.2238E+00  0.2238E+00
     10.204  0.1685E-01  0.1684E-01  0.2254E+00  0.2253E+00
     10.302  0.1821E-01  0.1821E-01  0.2271E+00  0.2271E+00
     10.400  0.1896E-01  0.1896E-01  0.2289E+00  0.2289E+00
     10.498  0.2019E-01  0.2018E-01  0.2308E+00  0.2308E+00
     10.596  0.2177E-01  0.2177E-01  0.2329E+00  0.2328E+00
     10.694  0.2275E-01  0.2275E-01  0.2350E+00  0.2350E+00
     10.792  0.1825E-01  0.1828E-01  0.2373E+00  0.2373E+00
     10.890  0.1533E-01  0.1532E-01  0.2389E+00  0.2389E+00
     10.988  0.1617E-01  0.1616E-01  0.2404E+00  0.2404E+00
     11.086  0.1703E-01  0.1704E-01  0.2421E+00  0.2421E+00
     11.184  0.1448E-01  0.1449E-01  0.2436E+00  0.2436E+00
     11.282  0.1300E-01  0.1301E-01  0.2450E+00  0.2450E+00
     11.380  0.1372E-01  0.1371E-01  0.2464E+00  0.2464E+00
     11.478  0.1601E-01  0.1600E-01  0.2478E+00  0.2478E+00
     11.576  0.1626E-01  0.1628E-01  0.2495E+00  0.2495E+00
     11.674  0.1850E-01  0.1841E-01  0.2511E+00  0.2511E+00
     11.772  0.2293E-01  0.2293E-01  0.2532E+00  0.2532E+00
     11.870  0.1979E-01  0.1979E-01  0.2554E+00  0.2554E+00
     11.968  0.1964E-01  0.1964E-01  0.2573E+00  0.2573E+00
     12.066  0.1959E-01  0.1959E-01  0.2593E+00  0.2592E+00
     12.163  0.1942E-01  0.1942E-01  0.2612E+00  0.2612E+00
     12.261  0.1856E-01  0.1857E-01  0.2630E+00  0.2630E+00
     12.359  0.1956E-01  0.1956E-01  0.2650E+00  0.2650E+00
     12.457  0.1946E-01  0.1945E-01  0.2669E+00  0.2669E+00
     12.555  0.1870E-01  0.1871E-01  0.2688E+00  0.2688E+00
     12.653  0.1991E-01  0.1992E-01  0.2707E+00  0.2707E+00
     12.751  0.2010E-01  0.2010E-01  0.2726E+00  0.2726E+00
     12.849  0.2195E-01  0.2192E-01  0.2747E+00  0.2746E+00
     12.947  0.2215E-01  0.2217E-01  0.2769E+00  0.2769E+00
     13.045  0.1823E-01  0.1825E-01  0.2789E+00  0.2789E+00
     13.143  0.1406E-01  0.1408E-01  0.2804E+00  0.2804E+00
     13.241  0.1129E-01  0.1130E-01  0.2817E+00  0.2817E+00
     13.339  0.8567E-02  0.8571E-02  0.2826E+00  0.2826E+00
     13.437  0.8539E-02  0.8494E-02  0.2834E+00  0.2834E+00
     13.535  0.1965E-01  0.1963E-01  0.2849E+00  0.2849E+00
     13.633  0.2476E-01  0.2474E-01  0.2871E+00  0.2871E+00
     13.731  0.2773E-01  0.2777E-01  0.2897E+00  0.2897E+00
     13.829  0.2096E-01  0.2099E-01  0.2921E+00  0.2921E+00
     13.927  0.1619E-01  0.1618E-01  0.2938E+00  0.2938E+00
     14.025  0.1944E-01  0.1943E-01  0.2955E+00  0.2955E+00
     14.123  0.2472E-01  0.2468E-01  0.2977E+00  0.2977E+00
     14.221  0.1856E-01  0.1856E-01  0.2996E+00  0.2995E+00
     14.319  0.1595E-01  0.1597E-01  0.3013E+00  0.3013E+00
     14.417  0.1291E-01  0.1292E-01  0.3027E+00  0.3027E+00
     14.515  0.1664E-01  0.1662E-01  0.3041E+00  0.3041E+00
     14.613  0.2219E-01  0.2216E-01  0.3060E+00  0.3060E+00
     14.711  0.3380E-01  0.3377E-01  0.3087E+00  0.3087E+00
     14.809  0.3358E-01  0.3359E-01  0.3121E+00  0.3121E+00
     14.907  0.2537E-01  0.2539E-01  0.3150E+00  0.3150E+00
     15.005  0.1889E-01  0.1892E-01  0.3172E+00  0.3172E+00
     15.103  0.1523E-01  0.1523E-01  0.3187E+00  0.3187E+00
     15.201  0.1813E-01  0.1813E-01  0.3204E+00  0.3204E+00
     15.299  0.1329E-01  0.1332E-01  0.3220E+00  0.3220E+00
     15.397  0.5240E-02  0.5254E-02  0.3228E+00  0.3228E+00
     15.495  0.1744E-02  0.1748E-02  0.3232E+00  0.3232E+00
     15.593  0.1240E-03  0.1239E-03  0.3232E+00  0.3232E+00
     15.691  0.0000E+00  0.0000E+00  0.3232E+00  0.3232E+00
     15.789  0.0000E+00  0.0000E+00  0.3232E+00  0.3232E+00
     15.887  0.0000E+00  0.0000E+00  0.3232E+00  0.3232E+00
     15.985  0.0000E+00  0.0000E+00  0.3232E+00  0.3232E+00
     16.083  0.0000E+00  0.0000E+00  0.3232E+00  0.3232E+00
     16.181  0.0000E+00  0.0000E+00  0.3232E+00  0.3232E+00
     16.279  0.0000E+00  0.0000E+00  0.3232E+00  0.3232E+00
     16.377  0.0000E+00  0.0000E+00  0.3232E+00  0.3232E+00
     16.475  0.0000E+00  0.0000E+00  0.3232E+00  0.3232E+00
     16.572  0.0000E+00  0.0000E+00  0.3232E+00  0.3232E+00
     16.670  0.0000E+00  0.0000E+00  0.3232E+00  0.3232E+00
     16.768  0.0000E+00  0.0000E+00  0.3232E+00  0.3232E+00
     16.866  0.0000E+00  0.0000E+00  0.3232E+00  0.3232E+00
     16.964  0.0000E+00  0.0000E+00  0.3232E+00  0.3232E+00
     16.96439086    -12.42887148  301     -7.11358988      1.00000000
    -12.429  0.0000E+00  0.0000E+00  0.0000E+00  0.0000E+00  0.0000E+00  0.0000E+00  0.0000E+00  0.0000E+00  0.0000E+00  0.0000E+00  0.0000E+00  0.0000E+00  0.0000E+00  0.0000E+00  0.0000E+00  0.0000E+00  0.0000E+00  0.0000E+00
    -12.331  0.0000E+00  0.0000E+00  0.0000E+00  0.0000E+00  0.0000E+00  0.0000E+00  0.0000E+00  0.0000E+00  0.0000E+00  0.0000E+00  0.0000E+00  0.0000E+00  0.0000E+00  0.0000E+00  0.0000E+00  0.0000E+00  0.0000E+00  0.0000E+00
    -12.233  0.0000E+00  0.0000E+00  0.0000E+00  0.0000E+00  0.0000E+00  0.0000E+00  0.0000E+00  0.0000E+00  0.0000E+00  0.0000E+00  0.0000E+00  0.0000E+00  0.0000E+00  0.0000E+00  0.0000E+00  0.0000E+00  0.0000E+00  0.0000E+00
    -12.135  0.0000E+00  0.0000E+00  0.0000E+00  0.0000E+00  0.0000E+00  0.0000E+00  0.0000E+00  0.0000E+00  0.0000E+00  0.0000E+00  0.0000E+00  0.0000E+00  0.0000E+00  0.0000E+00  0.0000E+00  0.0000E+00  0.0000E+00  0.0000E+00
    -12.037  0.0000E+00  0.0000E+00  0.0000E+00  0.0000E+00  0.0000E+00  0.0000E+00  0.0000E+00  0.0000E+00  0.0000E+00  0.0000E+00  0.0000E+00  0.0000E+00  0.0000E+00  0.0000E+00  0.0000E+00  0.0000E+00  0.0000E+00  0.0000E+00
    -11.939  0.0000E+00  0.0000E+00  0.0000E+00  0.0000E+00  0.0000E+00  0.0000E+00  0.0000E+00  0.0000E+00  0.0000E+00  0.0000E+00  0.0000E+00  0.0000E+00  0.0000E+00  0.0000E+00  0.0000E+00  0.0000E+00  0.0000E+00  0.0000E+00
    -11.841  0.0000E+00  0.0000E+00  0.0000E+00  0.0000E+00  0.0000E+00  0.0000E+00  0.0000E+00  0.0000E+00  0.0000E+00  0.0000E+00  0.0000E+00  0.0000E+00  0.0000E+00  0.0000E+00  0.0000E+00  0.0000E+00  0.0000E+00  0.0000E+00
    -11.743  0.0000E+00  0.0000E+00  0.0000E+00  0.0000E+00  0.0000E+00  0.0000E+00  0.0000E+00  0.0000E+00  0.0000E+00  0.0000E+00  0.0000E+00  0.0000E+00  0.0000E+00  0.0000E+00  0.0000E+00  0.0000E+00  0.0000E+00  0.0000E+00
    -11.645  0.0000E+00  0.0000E+00  0.0000E+00  0.0000E+00  0.0000E+00  0.0000E+00  0.0000E+00  0.0000E+00  0.0000E+00  0.0000E+00  0.0000E+00  0.0000E+00  0.0000E+00  0.0000E+00  0.0000E+00  0.0000E+00  0.0000E+00  0.0000E+00
    -11.547  0.0000E+00  0.0000E+00  0.0000E+00  0.0000E+00  0.0000E+00  0.0000E+00  0.0000E+00  0.0000E+00  0.0000E+00  0.0000E+00  0.0000E+00  0.0000E+00  0.0000E+00  0.0000E+00  0.0000E+00  0.0000E+00  0.0000E+00  0.0000E+00
    -11.449  0.0000E+00  0.0000E+00  0.0000E+00  0.0000E+00  0.0000E+00  0.0000E+00  0.0000E+00  0.0000E+00  0.0000E+00  0.0000E+00  0.0000E+00  0.0000E+00  0.0000E+00  0.0000E+00  0.0000E+00  0.0000E+00  0.0000E+00  0.0000E+00
    -11.351  0.0000E+00  0.0000E+00  0.0000E+00  0.0000E+00  0.0000E+00  0.0000E+00  0.0000E+00  0.0000E+00  0.0000E+00  0.0000E+00  0.0000E+00  0.0000E+00  0.0000E+00  0.0000E+00  0.0000E+00  0.0000E+00  0.0000E+00  0.0000E+00
    -11.253  0.0000E+00  0.0000E+00  0.0000E+00  0.0000E+00  0.0000E+00  0.0000E+00  0.0000E+00  0.0000E+00  0.0000E+00  0.0000E+00  0.0000E+00  0.0000E+00  0.0000E+00  0.0000E+00  0.0000E+00  0.0000E+00  0.0000E+00  0.0000E+00
    -11.155  0.0000E+00  0.0000E+00  0.0000E+00  0.0000E+00  0.0000E+00  0.0000E+00  0.0000E+00  0.0000E+00  0.0000E+00  0.0000E+00  0.0000E+00  0.0000E+00  0.0000E+00  0.0000E+00  0.0000E+00  0.0000E+00  0.0000E+00  0.0000E+00
    -11.057  0.3308E-03  0.3253E-03  0.5360E-07  0.5271E-07  0.1056E-04  0.1039E-04  0.2647E-07  0.2605E-07  0.0000E+00  0.0000E+00  0.0000E+00  0.0000E+00  0.0000E+00  0.0000E+00  0.0000E+00  0.0000E+00  0.0000E+00  0.0000E+00
    -10.959  0.4651E-02  0.4631E-02  0.7537E-06  0.7504E-06  0.1485E-03  0.1479E-03  0.3722E-06  0.3708E-06  0.0000E+00  0.0000E+00  0.0000E+00  0.0000E+00  0.0000E+00  0.0000E+00  0.0000E+00  0.0000E+00  0.0000E+00  0.0000E+00
    -10.861  0.9605E-02  0.9600E-02  0.1952E-05  0.1950E-05  0.3116E-03  0.3114E-03  0.1314E-05  0.1313E-05  0.0000E+00  0.0000E+00  0.0000E+00  0.0000E+00  0.0000E+00  0.0000E+00  0.0000E+00  0.0000E+00  0.0000E+00  0.0000E+00
    -10.763  0.1049E-01  0.1049E-01  0.2599E-05  0.2597E-05  0.3480E-03  0.3478E-03  0.1976E-05  0.1974E-05  0.0000E+00  0.0000E+00  0.0000E+00  0.0000E+00  0.0000E+00  0.0000E+00  0.0000E+00  0.0000E+00  0.0000E+00  0.0000E+00
    -10.665  0.1306E-01  0.1305E-01  0.3657E-05  0.3654E-05  0.4378E-03  0.4375E-03  0.2953E-05  0.2951E-05  0.0000E+00  0.0000E+00  0.0000E+00  0.0000E+00  0.0000E+00  0.0000E+00  0.0000E+00  0.0000E+00  0.0000E+00  0.0000E+00
    -10.567  0.1581E-01  0.1580E-01  0.4908E-05  0.4904E-05  0.5346E-03  0.5343E-03  0.4047E-05  0.4045E-05  0.0000E+00  0.0000E+00  0.0000E+00  0.0000E+00  0.0000E+00  0.0000E+00  0.0000E+00  0.0000E+00  0.0000E+00  0.0000E+00
    -10.469  0.1857E-01  0.1848E-01  0.5983E-05  0.5968E-05  0.6307E-03  0.6274E-03  0.5122E-05  0.5224E-05  0.0000E+00  0.0000E+00  0.0000E+00  0.0000E+00  0.0000E+00  0.0000E+00  0.0000E+00  0.0000E+00  0.0000E+00  0.0000E+00
    -10.371  0.2214E-01  0.2169E-01  0.6956E-05  0.6881E-05  0.7538E-03  0.7381E-03  0.6219E-05  0.6721E-05  0.0000E+00  0.0000E+00  0.0000E+00  0.0000E+00  0.0000E+00  0.0000E+00  0.0000E+00  0.0000E+00  0.0000E+00  0.0000E+00
    -10.273  0.2843E-01  0.2757E-01  0.9010E-05  0.8843E-05  0.9669E-03  0.9364E-03  0.7476E-05  0.8441E-05  0.0000E+00  0.0000E+00  0.0000E+00  0.0000E+00  0.0000E+00  0.0000E+00  0.0000E+00  0.0000E+00  0.0000E+00  0.0000E+00
    -10.175  0.3067E-01  0.2932E-01  0.9106E-05  0.8816E-05  0.1044E-02  0.9959E-03  0.8619E-05  0.1014E-04  0.0000E+00  0.0000E+00  0.0000E+00  0.0000E+00  0.0000E+00  0.0000E+00  0.0000E+00  0.0000E+00  0.0000E+00  0.0000E+00
    -10.077  0.3178E-01  0.2984E-01  0.8799E-05  0.8351E-05  0.1085E-02  0.1014E-02  0.9496E-05  0.1167E-04  0.0000E+00  0.0000E+00  0.0000E+00  0.0000E+00  0.0000E+00  0.0000E+00  0.0000E+00  0.0000E+00  0.0000E+00  0.0000E+00
     -9.979  0.3223E-01  0.2955E-01  0.8308E-05  0.7655E-05  0.1104E-02  0.1007E-02  0.1016E-04  0.1312E-04  0.0000E+00  0.0000E+00  0.0000E+00  0.0000E+00  0.0000E+00  0.0000E+00  0.0000E+00  0.0000E+00  0.0000E+00  0.0000E+00
     -9.881  0.3530E-01  0.3169E-01  0.7851E-05  0.6929E-05  0.1209E-02  0.1076E-02  0.1118E-04  0.1503E-04  0.0000E+00  0.0000E+00  0.0000E+00  0.0000E+00  0.0000E+00  0.0000E+00  0.0000E+00  0.0000E+00  0.0000E+00  0.0000E+00
     -9.783  0.3199E-01  0.2819E-01  0.2144E-04  0.2027E-04  0.1186E-02  0.1043E-02  0.1238E-04  0.1599E-04  0.0000E+00  0.0000E+00  0.0000E+00  0.0000E+00  0.0000E+00  0.0000E+00  0.0000E+00  0.0000E+00  0.0000E+00  0.0000E+00
     -9.686  0.3348E-01  0.2989E-01  0.2797E-04  0.2676E-04  0.1278E-02  0.1141E-02  0.1406E-04  0.1704E-04  0.0000E+00  0.0000E+00  0.0000E+00  0.0000E+00  0.0000E+00  0.0000E+00  0.0000E+00  0.0000E+00  0.0000E+00  0.0000E+00
     -9.588  0.3688E-01  0.3369E-01  0.3857E-04  0.3750E-04  0.1452E-02  0.1329E-02  0.1642E-04  0.1865E-04  0.0000E+00  0.0000E+00  0.0000E+00  0.0000E+00  0.0000E+00  0.0000E+00  0.0000E+00  0.0000E+00  0.0000E+00  0.0000E+00
     -9.490  0.3416E-01  0.3168E-01  0.3539E-04  0.3459E-04  0.1369E-02  0.1271E-02  0.1883E-04  0.2002E-04  0.0000E+00  0.0000E+00  0.0000E+00  0.0000E+00  0.0000E+00  0.0000E+00  0.0000E+00  0.0000E+00  0.0000E+00  0.0000E+00
     -9.392  0.3788E-01  0.3795E-01  0.3911E-04  0.3912E-04  0.1547E-02  0.1544E-02  0.2606E-04  0.2446E-04  0.0000E+00  0.0000E+00  0.0000E+00  0.0000E+00  0.0000E+00  0.0000E+00  0.0000E+00  0.0000E+00  0.0000E+00  0.0000E+00
     -9.294  0.4280E-01  0.4769E-01  0.4425E-04  0.4584E-04  0.1761E-02  0.1943E-02  0.3445E-04  0.2919E-04  0.0000E+00  0.0000E+00  0.0000E+00  0.0000E+00  0.0000E+00  0.0000E+00  0.0000E+00  0.0000E+00  0.0000E+00  0.0000E+00
     -9.196  0.3961E-01  0.4680E-01  0.3986E-04  0.4199E-04  0.1636E-02  0.1908E-02  0.3429E-04  0.2805E-04  0.0000E+00  0.0000E+00  0.0000E+00  0.0000E+00  0.0000E+00  0.0000E+00  0.0000E+00  0.0000E+00  0.0000E+00  0.0000E+00
     -9.098  0.5135E-01  0.5740E-01  0.3906E-04  0.4070E-04  0.2163E-02  0.2392E-02  0.3009E-04  0.2521E-04  0.0000E+00  0.0000E+00  0.0000E+00  0.0000E+00  0.0000E+00  0.0000E+00  0.0000E+00  0.0000E+00  0.0000E+00  0.0000E+00
     -9.000  0.5182E-01  0.5586E-01  0.3762E-04  0.3864E-04  0.2202E-02  0.2357E-02  0.2628E-04  0.2332E-04  0.0000E+00  0.0000E+00  0.0000E+00  0.0000E+00  0.0000E+00  0.0000E+00  0.0000E+00  0.0000E+00  0.0000E+00  0.0000E+00
     -8.902  0.4508E-01  0.4704E-01  0.3192E-04  0.3237E-04  0.1958E-02  0.2033E-02  0.1691E-04  0.1560E-04  0.0000E+00  0.0000E+00  0.0000E+00  0.0000E+00  0.0000E+00  0.0000E+00  0.0000E+00  0.0000E+00  0.0000E+00  0.0000E+00
     -8.804  0.5758E-01  0.5757E-01  0.4481E-04  0.4123E-04  0.2533E-02  0.2527E-02  0.2142E-04  0.2393E-04  0.0000E+00  0.0000E+00  0.0000E+00  0.0000E+00  0.0000E+00  0.0000E+00  0.0000E+00  0.0000E+00  0.0000E+00  0.0000E+00
     -8.706  0.7157E-01  0.7095E-01  0.5601E-04  0.5260E-04  0.3116E-02  0.3088E-02  0.3163E-04  0.3412E-04  0.0000E+00  0.0000E+00  0.0000E+00  0.0000E+00  0.0000E+00  0.0000E+00  0.0000E+00  0.0000E+00  0.0000E+00  0.0000E+00
     -8.608  0.6827E-01  0.6850E-01  0.4582E-04  0.4736E-04  0.2978E-02  0.2989E-02  0.2683E-04  0.2582E-04  0.0000E+00  0.0000E+00  0.0000E+00  0.0000E+00  0.0000E+00  0.0000E+00  0.0000E+00  0.0000E+00  0.0000E+00  0.0000E+00
     -8.510  0.6940E-01  0.6988E-01  0.3882E-04  0.4114E-04  0.3046E-02  0.3068E-02  0.2684E-04  0.2525E-04  0.0000E+00  0.0000E+00  0.0000E+00  0.0000E+00  0.0000E+00  0.0000E+00  0.0000E+00  0.0000E+00  0.0000E+00  0.0000E+00
     -8.412  0.7388E-01  0.7449E-01  0.3583E-04  0.3830E-04  0.3265E-02  0.3293E-02  0.2709E-04  0.2539E-04  0.0000E+00  0.0000E+00  0.0000E+00  0.0000E+00  0.0000E+00  0.0000E+00  0.0000E+00  0.0000E+00  0.0000E+00  0.0000E+00
     -8.314  0.8630E-01  0.8786E-01  0.3448E-04  0.3670E-04  0.3818E-02  0.3888E-02  0.4125E-04  0.3938E-04  0.0000E+00  0.0000E+00  0.0000E+00  0.0000E+00  0.0000E+00  0.0000E+00  0.0000E+00  0.0000E+00  0.0000E+00  0.0000E+00
     -8.216  0.1783E+00  0.1785E+00  0.6102E-04  0.6092E-04  0.8123E-02  0.8142E-02  0.4401E-04  0.4339E-04  0.0000E+00  0.0000E+00  0.0000E+00  0.0000E+00  0.0000E+00  0.0000E+00  0.0000E+00  0.0000E+00  0.0000E+00  0.0000E+00
     -8.118  0.1985E+00  0.1977E+00  0.5703E-04  0.5804E-04  0.9053E-02  0.9009E-02  0.3647E-04  0.3652E-04  0.0000E+00  0.0000E+00  0.0000E+00  0.0000E+00  0.0000E+00  0.0000E+00  0.0000E+00  0.0000E+00  0.0000E+00  0.0000E+00
     -8.020  0.1876E+00  0.1861E+00  0.4951E-04  0.4779E-04  0.8537E-02  0.8477E-02  0.3378E-04  0.3441E-04  0.0000E+00  0.0000E+00  0.0000E+00  0.0000E+00  0.0000E+00  0.0000E+00  0.0000E+00  0.0000E+00  0.0000E+00  0.0000E+00
     -7.922  0.1813E+00  0.1843E+00  0.4181E-04  0.4161E-04  0.8249E-02  0.8390E-02  0.3028E-04  0.3009E-04  0.0000E+00  0.0000E+00  0.0000E+00  0.0000E+00  0.0000E+00  0.0000E+00  0.0000E+00  0.0000E+00  0.0000E+00  0.0000E+00
     -7.824  0.1725E+00  0.1771E+00  0.3413E-04  0.3430E-04  0.7892E-02  0.8103E-02  0.2774E-04  0.2729E-04  0.0000E+00  0.0000E+00  0.0000E+00  0.0000E+00  0.0000E+00  0.0000E+00  0.0000E+00  0.0000E+00  0.0000E+00  0.0000E+00
     -7.726  0.8981E-01  0.8374E-01  0.1770E-04  0.1726E-04  0.4078E-02  0.3788E-02  0.1745E-04  0.1820E-04  0.0000E+00  0.0000E+00  0.0000E+00  0.0000E+00  0.0000E+00  0.0000E+00  0.0000E+00  0.0000E+00  0.0000E+00  0.0000E+00
     -7.628  0.1913E+00  0.1913E+00  0.2355E-04  0.2327E-04  0.9392E-02  0.9374E-02  0.2502E-04  0.2605E-04  0.0000E+00  0.0000E+00  0.0000E+00  0.0000E+00  0.0000E+00  0.0000E+00  0.0000E+00  0.0000E+00  0.0000E+00  0.0000E+00
     -7.530  0.2780E+00  0.2930E+00  0.2849E-04  0.2928E-04  0.1378E-01  0.1459E-01  0.3060E-04  0.2823E-04  0.0000E+00  0.0000E+00  0.0000E+00  0.0000E+00  0.0000E+00  0.0000E+00  0.0000E+00  0.0000E+00  0.0000E+00  0.0000E+00