 running on   16 total cores
 distrk:  each k-point on   16 cores,    1 groups
 distr:  one band on    1 cores,   16 groups
 using from now: INCAR     
 vasp.5.4.4.18Apr17-6-g9f103f2a35 (build Nov 01 2019 12:17:22) complex          
  
 POSCAR found type information on POSCAR  H 
 POSCAR found :  1 types and      16 ions

 ----------------------------------------------------------------------------- 
|                                                                             |
|           W    W    AA    RRRRR   N    N  II  N    N   GGGG   !!!           |
|           W    W   A  A   R    R  NN   N  II  NN   N  G    G  !!!           |
|           W    W  A    A  R    R  N N  N  II  N N  N  G       !!!           |
|           W WW W  AAAAAA  RRRRR   N  N N  II  N  N N  G  GGG   !            |
|           WW  WW  A    A  R   R   N   NN  II  N   NN  G    G                |
|           W    W  A    A  R    R  N    N  II  N    N   GGGG   !!!           |
|                                                                             |
|      For optimal performance we recommend to set                            |
|        NCORE= 4 - approx SQRT( number of cores)                             |
|      NCORE specifies how many cores store one orbital (NPAR=cpu/NCORE).     |
|      This setting can  greatly improve the performance of VASP for DFT.     |
|      The default,   NCORE=1            might be grossly inefficient         |
|      on modern multi-core architectures or massively parallel machines.     |
|      Do your own testing !!!!                                               |
|      Unfortunately you need to use the default for GW and RPA calculations. |
|      (for HF NCORE is supported but not extensively tested yet)             |
|                                                                             |
 ----------------------------------------------------------------------------- 

 LDA part: xc-table for Pade appr. of Perdew
 POSCAR, INCAR and KPOINTS ok, starting setup
 FFT: planning ...
 WAVECAR not read
 entering main loop
       N       E                     dE             d eps       ncg     rms          rms(c)
DAV:   1    -0.130512687966E+02   -0.13051E+02   -0.63309E+03  2560   0.402E+02
DAV:   2    -0.478146541085E+02   -0.34763E+02   -0.33714E+02  3456   0.783E+01
DAV:   3    -0.488759794612E+02   -0.10613E+01   -0.10607E+01  3232   0.112E+01
DAV:   4    -0.488773694012E+02   -0.13899E-02   -0.13899E-02  3232   0.509E-01
DAV:   5    -0.488773718657E+02   -0.24644E-05   -0.24644E-05  2640   0.221E-02    0.183E+01
RMM:   6    -0.534705985409E+02   -0.45932E+01   -0.13535E+00  2560   0.307E+00    0.760E+00
RMM:   7    -0.529867619965E+02    0.48384E+00   -0.88007E-01  2560   0.307E+00    0.367E+00
RMM:   8    -0.529489294448E+02    0.37833E-01   -0.35267E-01  2560   0.202E+00    0.813E-01
RMM:   9    -0.529621608858E+02   -0.13231E-01   -0.10642E-02  2560   0.413E-01    0.340E-01
RMM:  10    -0.529651412124E+02   -0.29803E-02   -0.73152E-04  2214   0.110E-01    0.178E-01
RMM:  11    -0.529674718551E+02   -0.23306E-02   -0.18439E-03  2545   0.170E-01    0.357E-02
RMM:  12    -0.529675426994E+02   -0.70844E-04   -0.72400E-05  1552   0.353E-02
   1 F= -.52967543E+02 E0= -.52967543E+02  d E =-.529675E+02  mag=     0.0000
 curvature:   0.00 expect dE= 0.000E+00 dE for cont linesearch  0.000E+00
 trial: gam= 0.00000 g(F)=  0.322E-04 g(S)=  0.134E+00 ort = 0.000E+00 (trialstep = 0.100E+01)
 search vector abs. value=  0.134E+00
 bond charge predicted
       N       E                     dE             d eps       ncg     rms          rms(c)
DAV:   1    -0.530882158733E+02   -0.12074E+00   -0.22472E-01  2960   0.196E+00    0.414E-01
RMM:   2    -0.530862849777E+02    0.19309E-02   -0.19682E-03  2305   0.164E-01    0.237E-01
RMM:   3    -0.530853505533E+02    0.93442E-03   -0.92994E-04  1455   0.924E-02    0.125E-02
RMM:   4    -0.530853556657E+02   -0.51124E-05   -0.21150E-05  1098   0.183E-02
   2 F= -.53085356E+02 E0= -.53085356E+02  d E =-.117813E+00  mag=     0.0000
 ZBRENT: can't locate minimum, use default step
 trial-energy change:   -0.117813  1 .order   -0.118563   -0.134260   -0.102867
 step:   4.0000(harm=  4.2768)  dis= 0.00198  next Energy=   -53.254645 (dE=-0.287E+00)
 bond charge predicted
       N       E                     dE             d eps       ncg     rms          rms(c)
DAV:   1    -0.532825111110E+02   -0.19716E+00   -0.18775E+00  2880   0.548E+00    0.119E+00
RMM:   2    -0.532658099571E+02    0.16701E-01   -0.17873E-02  2560   0.469E-01    0.679E-01
RMM:   3    -0.532577033372E+02    0.81066E-02   -0.85935E-03  2560   0.265E-01    0.393E-02
RMM:   4    -0.532577191227E+02   -0.15785E-04   -0.35748E-05  1163   0.252E-02
   3 F= -.53257719E+02 E0= -.53257719E+02  d E =-.290176E+00  mag=     0.0000
 curvature:  -2.12 expect dE=-0.172E+01 dE for cont linesearch -0.406E-02
 trial: gam= 5.92096 g(F)=  0.806E+00 g(S)=  0.449E-02 ort = 0.160E-01 (trialstep = 0.376E-01)
 search vector abs. value=  0.571E+01
 bond charge predicted
       N       E                     dE             d eps       ncg     rms          rms(c)
DAV:   1    -0.532919564923E+02   -0.34253E-01   -0.54459E-02  3184   0.775E-01    0.180E-01
RMM:   2    -0.532915669224E+02    0.38957E-03   -0.80195E-04  1468   0.100E-01
   4 F= -.53291567E+02 E0= -.53291567E+02  d E =-.338478E-01  mag=     0.0000
 ZBRENT: can't locate minimum, use default step
 trial-energy change:   -0.033848  1 .order   -0.034160   -0.034095   -0.034225
 step:   0.1505(harm=  0.1505)  dis= 0.00757  next Energy=   -53.395139 (dE=-0.137E+00)
 bond charge predicted
       N       E                     dE             d eps       ncg     rms          rms(c)
DAV:   1    -0.533894670597E+02   -0.97511E-01   -0.45964E-01  2624   0.227E+00    0.502E-01
RMM:   2    -0.533864195686E+02    0.30475E-02   -0.66662E-03  2475   0.278E-01    0.286E-01
RMM:   3    -0.533848769413E+02    0.15426E-02   -0.16096E-03  2384   0.109E-01    0.138E-02
RMM:   4    -0.533848883690E+02   -0.11428E-04   -0.17180E-05  1293   0.212E-02
   5 F= -.53384888E+02 E0= -.53384888E+02  d E =-.127169E+00  mag=     0.0000
 curvature:  -0.71 expect dE=-0.374E+00 dE for cont linesearch -0.753E-01
 ZBRENT: increasing intervall
 opt :   0.3764  next Energy=   -53.530215 (dE=-0.272E+00)
 bond charge predicted
       N       E                     dE             d eps       ncg     rms          rms(c)
DAV:   1    -0.535562065225E+02   -0.17133E+00   -0.19287E+00  2560   0.458E+00    0.101E+00
RMM:   2    -0.535436134662E+02    0.12593E-01   -0.28489E-02  2558   0.566E-01    0.573E-01
RMM:   3    -0.535372764496E+02    0.63370E-02   -0.68497E-03  2560   0.220E-01    0.223E-02
RMM:   4    -0.535372961689E+02   -0.19719E-04   -0.31806E-05  1386   0.225E-02
   6 F= -.53537296E+02 E0= -.53537296E+02  d E =-.279577E+00  mag=    -0.0000
 curvature:  -1.38 expect dE=-0.265E+00 dE for cont linesearch -0.784E-01
 ZBRENT: increasing intervall
 opt :   0.8280  next Energy=   -53.701630 (dE=-0.444E+00)
 bond charge predicted
       N       E                     dE             d eps       ncg     rms          rms(c)
DAV:   1    -0.537699497064E+02   -0.23267E+00   -0.78191E+00  2656   0.906E+00    0.203E+00
RMM:   2    -0.537157983760E+02    0.54151E-01   -0.12171E-01  2560   0.113E+00    0.115E+00
RMM:   3    -0.536888979578E+02    0.26900E-01   -0.30951E-02  2560   0.456E-01    0.496E-02
RMM:   4    -0.536889813221E+02   -0.83364E-04   -0.14419E-04  1578   0.481E-02
   7 F= -.53688981E+02 E0= -.53688981E+02  d E =-.431262E+00  mag=    -0.0000
 curvature:  -2.89 expect dE=-0.262E+00 dE for cont linesearch -0.649E-02
 trial: gam= 0.00000 g(F)=  0.665E-01 g(S)=  0.244E-01 ort = 0.113E+00 (trialstep = 0.196E+00)
 search vector abs. value=  0.909E-01
 bond charge predicted
       N       E                     dE             d eps       ncg     rms          rms(c)
DAV:   1    -0.537013777601E+02   -0.12480E-01   -0.59457E-02  3424   0.909E-01    0.954E-02
RMM:   2    -0.537013165264E+02    0.61234E-04   -0.35889E-04  1691   0.728E-02
   8 F= -.53701317E+02 E0= -.53701317E+02  d E =-.123352E-01  mag=    -0.0000
 trial-energy change:   -0.012335  1 .order   -0.012243   -0.017783   -0.006703
 step:   0.3141(harm=  0.3141)  dis= 0.00472  next Energy=   -53.703252 (dE=-0.143E-01)
 bond charge predicted
       N       E                     dE             d eps       ncg     rms          rms(c)
DAV:   1    -0.537034033308E+02   -0.20256E-02   -0.20454E-02  3168   0.544E-01    0.666E-02
RMM:   2    -0.537033771841E+02    0.26147E-04   -0.11813E-04  1286   0.427E-02
   9 F= -.53703377E+02 E0= -.53703377E+02  d E =-.143959E-01  mag=    -0.0000
 curvature:  -0.16 expect dE=-0.150E-02 dE for cont linesearch -0.183E-05
 trial: gam= 0.09378 g(F)=  0.224E-02 g(S)=  0.732E-02 ort = 0.103E-02 (trialstep = 0.219E+00)
 search vector abs. value=  0.105E-01
 reached required accuracy - stopping structural energy minimisation
