unknown system                          
           1
     4.819912    0.032488    0.332902
     0.160777    5.012121    0.962723
     0.456732    1.358195    6.031436
   H    Sr   H    Nb   H    Sr
   3   1   3   1   4   1
Direct configuration=     1
   0.14043823  0.23020543  0.62309744
   0.09080709  0.09680408  0.73785937
   0.86633333  0.47169883  0.98261879
   0.05941604  0.09116745  0.29174052
   0.35722455  0.96700159  0.00818689
   0.82206291  0.00209235  0.02397096
   0.66055737  0.84914000  0.77445870
   0.61057657  0.67505422  0.11365015
   0.40449457  0.71420792  0.38502070
   0.35000145  0.50307061  0.01546651
   0.87716595  0.59391966  0.33013276
   0.55507436  0.29708503  0.34635731
   0.60235260  0.37493981  0.72175291
unknown system                          
           1
     4.825840    0.029084    0.333188
     0.157238    5.015147    0.966102
     0.456292    1.361727    6.036883
   H    Sr   H    Nb   H    Sr
   3   1   3   1   4   1
Direct configuration=     2
   0.14017903  0.23033848  0.62344378
   0.09114120  0.09797320  0.73730477
   0.86650335  0.47154308  0.98257076
   0.05942397  0.09100957  0.29187699
   0.35704357  0.96697542  0.00816890
   0.82216059  0.00208466  0.02387418
   0.66050231  0.84921708  0.77429152
   0.61050949  0.67492564  0.11360091
   0.40436359  0.71404246  0.38519682
   0.34997503  0.50281750  0.01554515
   0.87722668  0.59382913  0.33023799
   0.55510646  0.29678680  0.34649886
   0.60236972  0.37484398  0.72170239
unknown system                          
           1
     4.828025    0.027829    0.333294
     0.155933    5.016262    0.967348
     0.456130    1.363029    6.038891
   H    Sr   H    Nb   H    Sr
   3   1   3   1   4   1
Direct configuration=     3
   0.14008368  0.23038737  0.62357131
   0.09126451  0.09840411  0.73710029
   0.86656589  0.47148575  0.98255310
   0.05942685  0.09095139  0.29192727
   0.35697694  0.96696573  0.00816228
   0.82219653  0.00208187  0.02383853
   0.66048206  0.84924549  0.77422994
   0.61048475  0.67487826  0.11358280
   0.40431533  0.71398144  0.38526171
   0.34996524  0.50272423  0.01557416
   0.87724902  0.59379577  0.33027676
   0.55511820  0.29667691  0.34655104
   0.60237599  0.37480869  0.72168380
unknown system                          
           1
     4.831583    0.025987    0.333218
     0.154002    5.017965    0.968896
     0.455637    1.364623    6.041857
   H    Sr   H    Nb   H    Sr
   3   1   3   1   4   1
Direct configuration=     4
   0.14009396  0.23097718  0.62337045
   0.09131360  0.09870318  0.73714291
   0.86660966  0.47143640  0.98255225
   0.05943316  0.09085110  0.29198662
   0.35690729  0.96688299  0.00817743
   0.82224423  0.00205595  0.02378134
   0.66044339  0.84928371  0.77414954
   0.61045820  0.67478489  0.11358293
   0.40426575  0.71385821  0.38532519
   0.34997302  0.50255164  0.01562273
   0.87723966  0.59375214  0.33030772
   0.55514045  0.29650008  0.34663133
   0.60238263  0.37474953  0.72168256
unknown system                          
           1
     4.842257    0.020461    0.332989
     0.148209    5.023074    0.973539
     0.454158    1.369404    6.050756
   H    Sr   H    Nb   H    Sr
   3   1   3   1   4   1
Direct configuration=     5
   0.14012543  0.23274627  0.62276774
   0.09146119  0.09960016  0.73727050
   0.86674078  0.47128844  0.98254973
   0.05945196  0.09055029  0.29216463
   0.35669841  0.96663476  0.00822291
   0.82238715  0.00197831  0.02360985
   0.66032747  0.84939833  0.77390844
   0.61037849  0.67450483  0.11358339
   0.40411699  0.71348851  0.38551563
   0.34999615  0.50203400  0.01576850
   0.87721156  0.59362126  0.33040059
   0.55520696  0.29596972  0.34687221
   0.60240246  0.37457212  0.72167887
