Automatically generated mesh
      58
Reciprocal lattice
    0.00000000000000    0.00000000000000    0.00000000000000             1
    0.14285714285714    0.00000000000000    0.00000000000000             2
    0.28571428571429    0.00000000000000    0.00000000000000             2
    0.42857142857143    0.00000000000000    0.00000000000000             2
    0.00000000000000    0.25000000000000    0.00000000000000             2
    0.14285714285714    0.25000000000000    0.00000000000000             2
    0.28571428571429    0.25000000000000    0.00000000000000             2
    0.42857142857143    0.25000000000000    0.00000000000000             2
   -0.42857142857143    0.25000000000000    0.00000000000000             2
   -0.28571428571429    0.25000000000000    0.00000000000000             2
   -0.14285714285714    0.25000000000000    0.00000000000000             2
    0.00000000000000    0.50000000000000    0.00000000000000             1
    0.14285714285714    0.50000000000000    0.00000000000000             2
    0.28571428571429    0.50000000000000    0.00000000000000             2
    0.42857142857143    0.50000000000000    0.00000000000000             2
    0.00000000000000    0.00000000000000    0.25000000000000             2
    0.14285714285714    0.00000000000000    0.25000000000000             2
    0.28571428571429    0.00000000000000    0.25000000000000             2
    0.42857142857143    0.00000000000000    0.25000000000000             2
   -0.42857142857143    0.00000000000000    0.25000000000000             2
   -0.28571428571429    0.00000000000000    0.25000000000000             2
   -0.14285714285714    0.00000000000000    0.25000000000000             2
    0.00000000000000    0.25000000000000    0.25000000000000             2
    0.14285714285714    0.25000000000000    0.25000000000000             2
    0.28571428571429    0.25000000000000    0.25000000000000             2
    0.42857142857143    0.25000000000000    0.25000000000000             2
   -0.42857142857143    0.25000000000000    0.25000000000000             2
   -0.28571428571429    0.25000000000000    0.25000000000000             2
   -0.14285714285714    0.25000000000000    0.25000000000000             2
    0.00000000000000    0.50000000000000    0.25000000000000             2
    0.14285714285714    0.50000000000000    0.25000000000000             2
    0.28571428571429    0.50000000000000    0.25000000000000             2
    0.42857142857143    0.50000000000000    0.25000000000000             2
   -0.42857142857143    0.50000000000000    0.25000000000000             2
   -0.28571428571429    0.50000000000000    0.25000000000000             2
   -0.14285714285714    0.50000000000000    0.25000000000000             2
    0.00000000000000   -0.25000000000000    0.25000000000000             2
    0.14285714285714   -0.25000000000000    0.25000000000000             2
    0.28571428571429   -0.25000000000000    0.25000000000000             2
    0.42857142857143   -0.25000000000000    0.25000000000000             2
   -0.42857142857143   -0.25000000000000    0.25000000000000             2
   -0.28571428571429   -0.25000000000000    0.25000000000000             2
   -0.14285714285714   -0.25000000000000    0.25000000000000             2
    0.00000000000000    0.00000000000000    0.50000000000000             1
    0.14285714285714    0.00000000000000    0.50000000000000             2
    0.28571428571429    0.00000000000000    0.50000000000000             2
    0.42857142857143    0.00000000000000    0.50000000000000             2
    0.00000000000000    0.25000000000000    0.50000000000000             2
    0.14285714285714    0.25000000000000    0.50000000000000             2
    0.28571428571429    0.25000000000000    0.50000000000000             2
    0.42857142857143    0.25000000000000    0.50000000000000             2
   -0.42857142857143    0.25000000000000    0.50000000000000             2
   -0.28571428571429    0.25000000000000    0.50000000000000             2
   -0.14285714285714    0.25000000000000    0.50000000000000             2
    0.00000000000000    0.50000000000000    0.50000000000000             1
    0.14285714285714    0.50000000000000    0.50000000000000             2
    0.28571428571429    0.50000000000000    0.50000000000000             2
    0.42857142857143    0.50000000000000    0.50000000000000             2
Tetrahedra
       336    0.00148809523810
         2         2         5         6        23
         2         1         2         5        23
         2         1         2        16        23
         2         2         6        23        24
         2         2        17        23        24
         2         2        16        17        23
         2         3         6         7        24
         2         2         3         6        24
         2         2         3        17        24
         2         3         7        24        25
         2         3        18        24        25
         2         3        17        18        24
         2         4         7         8        25
         2         3         4         7        25
         2         3         4        18        25
         2         4         8        25        26
         2         4        19        25        26
         2         4        18        19        25
         2         4         8         9        26
         2         4         4         8        26
         2         4         4        19        26
         2         4         9        26        27
         2         4        20        26        27
         2         4        19        20        26
         2         3         9        10        27
         2         3         4         9        27
         2         3         4        20        27
         2         3        10        27        28
         2         3        21        27        28
         2         3        20        21        27
         2         2        10        11        28
         2         2         3        10        28
         2         2         3        21        28
         2         2        11        28        29
         2         2        22        28        29
         2         2        21        22        28
         2         1         5        11        29
         2         1         2        11        29
         2         1         2        22        29
         2         1         5        23        29
         2         1        16        23        29
         2         1        16        22        29
         2         6        12        13        30
         2         5         6        12        30
         2         5         6        23        30
         2         6        13        30        31
         2         6        24        30        31
         2         6        23        24        30
         2         7        13        14        31
         2         6         7        13        31
         2         6         7        24        31
         2         7        14        31        32
         2         7        25        31        32
         2         7        24        25        31
         2         8        14        15        32
         2         7         8        14        32
         2         7         8        25        32
         2         8        15        32        33
         2         8        26        32        33
         2         8        25        26        32
         2         9        15        15        33
         2         8         9        15        33
         2         8         9        26        33
         2         9        15        33        34
         2         9        27        33        34
         2         9        26        27        33
         2        10        14        15        34
         2         9        10        15        34
         2         9        10        27        34
         2        10        14        34        35
         2        10        28        34        35
         2        10        27        28        34
         2        11        13        14        35
         2        10        11        14        35
         2        10        11        28        35
         2        11        13        35        36
         2        11        29        35        36
         2        11        28        29        35
         2         5        12        13        36
         2         5        11        13        36
         2         5        11        29        36
         2         5        12        30        36
         2         5        23        30        36
         2         5        23        29        36
         2         5        11        13        37
         2         5        12        13        37
         2        12        13        30        37
         2        11        13        37        38
         2        13        31        37        38
         2        13        30        31        37
         2        10        11        14        38
         2        11        13        14        38
         2        13        14        31        38
         2        10        14        38        39
         2        14        32        38        39
         2        14        31        32        38
         2         9        10        15        39
         2        10        14        15        39
         2        14        15        32        39
         2         9        15        39        40
         2        15        33        39        40
         2        15        32        33        39
         2         8         9        15        40
         2         9        15        15        40
         2        15        15        33        40
         2         8        15        40        41
         2        15        34        40        41
         2        15        33        34        40
         2         7         8        14        41
         2         8        14        15        41
         2        14        15        34        41
         2         7        14        41        42
         2        14        35        41        42
         2        14        34        35        41
         2         6         7        13        42
         2         7        13        14        42
         2        13        14        35        42
         2         6        13        42        43
         2        13        36        42        43
         2        13        35        36        42
         2         5         6        12        43
         2         6        12        13        43
         2        12        13        36        43
         2         5        12        37        43
         2        12        30        37        43
         2        12        30        36        43
         2         1         2        11        16
         2         1         5        11        16
         2         5        11        16        37
         2         2        11        16        17
         2        11        16        17        38
         2        11        16        37        38
         2         2         3        10        17
         2         2        10        11        17
         2        10        11        17        38
         2         3        10        17        18
         2        10        17        18        39
         2        10        17        38        39
         2         3         4         9        18
         2         3         9        10        18
         2         9        10        18        39
         2         4         9        18        19
         2         9        18        19        40
         2         9        18        39        40
         2         4         4         8        19
         2         4         8         9        19
         2         8         9        19        40
         2         4         8        19        20
         2         8        19        20        41
         2         8        19        40        41
         2         3         4         7        20
         2         4         7         8        20
         2         7         8        20        41
         2         3         7        20        21
         2         7        20        21        42
         2         7        20        41        42
         2         2         3         6        21
         2         3         6         7        21
         2         6         7        21        42
         2         2         6        21        22
         2         6        21        22        43
         2         6        21        42        43
         2         1         2         5        22
         2         2         5         6        22
         2         5         6        22        43
         2         1         5        16        22
         2         5        16        22        37
         2         5        22        37        43
         2        17        23        24        48
         2        16        17        23        48
         2        16        17        44        48
         2        17        24        48        49
         2        17        45        48        49
         2        17        44        45        48
         2        18        24        25        49
         2        17        18        24        49
         2        17        18        45        49
         2        18        25        49        50
         2        18        46        49        50
         2        18        45        46        49
         2        19        25        26        50
         2        18        19        25        50
         2        18        19        46        50
         2        19        26        50        51
         2        19        47        50        51
         2        19        46        47        50
         2        20        26        27        51
         2        19        20        26        51
         2        19        20        47        51
         2        20        27        51        52
         2        20        47        51        52
         2        20        47        47        51
         2        21        27        28        52
         2        20        21        27        52
         2        20        21        47        52
         2        21        28        52        53
         2        21        46        52        53
         2        21        46        47        52
         2        22        28        29        53
         2        21        22        28        53
         2        21        22        46        53
         2        22        29        53        54
         2        22        45        53        54
         2        22        45        46        53
         2        16        23        29        54
         2        16        22        29        54
         2        16        22        45        54
         2        16        23        48        54
         2        16        44        48        54
         2        16        44        45        54
         2        24        30        31        55
         2        23        24        30        55
         2        23        24        48        55
         2        24        31        55        56
         2        24        49        55        56
         2        24        48        49        55
         2        25        31        32        56
         2        24        25        31        56
         2        24        25        49        56
         2        25        32        56        57
         2        25        50        56        57
         2        25        49        50        56
         2        26        32        33        57
         2        25        26        32        57
         2        25        26        50        57
         2        26        33        57        58
         2        26        51        57        58
         2        26        50        51        57
         2        27        33        34        58
         2        26        27        33        58
         2        26        27        51        58
         2        27        34        58        58
         2        27        52        58        58
         2        27        51        52        58
         2        28        34        35        58
         2        27        28        34        58
         2        27        28        52        58
         2        28        35        57        58
         2        28        53        57        58
         2        28        52        53        58
         2        29        35        36        57
         2        28        29        35        57
         2        28        29        53        57
         2        29        36        56        57
         2        29        54        56        57
         2        29        53        54        57
         2        23        30        36        56
         2        23        29        36        56
         2        23        29        54        56
         2        23        30        55        56
         2        23        48        55        56
         2        23        48        54        56
         2        31        37        38        48
         2        30        31        37        48
         2        30        31        48        55
         2        31        38        48        54
         2        31        48        54        56
         2        31        48        55        56
         2        32        38        39        54
         2        31        32        38        54
         2        31        32        54        56
         2        32        39        53        54
         2        32        53        54        57
         2        32        54        56        57
         2        33        39        40        53
         2        32        33        39        53
         2        32        33        53        57
         2        33        40        52        53
         2        33        52        53        58
         2        33        53        57        58
         2        34        40        41        52
         2        33        34        40        52
         2        33        34        52        58
         2        34        41        51        52
         2        34        51        52        58
         2        34        52        58        58
         2        35        41        42        51
         2        34        35        41        51
         2        34        35        51        58
         2        35        42        50        51
         2        35        50        51        57
         2        35        51        57        58
         2        36        42        43        50
         2        35        36        42        50
         2        35        36        50        57
         2        36        43        49        50
         2        36        49        50        56
         2        36        50        56        57
         2        30        37        43        49
         2        30        36        43        49
         2        30        36        49        56
         2        30        37        48        49
         2        30        48        49        55
         2        30        49        55        56
         2        16        17        38        44
         2        16        37        38        44
         2        37        38        44        48
         2        17        38        44        45
         2        38        44        45        54
         2        38        44        48        54
         2        17        18        39        45
         2        17        38        39        45
         2        38        39        45        54
         2        18        39        45        46
         2        39        45        46        53
         2        39        45        53        54
         2        18        19        40        46
         2        18        39        40        46
         2        39        40        46        53
         2        19        40        46        47
         2        40        46        47        52
         2        40        46        52        53
         2        19        20        41        47
         2        19        40        41        47
         2        40        41        47        52
         2        20        41        47        47
         2        41        47        47        51
         2        41        47        51        52
         2        20        21        42        47
         2        20        41        42        47
         2        41        42        47        51
         2        21        42        46        47
         2        42        46        47        50
         2        42        47        50        51
         2        21        22        43        46
         2        21        42        43        46
         2        42        43        46        50
         2        22        43        45        46
         2        43        45        46        49
         2        43        46        49        50
         2        16        22        37        45
         2        22        37        43        45
         2        37        43        45        49
         2        16        37        44        45
         2        37        44        45        48
         2        37        45        48        49
