       N       E                     dE             d eps       ncg     rms          rms(c)
DAV:   1     0.143287932116E+03    0.14329E+03   -0.13643E+04  8192   0.834E+02
DAV:   2    -0.308127585574E+02   -0.17410E+03   -0.16259E+03  9568   0.240E+02
DAV:   3    -0.391008908764E+02   -0.82881E+01   -0.82185E+01 15184   0.470E+01
DAV:   4    -0.391543573055E+02   -0.53466E-01   -0.53515E-01  8688   0.297E+00
DAV:   5    -0.391552625179E+02   -0.90521E-03   -0.90692E-03 12624   0.346E-01    0.348E+01
RMM:   6    -0.391075731347E+02    0.47689E-01   -0.42000E+00  8776   0.865E+00    0.161E+01
RMM:   7    -0.390584285506E+02    0.49145E-01   -0.85754E-01  8809   0.561E+00    0.691E+00
RMM:   8    -0.390556718544E+02    0.27567E-02   -0.11450E-01  8959   0.252E+00    0.366E+00
RMM:   9    -0.390577625042E+02   -0.20906E-02   -0.30950E-02  8660   0.101E+00    0.162E+00
RMM:  10    -0.390611592116E+02   -0.33967E-02   -0.91679E-03  8332   0.728E-01    0.715E-01
RMM:  11    -0.390618967607E+02   -0.73755E-03   -0.17897E-03  7568   0.302E-01    0.202E-01
RMM:  12    -0.390618732055E+02    0.23555E-04   -0.60799E-04  6477   0.173E-01
   1 F= -.39061873E+02 E0= -.39061873E+02  d E =-.390619E+02  mag=     0.0019
       N       E                     dE             d eps       ncg     rms          rms(c)
DAV:   1    -0.392245296918E+02   -0.16263E+00   -0.20430E+00 12240   0.931E+00    0.399E+00
RMM:   2    -0.391153219675E+02    0.10921E+00   -0.19297E-01  8536   0.250E+00    0.830E-01
RMM:   3    -0.391013582393E+02    0.13964E-01   -0.19424E-02  8866   0.116E+00    0.804E-01
RMM:   4    -0.390990972815E+02    0.22610E-02   -0.57771E-03  8287   0.458E-01    0.740E-01
RMM:   5    -0.390990419035E+02    0.55378E-04   -0.46736E-03  8442   0.413E-01
   2 F= -.39099042E+02 E0= -.39099042E+02  d E =-.371687E-01  mag=     0.0000
       N       E                     dE             d eps       ncg     rms          rms(c)
DAV:   1    -0.395407859506E+02   -0.44169E+00   -0.71311E+00  8608   0.174E+01    0.741E+00
RMM:   2    -0.391556344760E+02    0.38515E+00   -0.68176E-01  8414   0.472E+00    0.155E+00
RMM:   3    -0.391021928302E+02    0.53442E-01   -0.66598E-02  8889   0.210E+00    0.164E+00
RMM:   4    -0.390948659333E+02    0.73269E-02   -0.20721E-02  9250   0.859E-01    0.160E+00
RMM:   5    -0.390951590799E+02   -0.29315E-03   -0.16012E-02  9687   0.690E-01    0.304E-01
RMM:   6    -0.390957231326E+02   -0.56405E-03   -0.13904E-02  9381   0.457E-01    0.146E-01
RMM:   7    -0.390961508862E+02   -0.42775E-03   -0.36030E-03  8341   0.343E-01
   3 F= -.39096151E+02 E0= -.39096151E+02  d E =-.342777E-01  mag=    -0.0000
       N       E                     dE             d eps       ncg     rms          rms(c)
DAV:   1    -0.391891817202E+02   -0.93459E-01   -0.12661E+00 12352   0.705E+00    0.294E+00
RMM:   2    -0.391221126089E+02    0.67069E-01   -0.11544E-01  8549   0.194E+00    0.708E-01
RMM:   3    -0.391109852748E+02    0.11127E-01   -0.13330E-02  8819   0.927E-01    0.558E-01
RMM:   4    -0.391087755174E+02    0.22098E-02   -0.56339E-03  8333   0.414E-01    0.481E-01
RMM:   5    -0.391087572252E+02    0.18292E-04   -0.33163E-03  8082   0.333E-01
   4 F= -.39108757E+02 E0= -.39108757E+02  d E =-.468840E-01  mag=     0.0000
       N       E                     dE             d eps       ncg     rms          rms(c)
DAV:   1    -0.391337273561E+02   -0.24952E-01   -0.12554E+00 10240   0.797E+00    0.195E+00
RMM:   2    -0.391206916363E+02    0.13036E-01   -0.60349E-02  8970   0.129E+00    0.593E-01
RMM:   3    -0.391170332759E+02    0.36584E-02   -0.73201E-03  9150   0.623E-01    0.328E-01
RMM:   4    -0.391171959564E+02   -0.16268E-03   -0.39368E-03  7551   0.272E-01
   5 F= -.39117196E+02 E0= -.39117196E+02  d E =-.843873E-02  mag=     0.0000
       N       E                     dE             d eps       ncg     rms          rms(c)
DAV:   1    -0.391185181081E+02   -0.14848E-02   -0.44130E-02 13872   0.147E+00    0.319E-01
RMM:   2    -0.391181033961E+02    0.41471E-03   -0.16169E-03  6913   0.217E-01
   6 F= -.39118103E+02 E0= -.39118103E+02  d E =-.934617E-02  mag=     0.0000
       N       E                     dE             d eps       ncg     rms          rms(c)
DAV:   1    -0.391260060257E+02   -0.74879E-02   -0.51362E-01 10240   0.529E+00    0.552E-01
RMM:   2    -0.391231768475E+02    0.28292E-02   -0.26133E-02  8908   0.801E-01    0.183E-01
RMM:   3    -0.391226433639E+02    0.53348E-03   -0.10237E-03  6814   0.316E-01    0.218E-01
RMM:   4    -0.391226361471E+02    0.72168E-05   -0.38578E-04  6035   0.140E-01
   7 F= -.39122636E+02 E0= -.39122636E+02  d E =-.453275E-02  mag=     0.0000
       N       E                     dE             d eps       ncg     rms          rms(c)
DAV:   1    -0.391267061419E+02   -0.40628E-02   -0.61067E-01 10752   0.579E+00    0.528E-01
RMM:   2    -0.391238037979E+02    0.29023E-02   -0.31119E-02  8916   0.876E-01    0.217E-01
RMM:   3    -0.391232478458E+02    0.55595E-03   -0.12175E-03  6854   0.344E-01    0.277E-01
RMM:   4    -0.391232634043E+02   -0.15558E-04   -0.41622E-04  6177   0.149E-01
   8 F= -.39123263E+02 E0= -.39123263E+02  d E =-.516001E-02  mag=     0.0000
       N       E                     dE             d eps       ncg     rms          rms(c)
DAV:   1    -0.391301636914E+02   -0.69158E-02   -0.13538E-01 13024   0.247E+00    0.536E-01
RMM:   2    -0.391259278563E+02    0.42358E-02   -0.90468E-03  8724   0.520E-01    0.204E-01
RMM:   3    -0.391256020858E+02    0.32577E-03   -0.81579E-04  6610   0.233E-01
   9 F= -.39125602E+02 E0= -.39125602E+02  d E =-.233868E-02  mag=    -0.0000
       N       E                     dE             d eps       ncg     rms          rms(c)
DAV:   1    -0.391674676709E+02   -0.41540E-01   -0.12585E+00  9984   0.749E+00    0.183E+00
RMM:   2    -0.391306677754E+02    0.36800E-01   -0.87375E-02  8786   0.161E+00    0.556E-01
RMM:   3    -0.391266048376E+02    0.40629E-02   -0.92081E-03  9280   0.677E-01    0.476E-01
RMM:   4    -0.391263780864E+02    0.22675E-03   -0.59204E-03  8190   0.338E-01    0.460E-01
RMM:   5    -0.391268607218E+02   -0.48264E-03   -0.12948E-03  7256   0.249E-01
  10 F= -.39126861E+02 E0= -.39126861E+02  d E =-.359732E-02  mag=     0.0000
