 running on   32 total cores
 distrk:  each k-point on   32 cores,    1 groups
 distr:  one band on    8 cores,    4 groups
 using from now: INCAR     
 vasp.5.4.4.18Apr17-6-g9f103f2a35 (build Nov 01 2019 12:17:22) complex          
  
 POSCAR found type information on POSCAR  H 
 POSCAR found :  1 types and      22 ions

 ----------------------------------------------------------------------------- 
|                                                                             |
|  ADVICE TO THIS USER RUNNING 'VASP/VAMP'   (HEAR YOUR MASTER'S VOICE ...):  |
|                                                                             |
|      You have a (more or less) 'large supercell' and for larger cells       |
|      it might be more efficient to use real space projection opertators     |
|      So try LREAL= Auto  in the INCAR   file.                               |
|      Mind:          For very  accurate calculation you might also keep the  |
|      reciprocal projection scheme          (i.e. LREAL=.FALSE.)             |
|                                                                             |
 ----------------------------------------------------------------------------- 

 LDA part: xc-table for Pade appr. of Perdew
 generate k-points for:    9    9    6
 POSCAR, INCAR and KPOINTS ok, starting setup
 FFT: planning ...
 WAVECAR not read
 entering main loop
       N       E                     dE             d eps       ncg     rms          rms(c)
DAV:   1    -0.234659389639E+02   -0.23466E+02   -0.57769E+03 11712   0.418E+02
DAV:   2    -0.739795815145E+02   -0.50514E+02   -0.49513E+02 14624   0.104E+02
DAV:   3    -0.759146038605E+02   -0.19350E+01   -0.19320E+01 14936   0.202E+01
DAV:   4    -0.759195717629E+02   -0.49679E-02   -0.49677E-02 13376   0.124E+00
DAV:   5    -0.759195946996E+02   -0.22937E-04   -0.22936E-04 15216   0.729E-02    0.143E+01
DAV:   6    -0.732210031120E+02    0.26986E+01   -0.80177E-01 12888   0.392E+00    0.815E+00
DAV:   7    -0.718901530181E+02    0.13309E+01   -0.20690E+00 14360   0.663E+00    0.728E-01
DAV:   8    -0.719229990266E+02   -0.32846E-01   -0.89581E-02 12304   0.135E+00    0.445E-01
DAV:   9    -0.719189622433E+02    0.40368E-02   -0.55047E-03 15568   0.365E-01    0.588E-02
DAV:  10    -0.719190753537E+02   -0.11311E-03   -0.21075E-04 13024   0.731E-02    0.277E-02
DAV:  11    -0.719191363244E+02   -0.60971E-04   -0.75856E-05 11264   0.494E-02
   1 F= -.71919136E+02 E0= -.71919566E+02  d E =-.719191E+02
 curvature:   0.00 expect dE= 0.000E+00 dE for cont linesearch  0.000E+00
 trial: gam= 0.00000 g(F)=  0.430E-02 g(S)=  0.626E-03 ort = 0.000E+00 (trialstep = 0.100E+01)
 search vector abs. value=  0.492E-02
 bond charge predicted
       N       E                     dE             d eps       ncg     rms          rms(c)
DAV:   1    -0.719179550261E+02    0.11203E-02   -0.99269E-02 13656   0.174E+00    0.131E-01
DAV:   2    -0.719182234234E+02   -0.26840E-03   -0.50966E-03 14264   0.383E-01    0.106E-01
DAV:   3    -0.719180286163E+02    0.19481E-03   -0.17868E-04 14112   0.135E-01    0.242E-02
DAV:   4    -0.719180463808E+02   -0.17765E-04   -0.26373E-04 10376   0.803E-02
   2 F= -.71918046E+02 E0= -.71918479E+02  d E =0.108994E-02
 trial-energy change:    0.001090  1 .order    0.001050   -0.004922    0.007022
 step:   0.4121(harm=  0.4121)  dis= 0.00253  next Energy=   -71.920150 (dE=-0.101E-02)
 bond charge predicted
       N       E                     dE             d eps       ncg     rms          rms(c)
DAV:   1    -0.719201278439E+02   -0.20992E-02   -0.34186E-02 13640   0.102E+00    0.782E-02
DAV:   2    -0.719202005247E+02   -0.72681E-04   -0.16263E-03 14160   0.218E-01    0.623E-02
DAV:   3    -0.719201287196E+02    0.71805E-04   -0.65901E-05 12336   0.860E-02
   3 F= -.71920129E+02 E0= -.71920559E+02  d E =-.992395E-03
 curvature:  -0.21 expect dE=-0.420E-03 dE for cont linesearch -0.716E-05
 trial: gam= 0.49851 g(F)=  0.151E-02 g(S)=  0.530E-03 ort =-0.414E-03 (trialstep = 0.882E+00)
 search vector abs. value=  0.285E-02
 reached required accuracy - stopping structural energy minimisation
