unknown system                          
           1
     2.823776    0.006350    0.097835
    -0.169575    4.117073   -0.353194
    -0.456327   -0.891287    7.779940
   H 
  15
Direct configuration=     1
   0.18263600  0.66750900  0.83295200
   0.84914400  0.66776700  0.83106500
   0.59816100  0.52413600  0.21642200
   0.42633600  0.45505400  0.27234800
   0.51487200  0.66543100  0.82133000
   0.60190900  0.08504600  0.39854300
   0.90765200  0.11416800  0.65437600
   0.12763600  0.54860400  0.55041300
   0.95277000  0.57830100  0.48266400
   0.10321000  0.11283200  0.71970100
   0.43319800  0.99885200  0.44851300
   0.09496400  0.91845000  0.18134000
   0.92323700  0.95319200  0.11429400
   0.44034600  0.22087900  0.98748800
   0.63007700  0.22579000  0.92375500
unknown system                          
           1
     2.854369    0.006672    0.099033
    -0.171091    4.162941   -0.356208
    -0.461167   -0.899235    7.869795
   H 
  15
Direct configuration=     2
   0.18257172  0.66754563  0.83278327
   0.84896717  0.66778888  0.83090900
   0.59749039  0.52380200  0.21670179
   0.42663257  0.45521550  0.27216884
   0.51513688  0.66563034  0.82153763
   0.60170229  0.08481115  0.39870171
   0.90765453  0.11438883  0.65448215
   0.12691395  0.54856669  0.55002788
   0.95347874  0.57823141  0.48301611
   0.10352777  0.11310816  0.71975515
   0.43331941  0.99905441  0.44840767
   0.09559142  0.91805026  0.18139224
   0.92263310  0.95306893  0.11404821
   0.43967633  0.22098117  0.98766260
   0.63085175  0.22576765  0.92360977
unknown system                          
           1
     2.946149    0.007637    0.102627
    -0.175641    4.300543   -0.365250
    -0.475689   -0.923078    8.139358
   H 
  15
Direct configuration=     3
   0.18238104  0.66765461  0.83228285
   0.84844244  0.66785411  0.83044637
   0.59550013  0.52281072  0.21753172
   0.42751277  0.45569489  0.27163743
   0.51592277  0.66622135  0.82215329
   0.60108882  0.08411416  0.39917248
   0.90766187  0.11504381  0.65479686
   0.12477125  0.54845677  0.54888579
   0.95558198  0.57802421  0.48406032
   0.10447069  0.11392733  0.71991562
   0.43367969  0.99965509  0.44809521
   0.09745363  0.91686407  0.18154725
   0.92084104  0.95270433  0.11331934
   0.43768871  0.22128411  0.98818042
   0.63315116  0.22570144  0.92317904
unknown system                          
           1
     2.954015    0.007705    0.102880
    -0.176067    4.314614   -0.365621
    -0.477160   -0.924656    8.164771
   H 
  15
Direct configuration=     4
   0.18237155  0.66766451  0.83221856
   0.84843235  0.66785949  0.83039460
   0.59511065  0.52263686  0.21767612
   0.42779633  0.45581937  0.27152413
   0.51594867  0.66628215  0.82223520
   0.60067003  0.08386404  0.39932255
   0.90834140  0.11510258  0.65504927
   0.12448031  0.54846028  0.54874391
   0.95586681  0.57799111  0.48419079
   0.10388480  0.11401046  0.71970791
   0.43407374  0.99989528  0.44796054
   0.09678864  0.91692024  0.18123578
   0.92151176  0.95249877  0.11357657
   0.43845251  0.22133310  0.98791416
   0.63241844  0.22567276  0.92345391
unknown system                          
           1
     2.977612    0.007906    0.103642
    -0.177344    4.356827   -0.366735
    -0.481573   -0.929389    8.241010
   H 
  15
Direct configuration=     5
   0.18234315  0.66769420  0.83202631
   0.84840217  0.66787562  0.83023977
   0.59394532  0.52211686  0.21810800
   0.42864473  0.45619169  0.27118525
   0.51602614  0.66646388  0.82248013
   0.59941707  0.08311602  0.39977144
   0.91037451  0.11527805  0.65580412
   0.12360984  0.54847093  0.54831959
   0.95671904  0.57789198  0.48458099
   0.10213183  0.11425924  0.71908668
   0.43525269  0.00061360  0.44755772
   0.09479900  0.91708849  0.18030426
   0.92351858  0.95188386  0.11434593
   0.44073782  0.22147979  0.98711786
   0.63022611  0.22558678  0.92427594
unknown system                          
           1
     3.024807    0.008309    0.105164
    -0.179900    4.441252   -0.368963
    -0.490401   -0.938854    8.393488
   H 
  15
Direct configuration=     6
   0.18228683  0.66775333  0.83164536
   0.84834229  0.66790784  0.82993297
   0.59163329  0.52108631  0.21896404
   0.43032798  0.45692963  0.27051358
   0.51617974  0.66682336  0.82296535
   0.59693123  0.08163384  0.40066130
   0.91440833  0.11562411  0.65729972
   0.12188276  0.54849283  0.54747884
   0.95840998  0.57769492  0.48535421
   0.09865366  0.11475316  0.71785560
   0.43759167  0.00203688  0.44675915
   0.09085132  0.91742350  0.17845841
   0.92750055  0.95066453  0.11587072
   0.44527226  0.22177161  0.98554000
   0.62587612  0.22541516  0.92590475
unknown system                          
           1
     3.119198    0.009116    0.108209
    -0.185010    4.610103   -0.373418
    -0.508055   -0.957786    8.698444
   H 
  15
Direct configuration=     7
   0.18217600  0.66787065  0.83089729
   0.84822446  0.66797212  0.82933053
   0.58708194  0.51906195  0.22064602
   0.43364156  0.45837939  0.26919395
   0.51648173  0.66752686  0.82391767
   0.59203802  0.07872342  0.40241018
   0.92234939  0.11629734  0.66023605
   0.11848271  0.54853890  0.54582793
   0.96173900  0.57730547  0.48687270
   0.09180584  0.11572676  0.71543771
   0.44219577  0.00483145  0.44518958
   0.08307944  0.91808753  0.17483356
   0.93534071  0.94826679  0.11886617
   0.45419986  0.22234897  0.98244160
   0.61731156  0.22507337  0.92910305
unknown system                          
           1
     3.054595    0.008564    0.106125
    -0.181512    4.494538   -0.370369
    -0.495972   -0.944829    8.489726
   H 
  15
Direct configuration=     8
   0.18224948  0.66779166  0.83139136
   0.84830259  0.66792842  0.82972839
   0.59010201  0.52039976  0.21953395
   0.43144279  0.45742106  0.27006635
   0.51628182  0.66706522  0.82328933
   0.59528456  0.08064545  0.40125329
   0.91707971  0.11586058  0.65829746
   0.12073907  0.54850465  0.54691816
   0.95952958  0.57756578  0.48586966
   0.09635084  0.11507914  0.71703513
   0.43914109  0.00298616  0.44622798
   0.08823737  0.91764126  0.17722777
   0.93013649  0.94985455  0.11688632
   0.44827428  0.22196225  0.98448787
   0.62299632  0.22530504  0.92699098
unknown system                          
           1
     3.067959    0.008833    0.106661
    -0.181999    4.523749   -0.372043
    -0.498657   -0.949598    8.545398
   H 
  15
Direct configuration=     9
   0.18224723  0.66781146  0.83120088
   0.84840441  0.66793792  0.82960074
   0.58997706  0.52031497  0.21961154
   0.43136655  0.45741005  0.27004907
   0.51619688  0.66719414  0.82354786
   0.59530212  0.08057291  0.40130279
   0.91717733  0.11597446  0.65837368
   0.12065112  0.54843001  0.54682711
   0.95959450  0.57759676  0.48593487
   0.09644208  0.11522877  0.71703860
   0.43907046  0.00303300  0.44620447
   0.08798863  0.91754018  0.17702364
   0.93039737  0.94967026  0.11698866
   0.44861241  0.22202693  0.98436043
   0.62271985  0.22526918  0.92713966
unknown system                          
           1
     3.108052    0.009640    0.108269
    -0.183460    4.611382   -0.377064
    -0.506711   -0.963906    8.712413
   H 
  15
Direct configuration=    10
   0.18224060  0.66787065  0.83063316
   0.84870862  0.66796634  0.82922027
   0.58960386  0.52006219  0.21984283
   0.43113883  0.45737727  0.26999759
   0.51594295  0.66757816  0.82431836
   0.59535458  0.08035667  0.40145033
   0.91746879  0.11631379  0.65860084
   0.12038851  0.54820763  0.54655577
   0.95978835  0.57768903  0.48612922
   0.09671453  0.11567475  0.71704887
   0.43885948  0.00317261  0.44613437
   0.08724584  0.91723913  0.17641529
   0.93117667  0.94912081  0.11729370
   0.44962241  0.22221977  0.98398061
   0.62189398  0.22516219  0.92758281
unknown system                          
           1
     3.106778    0.009514    0.108208
    -0.183584    4.624554   -0.377666
    -0.507518   -0.965729    8.737931
   H 
  15
Direct configuration=    11
   0.18224177  0.66788733  0.83045949
   0.84882107  0.66797687  0.82912773
   0.58902079  0.51981214  0.22004572
   0.43162892  0.45757519  0.26982345
   0.51583950  0.66764944  0.82456509
   0.59497552  0.08012268  0.40158445
   0.91760357  0.11636873  0.65865320
   0.11973642  0.54828406  0.54628342
   0.96041289  0.57760901  0.48638369
   0.09668222  0.11574302  0.71702975
   0.43920607  0.00338270  0.44600672
   0.08808348  0.91699281  0.17667359
   0.93034802  0.94922713  0.11698598
   0.44862581  0.22221960  0.98431478
   0.62292197  0.22516028  0.92726694
unknown system                          
           1
     3.105616    0.009399    0.108152
    -0.183698    4.636568   -0.378215
    -0.508255   -0.967391    8.761207
   H 
  15
Direct configuration=    12
   0.18224287  0.66790253  0.83030155
   0.84892369  0.66798647  0.82904358
   0.58848873  0.51958467  0.22023023
   0.43207613  0.45775525  0.26966508
   0.51574504  0.66771422  0.82478947
   0.59462962  0.07990982  0.40170644
   0.91772654  0.11641870  0.65870082
   0.11914146  0.54835360  0.54603573
   0.96098272  0.57753619  0.48661511
   0.09665275  0.11580512  0.71701236
   0.43952232  0.00357381  0.44589063
   0.08884779  0.91676876  0.17690852
   0.92959194  0.94932387  0.11670612
   0.44771636  0.22221936  0.98461868
   0.62386006  0.22515862  0.92697969
unknown system                          
           1
     3.098933    0.009402    0.107894
    -0.183290    4.651989   -0.378885
    -0.508869   -0.969635    8.789511
   H 
  15
Direct configuration=    13
   0.18225089  0.66792837  0.83005733
   0.84905796  0.66800493  0.82892057
   0.58827237  0.51947598  0.22032042
   0.43218368  0.45779652  0.26960992
   0.51561727  0.66780265  0.82513918
   0.59447046  0.07976693  0.40178100
   0.91795821  0.11648474  0.65877719
   0.11892963  0.54834012  0.54592665
   0.96115074  0.57755735  0.48670127
   0.09655724  0.11588551  0.71697259
   0.43963884  0.00367919  0.44581878
   0.08879586  0.91668632  0.17681229
   0.92965230  0.94923254  0.11674129
   0.44778509  0.22223359  0.98461161
   0.62382748  0.22513627  0.92701392
unknown system                          
           1
     3.078884    0.009412    0.107120
    -0.182065    4.698253   -0.380896
    -0.510710   -0.976368    8.874423
   H 
  15
Direct configuration=    14
   0.18227522  0.66800575  0.82932704
   0.84946175  0.66806020  0.82855274
   0.58762189  0.51915093  0.22059011
   0.43250702  0.45791994  0.26944496
   0.51523268  0.66806686  0.82618489
   0.59399200  0.07933965  0.40200396
   0.91865456  0.11668213  0.65900556
   0.11829291  0.54829987  0.54560047
   0.96165579  0.57762056  0.48695892
   0.09627008  0.11612591  0.71685364
   0.43998913  0.00399432  0.44560391
   0.08863990  0.91643991  0.17652455
   0.92983384  0.94895945  0.11684651
   0.44799173  0.22227612  0.98459047
   0.62372951  0.22506941  0.92711627
unknown system                          
           1
     3.038785    0.009431    0.105572
    -0.179616    4.790780   -0.384918
    -0.514394   -0.989834    9.044247
   H 
  15
Direct configuration=    15
   0.18232555  0.66815979  0.82788042
   0.85027522  0.66817005  0.82782410
   0.58631256  0.51850697  0.22112444
   0.43315801  0.45816452  0.26911817
   0.51445582  0.66858891  0.82825617
   0.59302925  0.07849329  0.40244577
   0.92005547  0.11707274  0.65945787
   0.11701193  0.54822054  0.54495436
   0.96267181  0.57774542  0.48746926
   0.09569177  0.11660209  0.71661793
   0.44069407  0.00461858  0.44517817
   0.08832706  0.91595227  0.17595469
   0.93019961  0.94841855  0.11705502
   0.44840765  0.22236038  0.98454859
   0.62353223  0.22493692  0.92731904
unknown system                          
           1
     3.032419    0.009596    0.105400
    -0.178963    4.805697   -0.386114
    -0.514861   -0.992976    9.072711
   H 
  15
Direct configuration=    16
   0.18232524  0.66818846  0.82767971
   0.85029830  0.66819280  0.82772442
   0.58667627  0.51862831  0.22103015
   0.43268840  0.45797614  0.26924333
   0.51444704  0.66866482  0.82854236
   0.59342267  0.07861975  0.40236177
   0.91981112  0.11713655  0.65937620
   0.11744893  0.54808892  0.54509324
   0.96219005  0.57789149  0.48731564
   0.09607211  0.11667526  0.71673313
   0.44025782  0.00445140  0.44525965
   0.08814124  0.91590121  0.17580872
   0.93039443  0.94829977  0.11714025
   0.44868237  0.22237920  0.98447510
   0.62329202  0.22491692  0.92742034
unknown system                          
           1
     3.013321    0.010090    0.104885
    -0.177004    4.850447   -0.389705
    -0.516261   -1.002402    9.158104
   H 
  15
Direct configuration=    17
   0.18232448  0.66827420  0.82707947
   0.85036778  0.66826082  0.82742631
   0.58776963  0.51899114  0.22074817
   0.43127669  0.45741283  0.26961765
   0.51442023  0.66889187  0.82939824
   0.59460534  0.07899791  0.40211058
   0.91907653  0.11732742  0.65913196
   0.11876270  0.54769524  0.54550856
   0.96074176  0.57832839  0.48685623
   0.09721529  0.11689404  0.71707763
   0.43894646  0.00395149  0.44550331
   0.08758284  0.91574853  0.17537218
   0.93098016  0.94794452  0.11739512
   0.44950832  0.22243545  0.98425531
   0.62256980  0.22485715  0.92772327
unknown system                          
           1
     3.010546    0.010084    0.104791
    -0.176843    4.854618   -0.389990
    -0.516348   -1.003171    9.166212
   H 
  15
Direct configuration=    18
   0.18231008  0.66829257  0.82706301
   0.85018441  0.66827895  0.82742137
   0.58774233  0.51896120  0.22076821
   0.43126525  0.45740902  0.26960342
   0.51462274  0.66890823  0.82941950
   0.59463207  0.07897244  0.40211525
   0.91904754  0.11735390  0.65912610
   0.11873705  0.54769149  0.54548948
   0.96074664  0.57835080  0.48688302
   0.09729988  0.11692058  0.71709763
   0.43890214  0.00395078  0.44548771
   0.08766474  0.91569649  0.17536254
   0.93090202  0.94792142  0.11737393
   0.44944033  0.22244506  0.98428433
   0.62265078  0.22485806  0.92770850
unknown system                          
           1
     3.002222    0.010065    0.104509
    -0.176360    4.867131   -0.390845
    -0.516611   -1.005479    9.190537
   H 
  15
Direct configuration=    19
   0.18226685  0.66834765  0.82701365
   0.84963380  0.66833331  0.82740657
   0.58766036  0.51887145  0.22082829
   0.43123089  0.45739758  0.26956077
   0.51523081  0.66895727  0.82948324
   0.59471234  0.07889611  0.40212924
   0.91896047  0.11743329  0.65910853
   0.11866005  0.54768026  0.54543228
   0.96076128  0.57841798  0.48696333
   0.09755388  0.11700012  0.71715758
   0.43876908  0.00394864  0.44544096
   0.08791067  0.91554051  0.17533363
   0.93066741  0.94785218  0.11731041
   0.44923617  0.22247384  0.98437129
   0.62289395  0.22486080  0.92766422
