  12  12   1   0
  0.8395665E+01  0.3305610E-09  0.3734652E-09  0.9544510E-09  0.5000000E-15
  1.000000000000000E-004
  CAR 
 unknown system                          
     14.78789553    -36.40870940  301      1.01745704      1.00000000
    -36.409  0.0000E+00  0.0000E+00  0.0000E+00  0.0000E+00
    -36.238  0.0000E+00  0.0000E+00  0.0000E+00  0.0000E+00
    -36.067  0.0000E+00  0.0000E+00  0.0000E+00  0.0000E+00
    -35.897  0.0000E+00  0.0000E+00  0.0000E+00  0.0000E+00
    -35.726  0.0000E+00  0.0000E+00  0.0000E+00  0.0000E+00
    -35.555  0.0000E+00  0.0000E+00  0.0000E+00  0.0000E+00
    -35.385  0.0000E+00  0.0000E+00  0.0000E+00  0.0000E+00
    -35.214  0.0000E+00  0.0000E+00  0.0000E+00  0.0000E+00
    -35.043  0.0000E+00  0.0000E+00  0.0000E+00  0.0000E+00
    -34.873  0.0000E+00  0.0000E+00  0.0000E+00  0.0000E+00
    -34.702  0.0000E+00  0.0000E+00  0.0000E+00  0.0000E+00
    -34.532  0.0000E+00  0.0000E+00  0.0000E+00  0.0000E+00
    -34.361  0.0000E+00  0.0000E+00  0.0000E+00  0.0000E+00
    -34.190  0.0000E+00  0.0000E+00  0.0000E+00  0.0000E+00
    -34.020  0.7897E-01  0.7897E-01  0.4391E-02  0.4393E-02
    -33.849  0.0000E+00  0.0000E+00  0.1010E-01  0.1010E-01
    -33.678  0.0000E+00  0.0000E+00  0.1010E-01  0.1010E-01
    -33.508  0.0000E+00  0.0000E+00  0.1010E-01  0.1010E-01
    -33.337  0.0000E+00  0.0000E+00  0.1010E-01  0.1010E-01
    -33.166  0.0000E+00  0.0000E+00  0.1010E-01  0.1010E-01
    -32.996  0.0000E+00  0.0000E+00  0.1010E-01  0.1010E-01
    -32.825  0.0000E+00  0.0000E+00  0.1010E-01  0.1010E-01
    -32.654  0.0000E+00  0.0000E+00  0.1010E-01  0.1010E-01
    -32.484  0.0000E+00  0.0000E+00  0.1010E-01  0.1010E-01
    -32.313  0.0000E+00  0.0000E+00  0.1010E-01  0.1010E-01
    -32.142  0.0000E+00  0.0000E+00  0.1010E-01  0.1010E-01
    -31.972  0.0000E+00  0.0000E+00  0.1010E-01  0.1010E-01
    -31.801  0.0000E+00  0.0000E+00  0.1010E-01  0.1010E-01
    -31.630  0.0000E+00  0.0000E+00  0.1010E-01  0.1010E-01
    -31.460  0.0000E+00  0.0000E+00  0.1010E-01  0.1010E-01
    -31.289  0.0000E+00  0.0000E+00  0.1010E-01  0.1010E-01
    -31.118  0.0000E+00  0.0000E+00  0.1010E-01  0.1010E-01
    -30.948  0.0000E+00  0.0000E+00  0.1010E-01  0.1010E-01
    -30.777  0.0000E+00  0.0000E+00  0.1010E-01  0.1010E-01
    -30.606  0.0000E+00  0.0000E+00  0.1010E-01  0.1010E-01
    -30.436  0.0000E+00  0.0000E+00  0.1010E-01  0.1010E-01
    -30.265  0.3434E-01  0.3434E-01  0.1665E-01  0.1665E-01
    -30.094  0.0000E+00  0.0000E+00  0.3030E-01  0.3030E-01
    -29.924  0.0000E+00  0.0000E+00  0.3030E-01  0.3030E-01
    -29.753  0.0000E+00  0.0000E+00  0.4040E-01  0.4040E-01
    -29.582  0.0000E+00  0.0000E+00  0.4040E-01  0.4040E-01
    -29.412  0.0000E+00  0.0000E+00  0.4040E-01  0.4040E-01
    -29.241  0.0000E+00  0.0000E+00  0.4040E-01  0.4040E-01
    -29.071  0.0000E+00  0.0000E+00  0.4040E-01  0.4040E-01
    -28.900  0.0000E+00  0.0000E+00  0.4040E-01  0.4040E-01
    -28.729  0.0000E+00  0.0000E+00  0.4040E-01  0.4040E-01
    -28.559  0.0000E+00  0.0000E+00  0.4040E-01  0.4040E-01
    -28.388  0.0000E+00  0.0000E+00  0.4040E-01  0.4040E-01
    -28.217  0.0000E+00  0.0000E+00  0.4040E-01  0.4040E-01
    -28.047  0.0000E+00  0.0000E+00  0.4040E-01  0.4040E-01
    -27.876  0.0000E+00  0.0000E+00  0.4040E-01  0.4040E-01
    -27.705  0.0000E+00  0.0000E+00  0.4040E-01  0.4040E-01
    -27.535  0.0000E+00  0.0000E+00  0.4040E-01  0.4040E-01
    -27.364  0.0000E+00  0.0000E+00  0.4040E-01  0.4040E-01
    -27.193  0.0000E+00  0.0000E+00  0.4040E-01  0.4040E-01
    -27.023  0.0000E+00  0.0000E+00  0.4040E-01  0.4040E-01
    -26.852  0.0000E+00  0.0000E+00  0.4040E-01  0.4040E-01
    -26.681  0.0000E+00  0.0000E+00  0.4040E-01  0.4040E-01
    -26.511  0.0000E+00  0.0000E+00  0.4040E-01  0.4040E-01
    -26.340  0.0000E+00  0.0000E+00  0.4040E-01  0.4040E-01
    -26.169  0.0000E+00  0.0000E+00  0.4040E-01  0.4040E-01
    -25.999  0.0000E+00  0.0000E+00  0.4040E-01  0.4040E-01
    -25.828  0.0000E+00  0.0000E+00  0.4040E-01  0.4040E-01
    -25.657  0.0000E+00  0.0000E+00  0.4040E-01  0.4040E-01
    -25.487  0.0000E+00  0.0000E+00  0.4040E-01  0.4040E-01
    -25.316  0.0000E+00  0.0000E+00  0.4040E-01  0.4040E-01
    -25.145  0.0000E+00  0.0000E+00  0.4040E-01  0.4040E-01
    -24.975  0.0000E+00  0.0000E+00  0.4040E-01  0.4040E-01
    -24.804  0.0000E+00  0.0000E+00  0.4040E-01  0.4040E-01
    -24.633  0.0000E+00  0.0000E+00  0.4040E-01  0.4040E-01
    -24.463  0.0000E+00  0.0000E+00  0.4040E-01  0.4040E-01
    -24.292  0.0000E+00  0.0000E+00  0.4040E-01  0.4040E-01
    -24.122  0.0000E+00  0.0000E+00  0.4040E-01  0.4040E-01
    -23.951  0.0000E+00  0.0000E+00  0.4040E-01  0.4040E-01
    -23.780  0.0000E+00  0.0000E+00  0.4040E-01  0.4040E-01
    -23.610  0.0000E+00  0.0000E+00  0.4040E-01  0.4040E-01
    -23.439  0.0000E+00  0.0000E+00  0.4040E-01  0.4040E-01
    -23.268  0.0000E+00  0.0000E+00  0.4040E-01  0.4040E-01
    -23.098  0.0000E+00  0.0000E+00  0.4040E-01  0.4040E-01
    -22.927  0.0000E+00  0.0000E+00  0.4040E-01  0.4040E-01
    -22.756  0.0000E+00  0.0000E+00  0.4040E-01  0.4040E-01
    -22.586  0.0000E+00  0.0000E+00  0.4040E-01  0.4040E-01
    -22.415  0.0000E+00  0.0000E+00  0.4040E-01  0.4040E-01
    -22.244  0.0000E+00  0.0000E+00  0.4040E-01  0.4040E-01
    -22.074  0.0000E+00  0.0000E+00  0.4040E-01  0.4040E-01
    -21.903  0.0000E+00  0.0000E+00  0.4040E-01  0.4040E-01
    -21.732  0.0000E+00  0.0000E+00  0.4040E-01  0.4040E-01
    -21.562  0.0000E+00  0.0000E+00  0.4040E-01  0.4040E-01
    -21.391  0.0000E+00  0.0000E+00  0.4040E-01  0.4040E-01
    -21.220  0.0000E+00  0.0000E+00  0.4040E-01  0.4040E-01
    -21.050  0.0000E+00  0.0000E+00  0.4040E-01  0.4040E-01
    -20.879  0.0000E+00  0.0000E+00  0.4040E-01  0.4040E-01
    -20.708  0.0000E+00  0.0000E+00  0.4040E-01  0.4040E-01
    -20.538  0.0000E+00  0.0000E+00  0.4040E-01  0.4040E-01
    -20.367  0.0000E+00  0.0000E+00  0.4040E-01  0.4040E-01
    -20.196  0.0000E+00  0.0000E+00  0.4040E-01  0.4040E-01
    -20.026  0.0000E+00  0.0000E+00  0.4040E-01  0.4040E-01
    -19.855  0.0000E+00  0.0000E+00  0.4040E-01  0.4040E-01
    -19.684  0.0000E+00  0.0000E+00  0.4040E-01  0.4040E-01
    -19.514  0.0000E+00  0.0000E+00  0.4040E-01  0.4040E-01
    -19.343  0.0000E+00  0.0000E+00  0.4040E-01  0.4040E-01
    -19.173  0.0000E+00  0.0000E+00  0.4040E-01  0.4040E-01
    -19.002  0.0000E+00  0.0000E+00  0.4040E-01  0.4040E-01
    -18.831  0.0000E+00  0.0000E+00  0.4040E-01  0.4040E-01
    -18.661  0.0000E+00  0.0000E+00  0.4040E-01  0.4040E-01
    -18.490  0.0000E+00  0.0000E+00  0.4040E-01  0.4040E-01
    -18.319  0.0000E+00  0.0000E+00  0.4040E-01  0.4040E-01
    -18.149  0.0000E+00  0.0000E+00  0.4040E-01  0.4040E-01
    -17.978  0.0000E+00  0.0000E+00  0.4040E-01  0.4040E-01
    -17.807  0.0000E+00  0.0000E+00  0.4040E-01  0.4040E-01
    -17.637  0.0000E+00  0.0000E+00  0.4040E-01  0.4040E-01
    -17.466  0.0000E+00  0.0000E+00  0.4040E-01  0.4040E-01
    -17.295  0.0000E+00  0.0000E+00  0.4040E-01  0.4040E-01
    -17.125  0.0000E+00  0.0000E+00  0.4040E-01  0.4040E-01
    -16.954  0.0000E+00  0.0000E+00  0.4040E-01  0.4040E-01
    -16.783  0.4135E-02  0.4134E-02  0.4041E-01  0.4041E-01
    -16.613  0.8320E-02  0.8320E-02  0.4320E-01  0.4320E-01
    -16.442  0.8303E-02  0.8304E-02  0.4462E-01  0.4462E-01
    -16.271  0.5214E-01  0.5215E-01  0.4862E-01  0.4862E-01
    -16.101  0.5930E-01  0.5931E-01  0.5629E-01  0.5629E-01
    -15.930  0.4497E-01  0.4496E-01  0.6556E-01  0.6556E-01
    -15.759  0.4242E-02  0.4242E-02  0.7069E-01  0.7069E-01
    -15.589  0.0000E+00  0.0000E+00  0.7071E-01  0.7071E-01
    -15.418  0.0000E+00  0.0000E+00  0.7071E-01  0.7071E-01
    -15.247  0.0000E+00  0.0000E+00  0.7071E-01  0.7071E-01
    -15.077  0.0000E+00  0.0000E+00  0.7071E-01  0.7071E-01
    -14.906  0.0000E+00  0.0000E+00  0.7071E-01  0.7071E-01
    -14.735  0.0000E+00  0.0000E+00  0.7071E-01  0.7071E-01
    -14.565  0.0000E+00  0.0000E+00  0.7071E-01  0.7071E-01
    -14.394  0.0000E+00  0.0000E+00  0.7071E-01  0.7071E-01
    -14.224  0.0000E+00  0.0000E+00  0.7071E-01  0.7071E-01
    -14.053  0.0000E+00  0.0000E+00  0.7071E-01  0.7071E-01
    -13.882  0.0000E+00  0.0000E+00  0.7071E-01  0.7071E-01
    -13.712  0.0000E+00  0.0000E+00  0.7071E-01  0.7071E-01
    -13.541  0.0000E+00  0.0000E+00  0.7071E-01  0.7071E-01
    -13.370  0.0000E+00  0.0000E+00  0.7071E-01  0.7071E-01
    -13.200  0.0000E+00  0.0000E+00  0.7071E-01  0.7071E-01
    -13.029  0.0000E+00  0.0000E+00  0.7071E-01  0.7071E-01
    -12.858  0.0000E+00  0.0000E+00  0.7071E-01  0.7071E-01
    -12.688  0.0000E+00  0.0000E+00  0.7071E-01  0.7071E-01
    -12.517  0.0000E+00  0.0000E+00  0.7071E-01  0.7071E-01
    -12.346  0.0000E+00  0.0000E+00  0.7071E-01  0.7071E-01
    -12.176  0.0000E+00  0.0000E+00  0.7071E-01  0.7071E-01
    -12.005  0.0000E+00  0.0000E+00  0.7071E-01  0.7071E-01
    -11.834  0.0000E+00  0.0000E+00  0.7071E-01  0.7071E-01
    -11.664  0.0000E+00  0.0000E+00  0.7071E-01  0.7071E-01
    -11.493  0.0000E+00  0.0000E+00  0.7071E-01  0.7071E-01
    -11.322  0.0000E+00  0.0000E+00  0.7071E-01  0.7071E-01
    -11.152  0.0000E+00  0.0000E+00  0.7071E-01  0.7071E-01
    -10.981  0.0000E+00  0.0000E+00  0.7071E-01  0.7071E-01
    -10.810  0.0000E+00  0.0000E+00  0.7071E-01  0.7071E-01
    -10.640  0.0000E+00  0.0000E+00  0.7071E-01  0.7071E-01
    -10.469  0.0000E+00  0.0000E+00  0.7071E-01  0.7071E-01
    -10.298  0.0000E+00  0.0000E+00  0.7071E-01  0.7071E-01
    -10.128  0.0000E+00  0.0000E+00  0.7071E-01  0.7071E-01
     -9.957  0.0000E+00  0.0000E+00  0.7071E-01  0.7071E-01
     -9.786  0.0000E+00  0.0000E+00  0.7071E-01  0.7071E-01
     -9.616  0.0000E+00  0.0000E+00  0.7071E-01  0.7071E-01
     -9.445  0.0000E+00  0.0000E+00  0.7071E-01  0.7071E-01
     -9.275  0.0000E+00  0.0000E+00  0.7071E-01  0.7071E-01
     -9.104  0.0000E+00  0.0000E+00  0.7071E-01  0.7071E-01
     -8.933  0.0000E+00  0.0000E+00  0.7071E-01  0.7071E-01
     -8.763  0.0000E+00  0.0000E+00  0.7071E-01  0.7071E-01
     -8.592  0.0000E+00  0.0000E+00  0.7071E-01  0.7071E-01
     -8.421  0.0000E+00  0.0000E+00  0.7071E-01  0.7071E-01
     -8.251  0.1794E-02  0.1794E-02  0.7076E-01  0.7076E-01
     -8.080  0.3614E-02  0.3614E-02  0.7141E-01  0.7141E-01
     -7.909  0.4324E-02  0.4324E-02  0.7209E-01  0.7209E-01
     -7.739  0.4794E-02  0.4794E-02  0.7288E-01  0.7288E-01
     -7.568  0.5174E-02  0.5174E-02  0.7372E-01  0.7372E-01
     -7.397  0.5769E-02  0.5769E-02  0.7466E-01  0.7466E-01
     -7.227  0.7439E-02  0.7439E-02  0.7575E-01  0.7575E-01
     -7.056  0.1267E-01  0.1267E-01  0.7731E-01  0.7731E-01
     -6.885  0.8957E-02  0.8957E-02  0.7921E-01  0.7921E-01
     -6.715  0.2401E-02  0.2401E-02  0.8077E-01  0.8077E-01
     -6.544  0.4431E-03  0.4431E-03  0.8083E-01  0.8083E-01
     -6.373  0.2583E-02  0.2583E-02  0.8106E-01  0.8106E-01
     -6.203  0.2748E-02  0.2748E-02  0.8156E-01  0.8156E-01
     -6.032  0.3025E-02  0.3025E-02  0.8204E-01  0.8204E-01
     -5.861  0.3613E-02  0.3613E-02  0.8260E-01  0.8260E-01
     -5.691  0.1578E-01  0.1578E-01  0.8354E-01  0.8354E-01
     -5.520  0.1288E-01  0.1288E-01  0.8568E-01  0.8568E-01
     -5.349  0.1466E-01  0.1466E-01  0.8801E-01  0.8801E-01
     -5.179  0.9263E-02  0.9263E-02  0.8984E-01  0.8984E-01
     -5.008  0.4289E-03  0.4289E-03  0.9092E-01  0.9092E-01
     -4.837  0.5473E-02  0.5473E-02  0.9132E-01  0.9132E-01
     -4.667  0.1524E-01  0.1524E-01  0.9311E-01  0.9311E-01
     -4.496  0.1223E-01  0.1223E-01  0.9547E-01  0.9547E-01
     -4.326  0.8565E-02  0.8565E-02  0.9715E-01  0.9715E-01
     -4.155  0.8135E-02  0.8135E-02  0.9869E-01  0.9869E-01
     -3.984  0.6025E-02  0.6025E-02  0.1001E+00  0.1001E+00
     -3.814  0.2528E-02  0.2528E-02  0.1009E+00  0.1009E+00
     -3.643  0.1479E-02  0.1479E-02  0.1011E+00  0.1011E+00
     -3.472  0.7418E-02  0.7418E-02  0.1018E+00  0.1018E+00
     -3.302  0.2723E-01  0.2723E-01  0.1057E+00  0.1057E+00
     -3.131  0.7793E-02  0.7793E-02  0.1116E+00  0.1116E+00
     -2.960  0.1405E-01  0.1405E-01  0.1136E+00  0.1136E+00
     -2.790  0.4489E-01  0.4489E-01  0.1176E+00  0.1176E+00
     -2.619  0.0000E+00  0.0000E+00  0.1212E+00  0.1212E+00
     -2.448  0.0000E+00  0.0000E+00  0.1212E+00  0.1212E+00
     -2.278  0.1008E-02  0.1008E-02  0.1212E+00  0.1212E+00
     -2.107  0.2024E-01  0.2024E-01  0.1231E+00  0.1231E+00
     -1.936  0.1954E-01  0.1954E-01  0.1277E+00  0.1277E+00
     -1.766  0.8152E-02  0.8152E-02  0.1296E+00  0.1296E+00
     -1.595  0.3936E-01  0.3936E-01  0.1333E+00  0.1333E+00
     -1.424  0.2103E-01  0.2103E-01  0.1375E+00  0.1375E+00
     -1.254  0.7432E-02  0.7432E-02  0.1402E+00  0.1402E+00
     -1.083  0.7319E-02  0.7319E-02  0.1415E+00  0.1415E+00
     -0.912  0.7602E-02  0.7602E-02  0.1428E+00  0.1428E+00
     -0.742  0.6766E-02  0.6766E-02  0.1440E+00  0.1440E+00
     -0.571  0.8394E-02  0.8394E-02  0.1452E+00  0.1452E+00
     -0.400  0.9930E-02  0.9930E-02  0.1471E+00  0.1471E+00
     -0.230  0.7017E-02  0.7017E-02  0.1485E+00  0.1485E+00
     -0.059  0.5953E-02  0.5953E-02  0.1496E+00  0.1496E+00
      0.112  0.5275E-02  0.5275E-02  0.1505E+00  0.1505E+00
      0.282  0.4039E-02  0.4039E-02  0.1515E+00  0.1515E+00
      0.453  0.1139E-01  0.1139E-01  0.1530E+00  0.1530E+00
      0.624  0.5745E-02  0.5745E-02  0.1545E+00  0.1545E+00
      0.794  0.5266E-02  0.5266E-02  0.1554E+00  0.1554E+00
      0.965  0.5209E-02  0.5209E-02  0.1563E+00  0.1563E+00
      1.135  0.5910E-02  0.5910E-02  0.1573E+00  0.1573E+00
      1.306  0.4666E-02  0.4666E-02  0.1582E+00  0.1582E+00
      1.477  0.6033E-02  0.6033E-02  0.1591E+00  0.1591E+00
      1.647  0.7084E-02  0.7084E-02  0.1602E+00  0.1602E+00
      1.818  0.8091E-02  0.8091E-02  0.1615E+00  0.1615E+00
      1.989  0.8088E-02  0.8088E-02  0.1629E+00  0.1629E+00
      2.159  0.8509E-02  0.8509E-02  0.1643E+00  0.1643E+00
      2.330  0.8214E-02  0.8214E-02  0.1657E+00  0.1657E+00
      2.501  0.1043E-01  0.1043E-01  0.1672E+00  0.1672E+00
      2.671  0.1626E-01  0.1626E-01  0.1692E+00  0.1692E+00
      2.842  0.9577E-02  0.9577E-02  0.1714E+00  0.1714E+00
      3.013  0.6687E-02  0.6687E-02  0.1729E+00  0.1729E+00
      3.183  0.1782E-01  0.1782E-01  0.1742E+00  0.1742E+00
      3.354  0.2025E-01  0.2025E-01  0.1773E+00  0.1773E+00
      3.525  0.1758E-01  0.1758E-01  0.1817E+00  0.1817E+00
      3.695  0.5712E-02  0.5712E-02  0.1830E+00  0.1830E+00
      3.866  0.9150E-02  0.9150E-02  0.1840E+00  0.1840E+00
      4.037  0.2036E-01  0.2036E-01  0.1866E+00  0.1866E+00
      4.207  0.1124E-01  0.1124E-01  0.1895E+00  0.1895E+00
      4.378  0.1025E-01  0.1025E-01  0.1909E+00  0.1909E+00
      4.549  0.1979E-01  0.1979E-01  0.1940E+00  0.1940E+00
      4.719  0.1171E-01  0.1171E-01  0.1965E+00  0.1965E+00
      4.890  0.2978E-01  0.2978E-01  0.1995E+00  0.1995E+00
      5.061  0.2079E-01  0.2079E-01  0.2035E+00  0.2035E+00
      5.231  0.9627E-02  0.9627E-02  0.2057E+00  0.2057E+00
      5.402  0.2745E-01  0.2745E-01  0.2087E+00  0.2087E+00
      5.573  0.1862E-01  0.1862E-01  0.2135E+00  0.2135E+00
      5.743  0.1429E-01  0.1429E-01  0.2162E+00  0.2162E+00
      5.914  0.1484E-01  0.1484E-01  0.2183E+00  0.2183E+00
      6.084  0.2866E-01  0.2866E-01  0.2224E+00  0.2224E+00
      6.255  0.2591E-01  0.2591E-01  0.2280E+00  0.2280E+00
      6.426  0.1069E-01  0.1069E-01  0.2305E+00  0.2305E+00
      6.596  0.1754E-01  0.1754E-01  0.2329E+00  0.2329E+00
      6.767  0.1778E-01  0.1778E-01  0.2360E+00  0.2360E+00
      6.938  0.2229E-01  0.2229E-01  0.2395E+00  0.2395E+00
      7.108  0.1097E-01  0.1097E-01  0.2432E+00  0.2432E+00
      7.279  0.2405E-01  0.2405E-01  0.2462E+00  0.2462E+00
      7.450  0.1559E-01  0.1559E-01  0.2502E+00  0.2502E+00
      7.620  0.6089E-02  0.6089E-02  0.2518E+00  0.2518E+00
      7.791  0.1061E-01  0.1061E-01  0.2530E+00  0.2530E+00
      7.962  0.1798E-01  0.1798E-01  0.2556E+00  0.2556E+00
      8.132  0.2015E-01  0.2015E-01  0.2591E+00  0.2591E+00
      8.303  0.7474E-02  0.7474E-02  0.2614E+00  0.2614E+00
      8.474  0.2016E-01  0.2016E-01  0.2635E+00  0.2635E+00
      8.644  0.2118E-01  0.2118E-01  0.2678E+00  0.2678E+00
      8.815  0.1037E-01  0.1037E-01  0.2707E+00  0.2707E+00
      8.986  0.1720E-01  0.1720E-01  0.2728E+00  0.2728E+00
      9.156  0.1563E-01  0.1563E-01  0.2756E+00  0.2756E+00
      9.327  0.1633E-01  0.1633E-01  0.2782E+00  0.2782E+00
      9.498  0.1579E-01  0.1579E-01  0.2811E+00  0.2811E+00
      9.668  0.1982E-01  0.1982E-01  0.2838E+00  0.2838E+00
      9.839  0.1855E-01  0.1855E-01  0.2871E+00  0.2871E+00
     10.010  0.1226E-01  0.1226E-01  0.2906E+00  0.2906E+00
     10.180  0.2107E-01  0.2107E-01  0.2931E+00  0.2931E+00
     10.351  0.1539E-01  0.1539E-01  0.2971E+00  0.2971E+00
     10.522  0.1183E-01  0.1183E-01  0.2996E+00  0.2996E+00
     10.692  0.1201E-01  0.1201E-01  0.3016E+00  0.3016E+00
     10.863  0.1649E-01  0.1649E-01  0.3038E+00  0.3038E+00
     11.033  0.2835E-01  0.2835E-01  0.3079E+00  0.3079E+00
     11.204  0.8329E-02  0.8329E-02  0.3111E+00  0.3111E+00
     11.375  0.9931E-02  0.9963E-02  0.3124E+00  0.3124E+00
     11.545  0.1948E-01  0.1926E-01  0.3148E+00  0.3148E+00
     11.716  0.1577E-01  0.1577E-01  0.3179E+00  0.3179E+00
     11.887  0.1117E-01  0.1117E-01  0.3202E+00  0.3202E+00
     12.057  0.7547E-02  0.7553E-02  0.3219E+00  0.3219E+00
     12.228  0.4222E-02  0.4223E-02  0.3229E+00  0.3229E+00
     12.399  0.3410E-03  0.3409E-03  0.3232E+00  0.3232E+00
     12.569  0.0000E+00  0.0000E+00  0.3232E+00  0.3232E+00
     12.740  0.0000E+00  0.0000E+00  0.3232E+00  0.3232E+00
     12.911  0.0000E+00  0.0000E+00  0.3232E+00  0.3232E+00
     13.081  0.0000E+00  0.0000E+00  0.3232E+00  0.3232E+00
     13.252  0.0000E+00  0.0000E+00  0.3232E+00  0.3232E+00
     13.423  0.0000E+00  0.0000E+00  0.3232E+00  0.3232E+00
     13.593  0.0000E+00  0.0000E+00  0.3232E+00  0.3232E+00
     13.764  0.0000E+00  0.0000E+00  0.3232E+00  0.3232E+00
     13.935  0.0000E+00  0.0000E+00  0.3232E+00  0.3232E+00
     14.105  0.0000E+00  0.0000E+00  0.3232E+00  0.3232E+00
     14.276  0.0000E+00  0.0000E+00  0.3232E+00  0.3232E+00
     14.447  0.0000E+00  0.0000E+00  0.3232E+00  0.3232E+00
     14.617  0.0000E+00  0.0000E+00  0.3232E+00  0.3232E+00
     14.788  0.0000E+00  0.0000E+00  0.3232E+00  0.3232E+00
     14.78789553    -36.40870940  301      1.01745704      1.00000000
    -36.409  0.0000E+00  0.0000E+00  0.0000E+00  0.0000E+00  0.0000E+00  0.0000E+00  0.0000E+00  0.0000E+00  0.0000E+00  0.0000E+00  0.0000E+00  0.0000E+00  0.0000E+00  0.0000E+00  0.0000E+00  0.0000E+00  0.0000E+00  0.0000E+00
    -36.238  0.0000E+00  0.0000E+00  0.0000E+00  0.0000E+00  0.0000E+00  0.0000E+00  0.0000E+00  0.0000E+00  0.0000E+00  0.0000E+00  0.0000E+00  0.0000E+00  0.0000E+00  0.0000E+00  0.0000E+00  0.0000E+00  0.0000E+00  0.0000E+00
    -36.067  0.0000E+00  0.0000E+00  0.0000E+00  0.0000E+00  0.0000E+00  0.0000E+00  0.0000E+00  0.0000E+00  0.0000E+00  0.0000E+00  0.0000E+00  0.0000E+00  0.0000E+00  0.0000E+00  0.0000E+00  0.0000E+00  0.0000E+00  0.0000E+00
    -35.897  0.0000E+00  0.0000E+00  0.0000E+00  0.0000E+00  0.0000E+00  0.0000E+00  0.0000E+00  0.0000E+00  0.0000E+00  0.0000E+00  0.0000E+00  0.0000E+00  0.0000E+00  0.0000E+00  0.0000E+00  0.0000E+00  0.0000E+00  0.0000E+00
    -35.726  0.0000E+00  0.0000E+00  0.0000E+00  0.0000E+00  0.0000E+00  0.0000E+00  0.0000E+00  0.0000E+00  0.0000E+00  0.0000E+00  0.0000E+00  0.0000E+00  0.0000E+00  0.0000E+00  0.0000E+00  0.0000E+00  0.0000E+00  0.0000E+00
    -35.555  0.0000E+00  0.0000E+00  0.0000E+00  0.0000E+00  0.0000E+00  0.0000E+00  0.0000E+00  0.0000E+00  0.0000E+00  0.0000E+00  0.0000E+00  0.0000E+00  0.0000E+00  0.0000E+00  0.0000E+00  0.0000E+00  0.0000E+00  0.0000E+00
    -35.385  0.0000E+00  0.0000E+00  0.0000E+00  0.0000E+00  0.0000E+00  0.0000E+00  0.0000E+00  0.0000E+00  0.0000E+00  0.0000E+00  0.0000E+00  0.0000E+00  0.0000E+00  0.0000E+00  0.0000E+00  0.0000E+00  0.0000E+00  0.0000E+00
    -35.214  0.0000E+00  0.0000E+00  0.0000E+00  0.0000E+00  0.0000E+00  0.0000E+00  0.0000E+00  0.0000E+00  0.0000E+00  0.0000E+00  0.0000E+00  0.0000E+00  0.0000E+00  0.0000E+00  0.0000E+00  0.0000E+00  0.0000E+00  0.0000E+00
    -35.043  0.0000E+00  0.0000E+00  0.0000E+00  0.0000E+00  0.0000E+00  0.0000E+00  0.0000E+00  0.0000E+00  0.0000E+00  0.0000E+00  0.0000E+00  0.0000E+00  0.0000E+00  0.0000E+00  0.0000E+00  0.0000E+00  0.0000E+00  0.0000E+00
    -34.873  0.0000E+00  0.0000E+00  0.0000E+00  0.0000E+00  0.0000E+00  0.0000E+00  0.0000E+00  0.0000E+00  0.0000E+00  0.0000E+00  0.0000E+00  0.0000E+00  0.0000E+00  0.0000E+00  0.0000E+00  0.0000E+00  0.0000E+00  0.0000E+00
    -34.702  0.0000E+00  0.0000E+00  0.0000E+00  0.0000E+00  0.0000E+00  0.0000E+00  0.0000E+00  0.0000E+00  0.0000E+00  0.0000E+00  0.0000E+00  0.0000E+00  0.0000E+00  0.0000E+00  0.0000E+00  0.0000E+00  0.0000E+00  0.0000E+00
    -34.532  0.0000E+00  0.0000E+00  0.0000E+00  0.0000E+00  0.0000E+00  0.0000E+00  0.0000E+00  0.0000E+00  0.0000E+00  0.0000E+00  0.0000E+00  0.0000E+00  0.0000E+00  0.0000E+00  0.0000E+00  0.0000E+00  0.0000E+00  0.0000E+00
    -34.361  0.0000E+00  0.0000E+00  0.0000E+00  0.0000E+00  0.0000E+00  0.0000E+00  0.0000E+00  0.0000E+00  0.0000E+00  0.0000E+00  0.0000E+00  0.0000E+00  0.0000E+00  0.0000E+00  0.0000E+00  0.0000E+00  0.0000E+00  0.0000E+00
    -34.190  0.0000E+00  0.0000E+00  0.0000E+00  0.0000E+00  0.0000E+00  0.0000E+00  0.0000E+00  0.0000E+00  0.0000E+00  0.0000E+00  0.0000E+00  0.0000E+00  0.0000E+00  0.0000E+00  0.0000E+00  0.0000E+00  0.0000E+00  0.0000E+00
    -34.020  0.7639E+01  0.7640E+01  0.1506E-04  0.1503E-04  0.3435E-04  0.3435E-04  0.1662E-03  0.1664E-03  0.2897E-05  0.2899E-05  0.3841E-06  0.3842E-06  0.6970E-05  0.6967E-05  0.8047E-07  0.8050E-07  0.1050E-03  0.1050E-03
    -33.849  0.0000E+00  0.0000E+00  0.0000E+00  0.0000E+00  0.0000E+00  0.0000E+00  0.0000E+00  0.0000E+00  0.0000E+00  0.0000E+00  0.0000E+00  0.0000E+00  0.0000E+00  0.0000E+00  0.0000E+00  0.0000E+00  0.0000E+00  0.0000E+00
    -33.678  0.0000E+00  0.0000E+00  0.0000E+00  0.0000E+00  0.0000E+00  0.0000E+00  0.0000E+00  0.0000E+00  0.0000E+00  0.0000E+00  0.0000E+00  0.0000E+00  0.0000E+00  0.0000E+00  0.0000E+00  0.0000E+00  0.0000E+00  0.0000E+00
    -33.508  0.0000E+00  0.0000E+00  0.0000E+00  0.0000E+00  0.0000E+00  0.0000E+00  0.0000E+00  0.0000E+00  0.0000E+00  0.0000E+00  0.0000E+00  0.0000E+00  0.0000E+00  0.0000E+00  0.0000E+00  0.0000E+00  0.0000E+00  0.0000E+00
    -33.337  0.0000E+00  0.0000E+00  0.0000E+00  0.0000E+00  0.0000E+00  0.0000E+00  0.0000E+00  0.0000E+00  0.0000E+00  0.0000E+00  0.0000E+00  0.0000E+00  0.0000E+00  0.0000E+00  0.0000E+00  0.0000E+00  0.0000E+00  0.0000E+00
    -33.166  0.0000E+00  0.0000E+00  0.0000E+00  0.0000E+00  0.0000E+00  0.0000E+00  0.0000E+00  0.0000E+00  0.0000E+00  0.0000E+00  0.0000E+00  0.0000E+00  0.0000E+00  0.0000E+00  0.0000E+00  0.0000E+00  0.0000E+00  0.0000E+00
    -32.996  0.0000E+00  0.0000E+00  0.0000E+00  0.0000E+00  0.0000E+00  0.0000E+00  0.0000E+00  0.0000E+00  0.0000E+00  0.0000E+00  0.0000E+00  0.0000E+00  0.0000E+00  0.0000E+00  0.0000E+00  0.0000E+00  0.0000E+00  0.0000E+00
    -32.825  0.0000E+00  0.0000E+00  0.0000E+00  0.0000E+00  0.0000E+00  0.0000E+00  0.0000E+00  0.0000E+00  0.0000E+00  0.0000E+00  0.0000E+00  0.0000E+00  0.0000E+00  0.0000E+00  0.0000E+00  0.0000E+00  0.0000E+00  0.0000E+00
    -32.654  0.0000E+00  0.0000E+00  0.0000E+00  0.0000E+00  0.0000E+00  0.0000E+00  0.0000E+00  0.0000E+00  0.0000E+00  0.0000E+00  0.0000E+00  0.0000E+00  0.0000E+00  0.0000E+00  0.0000E+00  0.0000E+00  0.0000E+00  0.0000E+00
    -32.484  0.0000E+00  0.0000E+00  0.0000E+00  0.0000E+00  0.0000E+00  0.0000E+00  0.0000E+00  0.0000E+00  0.0000E+00  0.0000E+00  0.0000E+00  0.0000E+00  0.0000E+00  0.0000E+00  0.0000E+00  0.0000E+00  0.0000E+00  0.0000E+00
    -32.313  0.0000E+00  0.0000E+00  0.0000E+00  0.0000E+00  0.0000E+00  0.0000E+00  0.0000E+00  0.0000E+00  0.0000E+00  0.0000E+00  0.0000E+00  0.0000E+00  0.0000E+00  0.0000E+00  0.0000E+00  0.0000E+00  0.0000E+00  0.0000E+00
    -32.142  0.0000E+00  0.0000E+00  0.0000E+00  0.0000E+00  0.0000E+00  0.0000E+00  0.0000E+00  0.0000E+00  0.0000E+00  0.0000E+00  0.0000E+00  0.0000E+00  0.0000E+00  0.0000E+00  0.0000E+00  0.0000E+00  0.0000E+00  0.0000E+00
    -31.972  0.0000E+00  0.0000E+00  0.0000E+00  0.0000E+00  0.0000E+00  0.0000E+00  0.0000E+00  0.0000E+00  0.0000E+00  0.0000E+00  0.0000E+00  0.0000E+00  0.0000E+00  0.0000E+00  0.0000E+00  0.0000E+00  0.0000E+00  0.0000E+00
    -31.801  0.0000E+00  0.0000E+00  0.0000E+00  0.0000E+00  0.0000E+00  0.0000E+00  0.0000E+00  0.0000E+00  0.0000E+00  0.0000E+00  0.0000E+00  0.0000E+00  0.0000E+00  0.0000E+00  0.0000E+00  0.0000E+00  0.0000E+00  0.0000E+00
    -31.630  0.0000E+00  0.0000E+00  0.0000E+00  0.0000E+00  0.0000E+00  0.0000E+00  0.0000E+00  0.0000E+00  0.0000E+00  0.0000E+00  0.0000E+00  0.0000E+00  0.0000E+00  0.0000E+00  0.0000E+00  0.0000E+00  0.0000E+00  0.0000E+00
    -31.460  0.0000E+00  0.0000E+00  0.0000E+00  0.0000E+00  0.0000E+00  0.0000E+00  0.0000E+00  0.0000E+00  0.0000E+00  0.0000E+00  0.0000E+00  0.0000E+00  0.0000E+00  0.0000E+00  0.0000E+00  0.0000E+00  0.0000E+00  0.0000E+00
    -31.289  0.0000E+00  0.0000E+00  0.0000E+00  0.0000E+00  0.0000E+00  0.0000E+00  0.0000E+00  0.0000E+00  0.0000E+00  0.0000E+00  0.0000E+00  0.0000E+00  0.0000E+00  0.0000E+00  0.0000E+00  0.0000E+00  0.0000E+00  0.0000E+00
    -31.118  0.0000E+00  0.0000E+00  0.0000E+00  0.0000E+00  0.0000E+00  0.0000E+00  0.0000E+00  0.0000E+00  0.0000E+00  0.0000E+00  0.0000E+00  0.0000E+00  0.0000E+00  0.0000E+00  0.0000E+00  0.0000E+00  0.0000E+00  0.0000E+00
    -30.948  0.0000E+00  0.0000E+00  0.0000E+00  0.0000E+00  0.0000E+00  0.0000E+00  0.0000E+00  0.0000E+00  0.0000E+00  0.0000E+00  0.0000E+00  0.0000E+00  0.0000E+00  0.0000E+00  0.0000E+00  0.0000E+00  0.0000E+00  0.0000E+00
    -30.777  0.0000E+00  0.0000E+00  0.0000E+00  0.0000E+00  0.0000E+00  0.0000E+00  0.0000E+00  0.0000E+00  0.0000E+00  0.0000E+00  0.0000E+00  0.0000E+00  0.0000E+00  0.0000E+00  0.0000E+00  0.0000E+00  0.0000E+00  0.0000E+00
    -30.606  0.0000E+00  0.0000E+00  0.0000E+00  0.0000E+00  0.0000E+00  0.0000E+00  0.0000E+00  0.0000E+00  0.0000E+00  0.0000E+00  0.0000E+00  0.0000E+00  0.0000E+00  0.0000E+00  0.0000E+00  0.0000E+00  0.0000E+00  0.0000E+00
    -30.436  0.0000E+00  0.0000E+00  0.0000E+00  0.0000E+00  0.0000E+00  0.0000E+00  0.0000E+00  0.0000E+00  0.0000E+00  0.0000E+00  0.0000E+00  0.0000E+00  0.0000E+00  0.0000E+00  0.0000E+00  0.0000E+00  0.0000E+00  0.0000E+00
    -30.265  0.9062E-05  0.9062E-05  0.2563E-06  0.2576E-06  0.2030E-05  0.2029E-05  0.3600E-06  0.3618E-06  0.6636E-07  0.6640E-07  0.1584E-06  0.1584E-06  0.3364E-06  0.3364E-06  0.2362E-06  0.2362E-06  0.9610E-08  0.9585E-08
    -30.094  0.0000E+00  0.0000E+00  0.0000E+00  0.0000E+00  0.0000E+00  0.0000E+00  0.0000E+00  0.0000E+00  0.0000E+00  0.0000E+00  0.0000E+00  0.0000E+00  0.0000E+00  0.0000E+00  0.0000E+00  0.0000E+00  0.0000E+00  0.0000E+00
    -29.924  0.0000E+00  0.0000E+00  0.0000E+00  0.0000E+00  0.0000E+00  0.0000E+00  0.0000E+00  0.0000E+00  0.0000E+00  0.0000E+00  0.0000E+00  0.0000E+00  0.0000E+00  0.0000E+00  0.0000E+00  0.0000E+00  0.0000E+00  0.0000E+00
    -29.753  0.0000E+00  0.0000E+00  0.0000E+00  0.0000E+00  0.0000E+00  0.0000E+00  0.0000E+00  0.0000E+00  0.0000E+00  0.0000E+00  0.0000E+00  0.0000E+00  0.0000E+00  0.0000E+00  0.0000E+00  0.0000E+00  0.0000E+00  0.0000E+00
    -29.582  0.0000E+00  0.0000E+00  0.0000E+00  0.0000E+00  0.0000E+00  0.0000E+00  0.0000E+00  0.0000E+00  0.0000E+00  0.0000E+00  0.0000E+00  0.0000E+00  0.0000E+00  0.0000E+00  0.0000E+00  0.0000E+00  0.0000E+00  0.0000E+00
    -29.412  0.0000E+00  0.0000E+00  0.0000E+00  0.0000E+00  0.0000E+00  0.0000E+00  0.0000E+00  0.0000E+00  0.0000E+00  0.0000E+00  0.0000E+00  0.0000E+00  0.0000E+00  0.0000E+00  0.0000E+00  0.0000E+00  0.0000E+00  0.0000E+00
    -29.241  0.0000E+00  0.0000E+00  0.0000E+00  0.0000E+00  0.0000E+00  0.0000E+00  0.0000E+00  0.0000E+00  0.0000E+00  0.0000E+00  0.0000E+00  0.0000E+00  0.0000E+00  0.0000E+00  0.0000E+00  0.0000E+00  0.0000E+00  0.0000E+00
    -29.071  0.0000E+00  0.0000E+00  0.0000E+00  0.0000E+00  0.0000E+00  0.0000E+00  0.0000E+00  0.0000E+00  0.0000E+00  0.0000E+00  0.0000E+00  0.0000E+00  0.0000E+00  0.0000E+00  0.0000E+00  0.0000E+00  0.0000E+00  0.0000E+00
    -28.900  0.0000E+00  0.0000E+00  0.0000E+00  0.0000E+00  0.0000E+00  0.0000E+00  0.0000E+00  0.0000E+00  0.0000E+00  0.0000E+00  0.0000E+00  0.0000E+00  0.0000E+00  0.0000E+00  0.0000E+00  0.0000E+00  0.0000E+00  0.0000E+00
    -28.729  0.0000E+00  0.0000E+00  0.0000E+00  0.0000E+00  0.0000E+00  0.0000E+00  0.0000E+00  0.0000E+00  0.0000E+00  0.0000E+00  0.0000E+00  0.0000E+00  0.0000E+00  0.0000E+00  0.0000E+00  0.0000E+00  0.0000E+00  0.0000E+00
    -28.559  0.0000E+00  0.0000E+00  0.0000E+00  0.0000E+00  0.0000E+00  0.0000E+00  0.0000E+00  0.0000E+00  0.0000E+00  0.0000E+00  0.0000E+00  0.0000E+00  0.0000E+00  0.0000E+00  0.0000E+00  0.0000E+00  0.0000E+00  0.0000E+00
    -28.388  0.0000E+00  0.0000E+00  0.0000E+00  0.0000E+00  0.0000E+00  0.0000E+00  0.0000E+00  0.0000E+00  0.0000E+00  0.0000E+00  0.0000E+00  0.0000E+00  0.0000E+00  0.0000E+00  0.0000E+00  0.0000E+00  0.0000E+00  0.0000E+00
    -28.217  0.0000E+00  0.0000E+00  0.0000E+00  0.0000E+00  0.0000E+00  0.0000E+00  0.0000E+00  0.0000E+00  0.0000E+00  0.0000E+00  0.0000E+00  0.0000E+00  0.0000E+00  0.0000E+00  0.0000E+00  0.0000E+00  0.0000E+00  0.0000E+00
    -28.047  0.0000E+00  0.0000E+00  0.0000E+00  0.0000E+00  0.0000E+00  0.0000E+00  0.0000E+00  0.0000E+00  0.0000E+00  0.0000E+00  0.0000E+00  0.0000E+00  0.0000E+00  0.0000E+00  0.0000E+00  0.0000E+00  0.0000E+00  0.0000E+00
    -27.876  0.0000E+00  0.0000E+00  0.0000E+00  0.0000E+00  0.0000E+00  0.0000E+00  0.0000E+00  0.0000E+00  0.0000E+00  0.0000E+00  0.0000E+00  0.0000E+00  0.0000E+00  0.0000E+00  0.0000E+00  0.0000E+00  0.0000E+00  0.0000E+00