 running on   32 total cores
 distrk:  each k-point on   32 cores,    1 groups
 distr:  one band on    8 cores,    4 groups
 using from now: INCAR     
 vasp.5.4.4.18Apr17-6-g9f103f2a35 (build Nov 01 2019 12:17:22) complex          
  
 POSCAR found type information on POSCAR  H  Nb H  Sr
 POSCAR found :  4 types and      10 ions
 LDA part: xc-table for Pade appr. of Perdew
 generate k-points for:   16    8    9
 POSCAR, INCAR and KPOINTS ok, starting setup
 FFT: planning ...
 WAVECAR not read
 entering main loop
       N       E                     dE             d eps       ncg     rms          rms(c)
DAV:   1     0.117172696359E+03    0.11717E+03   -0.97763E+03 23880   0.763E+02
DAV:   2    -0.336172554750E+02   -0.15079E+03   -0.14713E+03 30988   0.308E+02
DAV:   3    -0.422255835920E+02   -0.86083E+01   -0.85656E+01 39220   0.576E+01
DAV:   4    -0.425312273875E+02   -0.30564E+00   -0.30482E+00 34336   0.873E+00
DAV:   5    -0.425407265252E+02   -0.94991E-02   -0.94957E-02 37916   0.131E+00    0.343E+01
DAV:   6    -0.398732130029E+02    0.26675E+01   -0.74802E+00 32584   0.201E+01    0.139E+01
DAV:   7    -0.394016452565E+02    0.47157E+00   -0.96339E-01 28004   0.558E+00    0.709E+00
DAV:   8    -0.393662856333E+02    0.35360E-01   -0.34345E-01 29468   0.313E+00    0.161E+00
DAV:   9    -0.393678648249E+02   -0.15792E-02   -0.38659E-02 31692   0.122E+00    0.613E-01
DAV:  10    -0.393686556878E+02   -0.79086E-03   -0.66987E-03 31100   0.533E-01    0.145E-01
DAV:  11    -0.393688405965E+02   -0.18491E-03   -0.39512E-04 30744   0.171E-01    0.565E-02
DAV:  12    -0.393691268906E+02   -0.28629E-03   -0.32776E-04 26432   0.102E-01    0.142E-02
DAV:  13    -0.393691370202E+02   -0.10130E-04   -0.14004E-05 18216   0.296E-02
   1 F= -.39369137E+02 E0= -.39369028E+02  d E =-.393691E+02
 curvature:   0.00 expect dE= 0.000E+00 dE for cont linesearch  0.000E+00
 trial: gam= 0.00000 g(F)=  0.228E-03 g(S)=  0.267E-03 ort = 0.000E+00 (trialstep = 0.100E+01)
 search vector abs. value=  0.495E-03
 bond charge predicted
       N       E                     dE             d eps       ncg     rms          rms(c)
DAV:   1    -0.393697095928E+02   -0.58270E-03   -0.18623E-02 28176   0.122E+00    0.143E-01
DAV:   2    -0.393695830614E+02    0.12653E-03   -0.17354E-03 27980   0.340E-01    0.565E-02
DAV:   3    -0.393695384604E+02    0.44601E-04   -0.10633E-04 16176   0.772E-02
   2 F= -.39369538E+02 E0= -.39369432E+02  d E =-.401440E-03
 ZBRENT: can't locate minimum, use default step
 trial-energy change:   -0.000401  1 .order   -0.000440   -0.000495   -0.000385
 step:   4.0000(harm=  4.4838)  dis= 0.00515  next Energy=   -39.370247 (dE=-0.111E-02)
 bond charge predicted
       N       E                     dE             d eps       ncg     rms          rms(c)
DAV:   1    -0.393709948582E+02   -0.14118E-02   -0.16507E-01 27136   0.365E+00    0.444E-01
DAV:   2    -0.393698260283E+02    0.11688E-02   -0.15299E-02 28020   0.100E+00    0.155E-01
DAV:   3    -0.393694368701E+02    0.38916E-03   -0.12108E-03 38536   0.234E-01    0.771E-02
DAV:   4    -0.393693534246E+02    0.83446E-04   -0.22676E-04 21404   0.108E-01
   3 F= -.39369353E+02 E0= -.39369253E+02  d E =-.216404E-03
 curvature:  -2.20 expect dE=-0.585E-02 dE for cont linesearch -0.332E-03
 trial: gam= 0.00000 g(F)=  0.232E-02 g(S)=  0.340E-03 ort =-0.273E-03 (trialstep = 0.298E+00)
 search vector abs. value=  0.266E-02
 reached required accuracy - stopping structural energy minimisation
