       N       E                     dE             d eps       ncg     rms          rms(c)
DAV:   1    -0.130041657454E+02   -0.13004E+02   -0.62973E+03  6528   0.400E+02
DAV:   2    -0.479726620868E+02   -0.34968E+02   -0.33937E+02  8768   0.776E+01
DAV:   3    -0.490601943911E+02   -0.10875E+01   -0.10868E+01  8112   0.113E+01
DAV:   4    -0.490617874317E+02   -0.15930E-02   -0.15930E-02  8496   0.550E-01
DAV:   5    -0.490617909059E+02   -0.34742E-05   -0.34741E-05  6816   0.263E-02    0.183E+01
RMM:   6    -0.534018551194E+02   -0.43401E+01   -0.14186E+00  6528   0.315E+00    0.762E+00
RMM:   7    -0.528817628766E+02    0.52009E+00   -0.91528E-01  6528   0.314E+00    0.365E+00
RMM:   8    -0.528432945109E+02    0.38468E-01   -0.36248E-01  6528   0.203E+00    0.818E-01
RMM:   9    -0.528572920932E+02   -0.13998E-01   -0.13106E-02  6528   0.454E-01    0.363E-01
RMM:  10    -0.528611742104E+02   -0.38821E-02   -0.89070E-04  5884   0.119E-01    0.188E-01
RMM:  11    -0.528641863074E+02   -0.30121E-02   -0.22697E-03  6527   0.186E-01    0.394E-02
RMM:  12    -0.528642865536E+02   -0.10025E-03   -0.95719E-05  4245   0.406E-02
   1 F= -.52864287E+02 E0= -.52864287E+02  d E =-.528643E+02  mag=     0.0000
       N       E                     dE             d eps       ncg     rms          rms(c)
DAV:   1    -0.529910584848E+02   -0.12687E+00   -0.25129E-01  8608   0.211E+00    0.414E-01
RMM:   2    -0.529891419248E+02    0.19166E-02   -0.25761E-03  6419   0.183E-01    0.238E-01
RMM:   3    -0.529882198368E+02    0.92209E-03   -0.95463E-04  3869   0.939E-02    0.145E-02
RMM:   4    -0.529882269539E+02   -0.71170E-05   -0.24459E-05  2978   0.203E-02
   2 F= -.52988227E+02 E0= -.52988227E+02  d E =-.123940E+00  mag=    -0.0000
       N       E                     dE             d eps       ncg     rms          rms(c)
DAV:   1    -0.531415028154E+02   -0.15328E+00   -0.15055E+00  7120   0.504E+00    0.100E+00
RMM:   2    -0.531297227329E+02    0.11780E-01   -0.16003E-02  6528   0.444E-01    0.576E-01
RMM:   3    -0.531240376343E+02    0.56851E-02   -0.62041E-03  6528   0.228E-01    0.374E-02
RMM:   4    -0.531240586284E+02   -0.20994E-04   -0.30163E-05  3550   0.241E-02
   3 F= -.53124059E+02 E0= -.53124059E+02  d E =-.259772E+00  mag=    -0.0000
       N       E                     dE             d eps       ncg     rms          rms(c)
DAV:   1    -0.531561276130E+02   -0.32090E-01   -0.42459E-02  9632   0.693E-01    0.158E-01
RMM:   2    -0.531558221806E+02    0.30543E-03   -0.61983E-04  3480   0.877E-02
   4 F= -.53155822E+02 E0= -.53155822E+02  d E =-.317636E-01  mag=    -0.0000
       N       E                     dE             d eps       ncg     rms          rms(c)
DAV:   1    -0.532490376943E+02   -0.92910E-01   -0.36354E-01  7008   0.204E+00    0.461E-01
RMM:   2    -0.532464268206E+02    0.26109E-02   -0.53682E-03  6528   0.248E-01    0.262E-01
RMM:   3    -0.532451485305E+02    0.12783E-02   -0.13597E-03  6352   0.101E-01    0.140E-02
RMM:   4    -0.532451545554E+02   -0.60248E-05   -0.26134E-05  3319   0.243E-02
   5 F= -.53245155E+02 E0= -.53245155E+02  d E =-.121096E+00  mag=     0.0000
       N       E                     dE             d eps       ncg     rms          rms(c)
DAV:   1    -0.534155228671E+02   -0.17037E+00   -0.15126E+00  7312   0.409E+00    0.918E-01
RMM:   2    -0.534049270448E+02    0.10596E-01   -0.22778E-02  6528   0.502E-01    0.521E-01
RMM:   3    -0.533997179529E+02    0.52091E-02   -0.56586E-03  6528   0.201E-01    0.219E-02
RMM:   4    -0.533997389939E+02   -0.21041E-04   -0.33252E-05  3540   0.232E-02
   6 F= -.53399739E+02 E0= -.53399739E+02  d E =-.275680E+00  mag=    -0.0000
       N       E                     dE             d eps       ncg     rms          rms(c)
DAV:   1    -0.536730247784E+02   -0.27331E+00   -0.60472E+00  6896   0.804E+00    0.183E+00
RMM:   2    -0.536286318406E+02    0.44393E-01   -0.95678E-02  6528   0.996E-01    0.104E+00
RMM:   3    -0.536069446801E+02    0.21687E-01   -0.24793E-02  6528   0.411E-01    0.470E-02
RMM:   4    -0.536070294264E+02   -0.84746E-04   -0.16270E-04  4534   0.516E-02
   7 F= -.53607029E+02 E0= -.53607029E+02  d E =-.482971E+00  mag=     0.0000
       N       E                     dE             d eps       ncg     rms          rms(c)
DAV:   1    -0.538396895434E+02   -0.23274E+00   -0.24341E+01  6720   0.156E+01    0.366E+00
RMM:   2    -0.536487661744E+02    0.19092E+00   -0.42655E-01  6528   0.200E+00    0.207E+00
RMM:   3    -0.535556065304E+02    0.93160E-01   -0.11888E-01  6528   0.874E-01    0.116E-01
RMM:   4    -0.535559608054E+02   -0.35428E-03   -0.88217E-04  5945   0.119E-01
   8 F= -.53555961E+02 E0= -.53555961E+02  d E =-.431902E+00  mag=     0.0000
       N       E                     dE             d eps       ncg     rms          rms(c)
DAV:   1    -0.537564368197E+02   -0.20083E+00   -0.77375E+00  6656   0.927E+00    0.215E+00
RMM:   2    -0.536877790611E+02    0.68658E-01   -0.84100E-02  6528   0.909E-01    0.118E+00
RMM:   3    -0.536615422363E+02    0.26237E-01   -0.34021E-02  6528   0.483E-01    0.677E-02
RMM:   4    -0.536609219104E+02    0.62033E-03   -0.16616E-03  6217   0.161E-01
   9 F= -.53660922E+02 E0= -.53660922E+02  d E =-.536863E+00  mag=    -0.0000
       N       E                     dE             d eps       ncg     rms          rms(c)
DAV:   1    -0.537133482801E+02   -0.51806E-01   -0.54900E-01  8432   0.256E+00    0.639E-01
RMM:   2    -0.537069652931E+02    0.63830E-02   -0.71042E-03  6528   0.257E-01    0.355E-01
RMM:   3    -0.537042521467E+02    0.27131E-02   -0.32774E-03  6523   0.150E-01    0.206E-02
RMM:   4    -0.537042262462E+02    0.25900E-04   -0.57586E-05  4439   0.315E-02
  10 F= -.53704226E+02 E0= -.53704226E+02  d E =-.433043E-01  mag=    -0.0000
       N       E                     dE             d eps       ncg     rms          rms(c)
DAV:   1    -0.537324161238E+02   -0.28164E-01   -0.65822E-01  7104   0.277E+00    0.699E-01
RMM:   2    -0.537246143190E+02    0.78018E-02   -0.84434E-03  6528   0.277E-01    0.388E-01
RMM:   3    -0.537213699047E+02    0.32444E-02   -0.41365E-03  6527   0.167E-01    0.244E-02
RMM:   4    -0.537213458015E+02    0.24103E-04   -0.80912E-05  4939   0.371E-02
  11 F= -.53721346E+02 E0= -.53721346E+02  d E =-.604239E-01  mag=     0.0000
       N       E                     dE             d eps       ncg     rms          rms(c)
DAV:   1    -0.537235425283E+02   -0.21726E-02   -0.34086E-02  9392   0.683E-01    0.874E-02
RMM:   2    -0.537235632865E+02   -0.20758E-04   -0.16858E-03  6386   0.155E-01
  12 F= -.53723563E+02 E0= -.53723563E+02  d E =-.221748E-02  mag=    -0.0000
       N       E                     dE             d eps       ncg     rms          rms(c)
DAV:   1    -0.537235932215E+02   -0.50693E-04   -0.20342E-04  6688   0.711E-02    0.121E-02
RMM:   2    -0.537235208618E+02    0.72360E-04   -0.20791E-04  5670   0.546E-02
  13 F= -.53723521E+02 E0= -.53723521E+02  d E =-.217506E-02  mag=     0.0000
