       N       E                     dE             d eps       ncg     rms          rms(c)
DAV:   1     0.327367168069E+03    0.32737E+03   -0.23355E+04  5952   0.982E+02
DAV:   2    -0.629709438002E+02   -0.39034E+03   -0.36636E+03  6432   0.309E+02
DAV:   3    -0.874277563603E+02   -0.24457E+02   -0.24129E+02 10048   0.738E+01
DAV:   4    -0.881189654648E+02   -0.69121E+00   -0.68815E+00  7984   0.913E+00
DAV:   5    -0.881428146983E+02   -0.23849E-01   -0.23846E-01  9120   0.151E+00    0.482E+01
RMM:   6    -0.905502984767E+02   -0.24075E+01   -0.92499E+00  6588   0.113E+01    0.210E+01
RMM:   7    -0.898801116602E+02    0.67019E+00   -0.28184E+00  6447   0.807E+00    0.801E+00
RMM:   8    -0.899504592562E+02   -0.70348E-01   -0.51147E-01  6380   0.477E+00    0.473E+00
RMM:   9    -0.899600236444E+02   -0.95644E-02   -0.10413E-01  6153   0.163E+00    0.203E+00
RMM:  10    -0.899691737171E+02   -0.91501E-02   -0.30328E-02  5710   0.126E+00    0.124E+00
RMM:  11    -0.899734973833E+02   -0.43237E-02   -0.97035E-03  5409   0.556E-01    0.562E-01
RMM:  12    -0.899744125795E+02   -0.91520E-03   -0.22008E-03  4691   0.363E-01
   1 F= -.89974413E+02 E0= -.89974413E+02  d E =-.899744E+02  mag=     0.0048
       N       E                     dE             d eps       ncg     rms          rms(c)
DAV:   1    -0.903087477846E+02   -0.33525E+00   -0.51376E+00  7936   0.134E+01    0.623E+00
RMM:   2    -0.901181829274E+02    0.19056E+00   -0.63497E-01  6747   0.383E+00    0.109E+00
RMM:   3    -0.900907001856E+02    0.27483E-01   -0.49490E-02  6596   0.168E+00    0.709E-01
RMM:   4    -0.900842844049E+02    0.64158E-02   -0.17794E-02  5888   0.761E-01    0.753E-01
RMM:   5    -0.900843090179E+02   -0.24613E-04   -0.41314E-03  4681   0.538E-01
   2 F= -.90084309E+02 E0= -.90084309E+02  d E =-.109896E+00  mag=     0.0001
       N       E                     dE             d eps       ncg     rms          rms(c)
DAV:   1    -0.907478012430E+02   -0.66352E+00   -0.13888E+01  6304   0.220E+01    0.100E+01
RMM:   2    -0.902170458062E+02    0.53076E+00   -0.17075E+00  6674   0.630E+00    0.184E+00
RMM:   3    -0.901373647953E+02    0.79681E-01   -0.12861E-01  6384   0.280E+00    0.117E+00
RMM:   4    -0.901203542661E+02    0.17011E-01   -0.52712E-02  6144   0.135E+00    0.132E+00
RMM:   5    -0.901213928841E+02   -0.10386E-02   -0.12475E-02  6032   0.873E-01    0.831E-01
RMM:   6    -0.901213865041E+02    0.63800E-05   -0.11951E-02  6153   0.471E-01    0.301E-01
RMM:   7    -0.901213324649E+02    0.54039E-04   -0.24246E-03  5185   0.249E-01
   3 F= -.90121332E+02 E0= -.90121332E+02  d E =-.146920E+00  mag=     0.0000
       N       E                     dE             d eps       ncg     rms          rms(c)
DAV:   1    -0.900198814417E+02    0.10151E+00   -0.11609E+01  6944   0.235E+01    0.254E+00
RMM:   2    -0.901193368998E+02   -0.99455E-01   -0.12615E+00  6044   0.475E+00    0.245E+00
RMM:   3    -0.901004168414E+02    0.18920E-01   -0.89082E-02  5960   0.334E+00    0.561E-01
RMM:   4    -0.900997460939E+02    0.67075E-03   -0.20831E-02  6384   0.628E-01    0.350E-01
RMM:   5    -0.900997290686E+02    0.17025E-04   -0.18685E-03  4426   0.477E-01
   4 F= -.90099729E+02 E0= -.90099729E+02  d E =0.216034E-01  mag=     0.0000
       N       E                     dE             d eps       ncg     rms          rms(c)
DAV:   1    -0.901431770870E+02   -0.43431E-01   -0.33843E+00  6944   0.127E+01    0.140E+00
RMM:   2    -0.901725753040E+02   -0.29398E-01   -0.37414E-01  6057   0.262E+00    0.126E+00
RMM:   3    -0.901670304270E+02    0.55449E-02   -0.29046E-02  5695   0.189E+00    0.286E-01
RMM:   4    -0.901672229103E+02   -0.19248E-03   -0.56186E-03  5016   0.340E-01
   5 F= -.90167223E+02 E0= -.90167223E+02  d E =-.458904E-01  mag=     0.0000
       N       E                     dE             d eps       ncg     rms          rms(c)
DAV:   1    -0.901864700871E+02   -0.19440E-01   -0.56787E+00  6944   0.158E+01    0.171E+00
RMM:   2    -0.902196773410E+02   -0.33207E-01   -0.50222E-01  6108   0.303E+00    0.107E+00
RMM:   3    -0.902126597013E+02    0.70176E-02   -0.35127E-02  5679   0.208E+00    0.568E-01
RMM:   4    -0.902126811035E+02   -0.21402E-04   -0.80336E-03  5684   0.415E-01
   6 F= -.90212681E+02 E0= -.90212681E+02  d E =-.454582E-01  mag=     0.0000
       N       E                     dE             d eps       ncg     rms          rms(c)
DAV:   1    -0.902128518399E+02   -0.19214E-03   -0.10120E-02  9440   0.755E-01    0.264E-01
RMM:   2    -0.902128256325E+02    0.26207E-04   -0.60833E-04  3172   0.117E-01
   7 F= -.90212826E+02 E0= -.90212826E+02  d E =-.456027E-01  mag=     0.0000
       N       E                     dE             d eps       ncg     rms          rms(c)
DAV:   1    -0.902653080030E+02   -0.52456E-01   -0.38301E+00  6944   0.113E+01    0.144E+00
RMM:   2    -0.902471284112E+02    0.18180E-01   -0.31336E-01  6498   0.260E+00    0.999E-01
RMM:   3    -0.902419383692E+02    0.51900E-02   -0.16913E-02  5996   0.133E+00    0.792E-01
RMM:   4    -0.902414523492E+02    0.48602E-03   -0.46469E-03  5200   0.377E-01
   8 F= -.90241452E+02 E0= -.90241452E+02  d E =-.286267E-01  mag=     0.0000
       N       E                     dE             d eps       ncg     rms          rms(c)
DAV:   1    -0.902424120981E+02   -0.47373E-03   -0.51621E-02  9760   0.138E+00    0.223E-01
RMM:   2    -0.902421206526E+02    0.29145E-03   -0.32770E-03  4796   0.271E-01
   9 F= -.90242121E+02 E0= -.90242121E+02  d E =-.292950E-01  mag=    -0.0000
       N       E                     dE             d eps       ncg     rms          rms(c)
DAV:   1    -0.903779496826E+02   -0.13554E+00   -0.32232E+00  6496   0.944E+00    0.358E+00
RMM:   2    -0.902866425654E+02    0.91307E-01   -0.33120E-01  6618   0.306E+00    0.914E-01
RMM:   3    -0.902768419520E+02    0.98006E-02   -0.22526E-02  6111   0.106E+00    0.605E-01
RMM:   4    -0.902746268773E+02    0.22151E-02   -0.54966E-03  5248   0.503E-01    0.605E-01
RMM:   5    -0.902744133807E+02    0.21350E-03   -0.24255E-03  4662   0.320E-01
  10 F= -.90274413E+02 E0= -.90274413E+02  d E =-.322927E-01  mag=    -0.0000
       N       E                     dE             d eps       ncg     rms          rms(c)
DAV:   1    -0.904542541842E+02   -0.17963E+00   -0.53506E+00  5984   0.122E+01    0.443E+00
RMM:   2    -0.903025271851E+02    0.15173E+00   -0.55711E-01  6658   0.380E+00    0.117E+00
RMM:   3    -0.902840427818E+02    0.18484E-01   -0.35536E-02  6406   0.142E+00    0.811E-01
RMM:   4    -0.902805238937E+02    0.35189E-02   -0.10284E-02  5618   0.586E-01    0.783E-01
RMM:   5    -0.902804535308E+02    0.70363E-04   -0.55232E-03  4946   0.435E-01
  11 F= -.90280454E+02 E0= -.90280454E+02  d E =-.383329E-01  mag=     0.0000
       N       E                     dE             d eps       ncg     rms          rms(c)
DAV:   1    -0.903099484347E+02   -0.29425E-01   -0.54815E-01  7632   0.424E+00    0.149E+00
RMM:   2    -0.902940985089E+02    0.15850E-01   -0.63905E-02  6448   0.126E+00    0.339E-01
RMM:   3    -0.902921250734E+02    0.19734E-02   -0.40661E-03  5024   0.590E-01    0.390E-01
RMM:   4    -0.902919658913E+02    0.15918E-03   -0.12873E-03  4519   0.229E-01
  12 F= -.90291966E+02 E0= -.90291966E+02  d E =-.115124E-01  mag=     0.0000
       N       E                     dE             d eps       ncg     rms          rms(c)
DAV:   1    -0.904728967564E+02   -0.18077E+00   -0.50406E+00  6048   0.128E+01    0.433E+00
RMM:   2    -0.903312104618E+02    0.14169E+00   -0.61009E-01  6698   0.389E+00    0.105E+00
RMM:   3    -0.903115512010E+02    0.19659E-01   -0.37550E-02  6397   0.153E+00    0.809E-01
RMM:   4    -0.903082703333E+02    0.32809E-02   -0.98819E-03  5546   0.590E-01    0.781E-01
RMM:   5    -0.903078104196E+02    0.45991E-03   -0.49415E-03  4978   0.404E-01
  13 F= -.90307810E+02 E0= -.90307810E+02  d E =-.273569E-01  mag=    -0.0000
       N       E                     dE             d eps       ncg     rms          rms(c)
DAV:   1    -0.903156002955E+02   -0.73300E-02   -0.18095E-01  8864   0.289E+00    0.215E-01
RMM:   2    -0.903170054582E+02   -0.14052E-02   -0.18575E-02  5781   0.539E-01    0.209E-01
RMM:   3    -0.903166887649E+02    0.31669E-03   -0.95889E-04  3453   0.333E-01
  14 F= -.90316689E+02 E0= -.90316689E+02  d E =-.887835E-02  mag=    -0.0000
       N       E                     dE             d eps       ncg     rms          rms(c)
DAV:   1    -0.903191710800E+02   -0.21656E-02   -0.59425E-01  6944   0.520E+00    0.354E-01
RMM:   2    -0.903239266656E+02   -0.47556E-02   -0.61143E-02  5835   0.996E-01    0.320E-01
RMM:   3    -0.903230396421E+02    0.88702E-03   -0.36023E-03  4964   0.647E-01
  15 F= -.90323040E+02 E0= -.90323040E+02  d E =-.152292E-01  mag=    -0.0000
