    8    8   60    1
  0.1120519E+02  0.3327566E-09  0.5177744E-09  0.5554476E-09  0.5000000E-15
  1.000000000000000E-004
  CAR 
 unknown system                          
     27    388     20
 
  0.3742002E-15  0.3742002E-15  0.3742002E-15  0.1302083E-02
    1      -33.490224   1.000000
    2      -29.961854   1.000000
    3      -29.743066   1.000000
    4      -29.735139   1.000000
    5      -15.613204   1.000000
    6      -15.591877   1.000000
    7      -15.141647   1.000000
    8       -6.391668   1.000000
    9       -3.900552   1.000000
   10       -2.372364   1.000000
   11       -1.822301   1.000000
   12       -1.561140   1.000000
   13       -0.651943   1.000000
   14        2.247421   0.000000
   15        2.788965   0.000000
   16        2.891800   0.000000
   17        5.229958   0.000000
   18        5.440229   0.000000
   19        6.096079   0.000000
   20        6.807092   0.000000
 
  0.8333333E-01  0.3760013E-15  0.3747003E-15  0.2604167E-02
    1      -33.483064   1.000000
    2      -29.959257   1.000000
    3      -29.754167   1.000000
    4      -29.740969   1.000000
    5      -15.600951   1.000000
    6      -15.579766   1.000000
    7      -15.225303   1.000000
    8       -6.263885   1.000000
    9       -3.813471   1.000000
   10       -2.351586   1.000000
   11       -1.835325   1.000000
   12       -1.622529   1.000000
   13       -0.814413   1.000000
   14        2.405182   0.000000
   15        2.597592   0.000000
   16        3.086588   0.000000
   17        5.185759   0.000000
   18        5.370822   0.000000
   19        6.145159   0.000000
   20        6.892117   0.000000
 
  0.1666667E+00  0.3751340E-15  0.3781697E-15  0.2604167E-02
    1      -33.463441   1.000000
    2      -29.952877   1.000000
    3      -29.804665   1.000000
    4      -29.736826   1.000000
    5      -15.568213   1.000000
    6      -15.546733   1.000000
    7      -15.446365   1.000000
    8       -5.909189   1.000000
    9       -3.593592   1.000000
   10       -2.348789   1.000000
   11       -1.862851   1.000000
   12       -1.813950   1.000000
   13       -1.104981   1.000000
   14        2.073846   0.000000
   15        2.805099   0.000000
   16        3.615039   0.000000
   17        5.140748   0.000000
   18        5.210244   0.000000
   19        6.268036   0.000000
   20        7.049860   0.000000
 
  0.2500000E+00  0.3582204E-15  0.3642919E-15  0.2604167E-02
    1      -33.436430   1.000000
    2      -29.944053   1.000000
    3      -29.872951   1.000000
    4      -29.730785   1.000000
    5      -15.732833   1.000000
    6      -15.521696   1.000000
    7      -15.500499   1.000000
    8       -5.376237   1.000000
    9       -3.327744   1.000000
   10       -2.488155   1.000000
   11       -2.065811   1.000000
   12       -1.911209   1.000000
   13       -1.224021   1.000000
   14        1.490442  -0.044379
   15        3.186115   0.000000
   16        4.239024   0.000000
   17        5.076189   0.000000
   18        5.266432   0.000000
   19        6.317073   0.000000
   20        6.774747   0.000000
 
  0.3333333E+00  0.3838076E-15  0.3885781E-15  0.2604167E-02
    1      -33.409174   1.000000
    2      -29.942028   1.000000
    3      -29.933516   1.000000
    4      -29.724739   1.000000
    5      -16.001956   1.000000
    6      -15.475061   1.000000
    7      -15.453656   1.000000
    8       -4.745928   1.000000
    9       -3.152237   1.000000
   10       -2.712689   1.000000
   11       -2.278972   1.000000
   12       -2.030458   1.000000
   13       -1.144876   1.000000
   14        0.960121   1.000000
   15        3.503186   0.000000
   16        4.509327   0.000000
   17        5.030229   0.000000
   18        5.593208   0.000000
   19        6.104255   0.000000
   20        6.852576   0.000000
 
  0.4166667E+00  0.4106958E-15  0.3885781E-15  0.2604167E-02
    1      -33.389071   1.000000
    2      -29.989673   1.000000
    3      -29.928266   1.000000
    4      -29.720263   1.000000
    5      -16.190389   1.000000
    6      -15.440334   1.000000
    7      -15.418809   1.000000
    8       -4.138330   1.000000
    9       -3.204311   1.000000
   10       -2.780105   1.000000
   11       -2.483663   1.000000
   12       -2.149940   1.000000
   13       -1.034231   1.000000
   14        0.577502   1.000000
   15        3.699866   0.000000
   16        4.571833   0.000000
   17        5.065772   0.000000
   18        5.680047   0.000000
   19        6.232883   0.000000
   20        6.675440   0.000000
 
  0.5000000E+00  0.3595214E-15  0.3747003E-15  0.1302083E-02
    1      -33.381677   1.000000
    2      -30.007395   1.000000
    3      -29.925905   1.000000
    4      -29.718594   1.000000
    5      -16.257668   1.000000
    6      -15.427499   1.000000
    7      -15.405873   1.000000
    8       -3.815974   1.000000
    9       -3.300355   1.000000
   10       -2.762549   1.000000
   11       -2.620963   1.000000
   12       -2.197289   1.000000
   13       -0.984946   1.000000
   14        0.431866   1.000000
   15        3.749700   0.000000
   16        4.651005   0.000000
   17        5.110837   0.000000
   18        5.548218   0.000000
   19        6.506133   0.000000
   20        6.807122   0.000000
 
  0.3733992E-15  0.1250000E+00  0.3816392E-15  0.2604167E-02
    1      -33.490248   1.000000
    2      -29.961683   1.000000
    3      -29.743095   1.000000
    4      -29.735004   1.000000
    5      -15.613171   1.000000
    6      -15.595975   1.000000
    7      -15.141476   1.000000
    8       -6.308343   1.000000
    9       -3.866019   1.000000
   10       -2.511115   1.000000
   11       -1.832888   1.000000
   12       -1.598364   1.000000
   13       -0.639579   1.000000
   14        2.240780   0.000000
   15        2.787483   0.000000
   16        2.965412   0.000000
   17        5.097442   0.000000
   18        5.456056   0.000000
   19        5.805700   0.000000
   20        6.878811   0.000000
 
  0.8333333E-01  0.1250000E+00  0.3677614E-15  0.2604167E-02
    1      -33.483087   1.000000
    2      -29.959352   1.000000
    3      -29.754150   1.000000
    4      -29.740902   1.000000
    5      -15.601173   1.000000
    6      -15.583680   1.000000
    7      -15.225085   1.000000
    8       -6.183670   1.000000
    9       -3.779959   1.000000
   10       -2.494737   1.000000
   11       -1.846701   1.000000
   12       -1.637846   1.000000
   13       -0.810421   1.000000
   14        2.370393   0.000000
   15        2.573185   0.000000
   16        3.180807   0.000000
   17        5.075471   0.000000
   18        5.381430   0.000000
   19        5.922842   0.000000
   20        6.884493   0.000000
 
  0.1666667E+00  0.1250000E+00  0.3747003E-15  0.2604167E-02
    1      -33.463448   1.000000
    2      -29.953027   1.000000
    3      -29.804659   1.000000
    4      -29.736789   1.000000
    5      -15.568509   1.000000
    6      -15.550194   1.000000
    7      -15.445614   1.000000
    8       -5.833235   1.000000
    9       -3.564959   1.000000
   10       -2.488698   1.000000
   11       -1.882288   1.000000
   12       -1.765978   1.000000
   13       -1.125336   1.000000
   14        2.040535   0.000000
   15        2.721758   0.000000
   16        3.704373   0.000000
   17        5.027922   0.000000
   18        5.228854   0.000000
   19        6.227641   0.000000
   20        6.862582   0.000000
 
  0.2500000E+00  0.1250000E+00  0.3469447E-15  0.2604167E-02
    1      -33.436400   1.000000
    2      -29.944133   1.000000
    3      -29.872889   1.000000
    4      -29.730762   1.000000
    5      -15.731542   1.000000
    6      -15.522130   1.000000
    7      -15.503074   1.000000
    8       -5.309644   1.000000
    9       -3.318310   1.000000
   10       -2.571633   1.000000
   11       -2.036288   1.000000
   12       -1.895388   1.000000
   13       -1.259313   1.000000
   14        1.465392  -0.048782
   15        3.062619   0.000000
   16        4.311692   0.000000
   17        4.939660   0.000000
   18        5.268408   0.000000
   19        6.386456   0.000000
   20        6.812620   0.000000
 
  0.3333333E+00  0.1250000E+00  0.3608225E-15  0.2604167E-02
    1      -33.409118   1.000000
    2      -29.942165   1.000000
    3      -29.933669   1.000000
    4      -29.724810   1.000000
    5      -16.000646   1.000000
    6      -15.475658   1.000000
    7      -15.455699   1.000000
    8       -4.699665   1.000000
    9       -3.189045   1.000000
   10       -2.718260   1.000000
   11       -2.263701   1.000000
   12       -1.986376   1.000000
   13       -1.186388   1.000000
   14        0.947794   1.000000
   15        3.364614   0.000000
   16        4.526100   0.000000
   17        4.946307   0.000000
   18        5.515672   0.000000
   19        6.189357   0.000000
   20        6.970664   0.000000
 
  0.4166667E+00  0.1250000E+00  0.3747003E-15  0.2604167E-02
    1      -33.388987   1.000000
    2      -29.989746   1.000000
    3      -29.928390   1.000000
    4      -29.720349   1.000000
    5      -16.188663   1.000000
    6      -15.440926   1.000000
    7      -15.420398   1.000000
    8       -4.127286   1.000000
    9       -3.257246   1.000000
   10       -2.758393   1.000000
   11       -2.462497   1.000000
   12       -2.061180   1.000000
   13       -1.078292   1.000000
   14        0.583354   1.000000
   15        3.556429   0.000000
   16        4.545677   0.000000
   17        5.042331   0.000000
   18        5.608543   0.000000
   19        6.158061   0.000000
   20        6.861424   0.000000
 
  0.5000000E+00  0.1250000E+00  0.4024558E-15  0.2604167E-02
    1      -33.381583   1.000000
    2      -30.007484   1.000000
    3      -29.925985   1.000000
    4      -29.718665   1.000000
    5      -16.255820   1.000000
    6      -15.428136   1.000000
    7      -15.407197   1.000000
    8       -3.840605   1.000000
    9       -3.344513   1.000000
   10       -2.690440   1.000000
   11       -2.627301   1.000000
   12       -2.093292   1.000000
   13       -1.030397   1.000000
   14        0.447106   1.000000
   15        3.606568   0.000000
   16        4.603595   0.000000
   17        5.112502   0.000000
   18        5.510358   0.000000
   19        6.283777   0.000000
   20        6.923869   0.000000
 
 -0.4166667E+00  0.1250000E+00  0.3469447E-15  0.2604167E-02
    1      -33.388986   1.000000
    2      -29.989727   1.000000
    3      -29.928328   1.000000
    4      -29.720341   1.000000
    5      -16.188626   1.000000
    6      -15.440894   1.000000
    7      -15.420409   1.000000
    8       -4.128202   1.000000
    9       -3.252633   1.000000
   10       -2.754013   1.000000
   11       -2.467740   1.000000
   12       -2.063151   1.000000
   13       -1.075481   1.000000
   14        0.582062   1.000000
   15        3.555760   0.000000
   16        4.545643   0.000000
   17        5.043646   0.000000
   18        5.598184   0.000000
   19        6.149323   0.000000
   20        6.874138   0.000000
 
 -0.3333333E+00  0.1250000E+00  0.3596299E-15  0.2604167E-02
    1      -33.409118   1.000000
    2      -29.942174   1.000000
    3      -29.933578   1.000000
    4      -29.724797   1.000000
    5      -16.000644   1.000000
    6      -15.475581   1.000000
    7      -15.455768   1.000000
    8       -4.698841   1.000000
    9       -3.185840   1.000000
   10       -2.719554   1.000000
   11       -2.262969   1.000000
   12       -1.988514   1.000000
   13       -1.184027   1.000000
   14        0.946709   1.000000
   15        3.363639   0.000000
   16        4.524624   0.000000
   17        4.948218   0.000000
   18        5.503437   0.000000
   19        6.185722   0.000000
   20        6.982001   0.000000
 
 -0.2500000E+00  0.1250000E+00  0.3417405E-15  0.2604167E-02
    1      -33.436405   1.000000
    2      -29.944177   1.000000
    3      -29.872908   1.000000
    4      -29.730780   1.000000
    5      -15.731622   1.000000
    6      -15.522159   1.000000
    7      -15.503143   1.000000
    8       -5.308572   1.000000
    9       -3.317123   1.000000
   10       -2.577381   1.000000
   11       -2.032145   1.000000
   12       -1.896709   1.000000
   13       -1.258916   1.000000
   14        1.464800  -0.048356
   15        3.061548   0.000000
   16        4.307254   0.000000
   17        4.944329   0.000000
   18        5.263845   0.000000
   19        6.385607   0.000000
   20        6.813348   0.000000
 
 -0.1666667E+00  0.1250000E+00  0.3712308E-15  0.2604167E-02
    1      -33.463453   1.000000
    2      -29.952992   1.000000
    3      -29.804681   1.000000
    4      -29.736805   1.000000
    5      -15.568507   1.000000
    6      -15.550269   1.000000
    7      -15.445654   1.000000
    8       -5.832260   1.000000
    9       -3.564913   1.000000
   10       -2.494006   1.000000
   11       -1.881857   1.000000
   12       -1.762694   1.000000
   13       -1.124611   1.000000
   14        2.040771   0.000000
   15        2.721580   0.000000
   16        3.701223   0.000000
   17        5.029669   0.000000
   18        5.230146   0.000000
   19        6.231029   0.000000
   20        6.856627   0.000000
 
 -0.8333333E-01  0.1250000E+00  0.3851086E-15  0.2604167E-02
    1      -33.483092   1.000000
    2      -29.959393   1.000000
    3      -29.754223   1.000000
    4      -29.740909   1.000000
    5      -15.601255   1.000000
    6      -15.583718   1.000000
    7      -15.225186   1.000000
    8       -6.183778   1.000000
    9       -3.780946   1.000000
   10       -2.497281   1.000000
   11       -1.847224   1.000000
   12       -1.636576   1.000000
   13       -0.809718   1.000000
   14        2.370659   0.000000
   15        2.573497   0.000000
   16        3.179012   0.000000
   17        5.075417   0.000000
   18        5.383754   0.000000
   19        5.923233   0.000000
   20        6.881922   0.000000
 
  0.3773024E-15  0.2500000E+00  0.3608225E-15  0.2604167E-02
    1      -33.490351   1.000000
    2      -29.962078   1.000000
    3      -29.743167   1.000000
    4      -29.735153   1.000000
    5      -15.615656   1.000000
    6      -15.604364   1.000000
    7      -15.141644   1.000000
    8       -6.090141   1.000000
    9       -3.781617   1.000000
   10       -2.835401   1.000000
   11       -1.896434   1.000000
   12       -1.745096   1.000000
   13       -0.539837   1.000000
   14        2.223903   0.000000
   15        2.783467   0.000000
   16        3.107309   0.000000
   17        4.667995   0.000000
   18        5.382028   0.000000
   19        5.513753   0.000000
   20        7.077702   0.000000
 
  0.8333333E-01  0.2500000E+00  0.3608225E-15  0.2604167E-02
    1      -33.483165   1.000000
    2      -29.959678   1.000000
    3      -29.754182   1.000000
    4      -29.740975   1.000000
    5      -15.603439   1.000000
    6      -15.591787   1.000000
    7      -15.224714   1.000000
    8       -5.967918   1.000000
    9       -3.696620   1.000000
   10       -2.823522   1.000000
   11       -1.895379   1.000000
   12       -1.757786   1.000000
   13       -0.715887   1.000000
   14        2.282237   0.000000
   15        2.527120   0.000000
   16        3.367438   0.000000
   17        4.708721   0.000000
   18        5.391569   0.000000
   19        5.623632   0.000000
   20        6.954423   0.000000
 
  0.1666667E+00  0.2500000E+00  0.3608225E-15  0.2604167E-02
    1      -33.463465   1.000000
    2      -29.953265   1.000000
    3      -29.804768   1.000000
    4      -29.736796   1.000000
    5      -15.570376   1.000000
    6      -15.557420   1.000000
    7      -15.444206   1.000000
    8       -5.627973   1.000000
    9       -3.493655   1.000000
   10       -2.801176   1.000000
   11       -1.912557   1.000000
   12       -1.791156   1.000000
   13       -1.083821   1.000000
   14        1.973310   0.000000
   15        2.503879   0.000000
   16        3.896610   0.000000
   17        4.803667   0.000000
   18        5.229535   0.000000
   19        6.003691   0.000000
   20        6.943825   0.000000
 
  0.2500000E+00  0.2500000E+00  0.3608225E-15  0.2604167E-02
    1      -33.436343   1.000000
    2      -29.944411   1.000000
    3      -29.873050   1.000000
    4      -29.730874   1.000000
    5      -15.728901   1.000000
    6      -15.523709   1.000000
    7      -15.509290   1.000000
    8       -5.130161   1.000000
    9       -3.311520   1.000000
   10       -2.769280   1.000000
   11       -2.011007   1.000000
   12       -1.854950   1.000000
   13       -1.308238   1.000000
   14        1.412303   0.169703
   15        2.735265   0.000000
   16        4.456194   0.000000
   17        4.844058   0.000000
   18        5.197204   0.000000
   19        6.226884   0.000000
   20        7.243693   0.000000
 
  0.3333333E+00  0.2500000E+00  0.3608225E-15  0.2604167E-02
    1      -33.408980   1.000000
    2      -29.942250   1.000000
    3      -29.933921   1.000000
    4      -29.724853   1.000000
    5      -15.996909   1.000000
    6      -15.477124   1.000000
    7      -15.460450   1.000000
    8       -4.572824   1.000000
    9       -3.284706   1.000000
   10       -2.729998   1.000000
   11       -2.221207   1.000000
   12       -1.890946   1.000000
   13       -1.267954   1.000000
   14        0.922358   1.000000
   15        2.972708   0.000000
   16        4.539448   0.000000
   17        4.972583   0.000000
   18        5.442941   0.000000
   19        6.158840   0.000000
   20        7.293057   0.000000
 
  0.4166667E+00  0.2500000E+00  0.3608225E-15  0.2604167E-02
    1      -33.388786   1.000000
    2      -29.989843   1.000000
    3      -29.928676   1.000000
    4      -29.720442   1.000000
    5      -16.184299   1.000000
    6      -15.442519   1.000000
    7      -15.424002   1.000000
    8       -4.099104   1.000000
    9       -3.364367   1.000000
   10       -2.687573   1.000000
   11       -2.404454   1.000000
   12       -1.895690   1.000000
   13       -1.163085   1.000000
   14        0.595212   1.000000
   15        3.128641   0.000000
   16        4.500534   0.000000
   17        5.160281   0.000000
   18        5.571521   0.000000
   19        5.992787   0.000000
   20        7.108738   0.000000
 
  0.5000000E+00  0.2500000E+00  0.3608225E-15  0.2604167E-02
    1      -33.381366   1.000000
    2      -30.007733   1.000000
    3      -29.926366   1.000000
    4      -29.718887   1.000000
    5      -16.251484   1.000000
    6      -15.429869   1.000000
    7      -15.410562   1.000000
    8       -3.899179   1.000000
    9       -3.422557   1.000000
   10       -2.588991   1.000000
   11       -2.544560   1.000000
   12       -1.913337   1.000000
   13       -1.115192   1.000000
   14        0.480333   1.000000
   15        3.171490   0.000000
   16        4.527204   0.000000
   17        5.316595   0.000000
   18        5.454311   0.000000
   19        5.971372   0.000000
   20        7.152996   0.000000
 
 -0.4166667E+00  0.2500000E+00  0.3885781E-15  0.2604167E-02
    1      -33.388789   1.000000
    2      -29.989867   1.000000
    3      -29.928697   1.000000
    4      -29.720459   1.000000
    5      -16.184386   1.000000
    6      -15.442549   1.000000
    7      -15.424056   1.000000
    8       -4.101006   1.000000
    9       -3.359882   1.000000
   10       -2.680345   1.000000
   11       -2.412726   1.000000
   12       -1.899710   1.000000
   13       -1.160623   1.000000
   14        0.593336   1.000000
   15        3.127464   0.000000
   16        4.500022   0.000000
   17        5.163647   0.000000
   18        5.558870   0.000000
   19        5.989554   0.000000
   20        7.109863   0.000000
 
 -0.3333333E+00  0.2500000E+00  0.3608225E-15  0.2604167E-02
    1      -33.408982   1.000000
    2      -29.942300   1.000000
    3      -29.933813   1.000000
    4      -29.724852   1.000000
    5      -15.996945   1.000000
    6      -15.477119   1.000000
    7      -15.460464   1.000000
    8       -4.571541   1.000000
    9       -3.280190   1.000000
   10       -2.732111   1.000000
   11       -2.221303   1.000000
   12       -1.894669   1.000000
   13       -1.264046   1.000000
   14        0.920646   1.000000
   15        2.971364   0.000000
   16        4.537161   0.000000
   17        4.974001   0.000000
   18        5.434591   0.000000
   19        6.151158   0.000000
   20        7.301816   0.000000
 
 -0.2500000E+00  0.2500000E+00  0.3469447E-15  0.2604167E-02
    1      -33.436347   1.000000
    2      -29.944418   1.000000
    3      -29.873066   1.000000
    4      -29.730911   1.000000
    5      -15.729004   1.000000
    6      -15.523735   1.000000
    7      -15.509391   1.000000
    8       -5.128468   1.000000
    9       -3.309435   1.000000
   10       -2.775020   1.000000
   11       -2.010706   1.000000
   12       -1.855135   1.000000
   13       -1.305705   1.000000
   14        1.411564   0.175642
   15        2.734610   0.000000
   16        4.448839   0.000000
   17        4.847572   0.000000
   18        5.195590   0.000000
   19        6.223935   0.000000
   20        7.241356   0.000000
 
 -0.1666667E+00  0.2500000E+00  0.3747003E-15  0.2604167E-02
    1      -33.463464   1.000000
    2      -29.953222   1.000000
    3      -29.804752   1.000000
    4      -29.736773   1.000000
    5      -15.570341   1.000000
    6      -15.557470   1.000000
    7      -15.444211   1.000000
    8       -5.626052   1.000000
    9       -3.492859   1.000000
   10       -2.804502   1.000000
   11       -1.913820   1.000000
   12       -1.788670   1.000000
   13       -1.080145   1.000000
   14        1.973302   0.000000
   15        2.504560   0.000000
   16        3.892253   0.000000
   17        4.801203   0.000000
   18        5.234257   0.000000
   19        6.006807   0.000000
   20        6.935942   0.000000
 
 -0.8333333E-01  0.2500000E+00  0.3469447E-15  0.2604167E-02
    1      -33.483166   1.000000
    2      -29.959615   1.000000
    3      -29.754166   1.000000
    4      -29.740970   1.000000
    5      -15.603399   1.000000
    6      -15.591788   1.000000
    7      -15.224696   1.000000
    8       -5.966696   1.000000
    9       -3.696446   1.000000
   10       -2.824697   1.000000
   11       -1.895904   1.000000
   12       -1.757313   1.000000
   13       -0.713275   1.000000
   14        2.282967   0.000000
   15        2.527983   0.000000
   16        3.365243   0.000000
   17        4.706556   0.000000
   18        5.393268   0.000000
   19        5.627127   0.000000
   20        6.947942   0.000000
 
  0.3677614E-15  0.3750000E+00  0.4302114E-15  0.2604167E-02
    1      -33.490445   1.000000
    2      -29.962210   1.000000
    3      -29.743215   1.000000
    4      -29.735213   1.000000
    5      -15.622457   1.000000
    6      -15.607998   1.000000
    7      -15.141661   1.000000
    8       -5.824096   1.000000
    9       -3.704234   1.000000
   10       -3.155424   1.000000
   11       -2.087461   1.000000
   12       -1.820487   1.000000
   13       -0.375082   1.000000
   14        2.207282   0.000000
   15        2.779334   0.000000
   16        3.203081   0.000000
   17        4.163845   0.000000
   18        5.125258   0.000000
   19        5.651119   0.000000
   20        7.367787   0.000000
 
  0.8333333E-01  0.3750000E+00  0.4440892E-15  0.2604167E-02
    1      -33.483233   1.000000
    2      -29.959832   1.000000
    3      -29.754171   1.000000
    4      -29.741089   1.000000
    5      -15.609608   1.000000
    6      -15.595742   1.000000
    7      -15.224272   1.000000
    8       -5.703989   1.000000
    9       -3.615199   1.000000
   10       -3.153990   1.000000
   11       -2.049813   1.000000
   12       -1.842089   1.000000
   13       -0.549819   1.000000
   14        2.179071   0.000000
   15        2.486845   0.000000
   16        3.507476   0.000000
   17        4.315687   0.000000
   18        5.222013   0.000000
   19        5.692940   0.000000
   20        6.948336   0.000000
 
  0.1666667E+00  0.3750000E+00  0.3885781E-15  0.2604167E-02
    1      -33.463482   1.000000
    2      -29.953465   1.000000
    3      -29.804773   1.000000
    4      -29.736891   1.000000
    5      -15.575012   1.000000
    6      -15.561870   1.000000
    7      -15.442718   1.000000
    8       -5.375373   1.000000
    9       -3.427672   1.000000
   10       -3.121164   1.000000
   11       -1.960022   1.000000
   12       -1.896929   1.000000
   13       -0.948367   1.000000
   14        1.921087   0.000000
   15        2.253699   0.000000
   16        4.032846   0.000000
   17        4.650532   0.000000
   18        5.277422   0.000000
   19        5.752066   0.000000
   20        6.934334   0.000000
 
  0.2500000E+00  0.3750000E+00  0.3608225E-15  0.2604167E-02
    1      -33.436286   1.000000
    2      -29.944623   1.000000
    3      -29.873117   1.000000
    4      -29.730930   1.000000
    5      -15.726075   1.000000
    6      -15.526679   1.000000
    7      -15.513981   1.000000
    8       -4.905538   1.000000
    9       -3.362950   1.000000
   10       -2.941097   1.000000
   11       -2.012114   1.000000
   12       -1.847327   1.000000
   13       -1.285213   1.000000
   14        1.371677   0.568512
   15        2.384873   0.000000
   16        4.506146   0.000000
   17        4.980175   0.000000
   18        5.127626   0.000000
   19        6.009230   0.000000
   20        7.126971   0.000000
 
  0.3333333E+00  0.3750000E+00  0.3885781E-15  0.2604167E-02
    1      -33.408836   1.000000
    2      -29.942316   1.000000
    3      -29.934123   1.000000
    4      -29.724731   1.000000
    5      -15.993116   1.000000
    6      -15.479184   1.000000
    7      -15.464286   1.000000
    8       -4.415535   1.000000
    9       -3.407821   1.000000
   10       -2.736792   1.000000
   11       -2.183214   1.000000
   12       -1.812286   1.000000
   13       -1.312244   1.000000
   14        0.902412   1.000000
   15        2.563472   0.000000
   16        4.569365   0.000000
   17        5.096454   0.000000
   18        5.383388   0.000000
   19        6.184234   0.000000
   20        7.104499   0.000000
 
  0.4166667E+00  0.3750000E+00  0.3885781E-15  0.2604167E-02
    1      -33.388588   1.000000
    2      -29.990069   1.000000
    3      -29.928962   1.000000
    4      -29.720377   1.000000
    5      -16.180254   1.000000
    6      -15.444353   1.000000
    7      -15.427154   1.000000
    8       -4.065891   1.000000
    9       -3.460285   1.000000
   10       -2.592484   1.000000
   11       -2.352596   1.000000
   12       -1.787623   1.000000
   13       -1.201884   1.000000
   14        0.604956   1.000000
   15        2.684478   0.000000
   16        4.495970   0.000000
   17        5.295916   0.000000
   18        5.588195   0.000000
   19        6.001600   0.000000
   20        7.040158   0.000000
 
  0.5000000E+00  0.3750000E+00  0.3885781E-15  0.2604167E-02
    1      -33.381141   1.000000
    2      -30.007901   1.000000
    3      -29.926559   1.000000
    4      -29.718865   1.000000
    5      -16.247114   1.000000
    6      -15.431503   1.000000
    7      -15.413499   1.000000
    8       -3.951831   1.000000
    9       -3.479382   1.000000
   10       -2.509571   1.000000
   11       -2.416260   1.000000
   12       -1.801717   1.000000
   13       -1.145348   1.000000
   14        0.507760   1.000000
   15        2.717287   0.000000
   16        4.494077   0.000000
   17        5.392747   0.000000
   18        5.631347   0.000000
   19        5.889554   0.000000
   20        7.044232   0.000000
 
 -0.4166667E+00  0.3750000E+00  0.3469447E-15  0.2604167E-02
    1      -33.388588   1.000000
    2      -29.990029   1.000000
    3      -29.928967   1.000000
    4      -29.720382   1.000000
    5      -16.180212   1.000000
    6      -15.444355   1.000000
    7      -15.427220   1.000000
    8       -4.066699   1.000000
    9       -3.457765   1.000000
   10       -2.585799   1.000000
   11       -2.359088   1.000000
   12       -1.790598   1.000000
   13       -1.199278   1.000000
   14        0.603719   1.000000
   15        2.683706   0.000000
   16        4.495164   0.000000
   17        5.299163   0.000000
   18        5.582966   0.000000
   19        5.998804   0.000000
   20        7.032753   0.000000
 
 -0.3333333E+00  0.3750000E+00  0.3608225E-15  0.2604167E-02
    1      -33.408840   1.000000
    2      -29.942387   1.000000
    3      -29.934108   1.000000
    4      -29.724759   1.000000
    5      -15.993192   1.000000
    6      -15.479250   1.000000
    7      -15.464325   1.000000
    8       -4.415031   1.000000
    9       -3.405081   1.000000
   10       -2.738407   1.000000
   11       -2.184024   1.000000
   12       -1.815118   1.000000
   13       -1.310396   1.000000
   14        0.901123   1.000000
   15        2.562738   0.000000
   16        4.567531   0.000000
   17        5.096475   0.000000
   18        5.380686   0.000000
   19        6.178899   0.000000
   20        7.106147   0.000000
 
 -0.2500000E+00  0.3750000E+00  0.3885781E-15  0.2604167E-02
    1      -33.436286   1.000000
    2      -29.944625   1.000000
    3      -29.873083   1.000000
    4      -29.730879   1.000000
    5      -15.726067   1.000000
    6      -15.526750   1.000000
    7      -15.513946   1.000000
    8       -4.903690   1.000000
    9       -3.362181   1.000000
   10       -2.943724   1.000000
   11       -2.013796   1.000000
   12       -1.846122   1.000000
   13       -1.281828   1.000000
   14        1.371099   0.574552
   15        2.384856   0.000000
   16        4.502652   0.000000
   17        4.973544   0.000000
   18        5.133977   0.000000
   19        6.009691   0.000000
   20        7.123012   0.000000
 
 -0.1666667E+00  0.3750000E+00  0.3885781E-15  0.2604167E-02
    1      -33.463487   1.000000
    2      -29.953494   1.000000
    3      -29.804796   1.000000