       N       E                     dE             d eps       ncg     rms          rms(c)
DAV:   1     0.170635808385E+03    0.17064E+03   -0.12735E+04 17512   0.744E+02
DAV:   2    -0.288815361238E+02   -0.19952E+03   -0.19493E+03 21584   0.290E+02
DAV:   3    -0.425353596135E+02   -0.13654E+02   -0.13575E+02 29264   0.576E+01
DAV:   4    -0.432676514071E+02   -0.73229E+00   -0.73026E+00 27504   0.108E+01
DAV:   5    -0.432819885246E+02   -0.14337E-01   -0.14334E-01 28360   0.155E+00    0.371E+01
DAV:   6    -0.406444621475E+02    0.26375E+01   -0.11135E+01 26160   0.165E+01    0.149E+01
DAV:   7    -0.401493853008E+02    0.49508E+00   -0.44703E+00 26584   0.804E+00    0.126E+01
DAV:   8    -0.399728484027E+02    0.17654E+00   -0.13248E+00 25160   0.573E+00    0.351E+00
DAV:   9    -0.399719801121E+02    0.86829E-03   -0.80270E-02 25144   0.175E+00    0.396E-01
DAV:  10    -0.399695466196E+02    0.24335E-02   -0.14193E-02 27944   0.481E-01    0.235E-01
DAV:  11    -0.399697286552E+02   -0.18204E-03   -0.11084E-03 20932   0.209E-01    0.711E-02
DAV:  12    -0.399697314605E+02   -0.28052E-05   -0.21305E-04 15336   0.876E-02
   1 F= -.39969731E+02 E0= -.39970120E+02  d E =-.399697E+02
       N       E                     dE             d eps       ncg     rms          rms(c)
DAV:   1    -0.400544114971E+02   -0.84683E-01   -0.18522E+00 17564   0.934E+00    0.257E+00
DAV:   2    -0.400093936651E+02    0.45018E-01   -0.46658E-01 27104   0.403E+00    0.114E+00
DAV:   3    -0.399918944629E+02    0.17499E-01   -0.78361E-02 26168   0.127E+00    0.520E-01
DAV:   4    -0.399864648009E+02    0.54297E-02   -0.25709E-02 30696   0.874E-01    0.682E-01
DAV:   5    -0.399868794442E+02   -0.41464E-03   -0.14960E-03 23960   0.174E-01    0.505E-01
DAV:   6    -0.399874261836E+02   -0.54674E-03   -0.13007E-03 32568   0.166E-01    0.659E-02
DAV:   7    -0.399874058152E+02    0.20368E-04   -0.10415E-04 12840   0.648E-02
   2 F= -.39987406E+02 E0= -.39987790E+02  d E =-.176744E-01
       N       E                     dE             d eps       ncg     rms          rms(c)
DAV:   1    -0.400250317379E+02   -0.37606E-01   -0.10004E+00 17324   0.692E+00    0.191E+00
DAV:   2    -0.400004336906E+02    0.24598E-01   -0.25028E-01 26692   0.297E+00    0.843E-01
DAV:   3    -0.399909362769E+02    0.94974E-02   -0.43284E-02 26480   0.952E-01    0.390E-01
DAV:   4    -0.399880300484E+02    0.29062E-02   -0.13862E-02 30920   0.648E-01    0.510E-01
DAV:   5    -0.399882520110E+02   -0.22196E-03   -0.77052E-04 23476   0.127E-01    0.380E-01
DAV:   6    -0.399885666827E+02   -0.31467E-03   -0.72464E-04 31272   0.125E-01    0.457E-02
DAV:   7    -0.399885579092E+02    0.87736E-05   -0.67613E-05 12000   0.514E-02
   3 F= -.39988558E+02 E0= -.39988937E+02  d E =-.188264E-01
       N       E                     dE             d eps       ncg     rms          rms(c)
DAV:   1    -0.399914168827E+02   -0.28502E-02   -0.72066E-01 19296   0.687E+00    0.871E-01
DAV:   2    -0.399948519888E+02   -0.34351E-02   -0.11022E-01 19112   0.186E+00    0.382E-01
DAV:   3    -0.399934325849E+02    0.14194E-02   -0.82837E-03 27860   0.447E-01    0.263E-01
DAV:   4    -0.399930285712E+02    0.40401E-03   -0.19838E-03 31032   0.270E-01    0.218E-01
DAV:   5    -0.399930682766E+02   -0.39705E-04   -0.96085E-05 13804   0.607E-02
   4 F= -.39993068E+02 E0= -.39993447E+02  d E =-.451037E-02
       N       E                     dE             d eps       ncg     rms          rms(c)
DAV:   1    -0.399929837507E+02    0.44821E-04   -0.30022E-02 19912   0.139E+00    0.185E-01
DAV:   2    -0.399930966680E+02   -0.11292E-03   -0.46518E-03 20036   0.385E-01    0.778E-02
DAV:   3    -0.399930317652E+02    0.64903E-04   -0.32556E-04 18252   0.908E-02
   5 F= -.39993032E+02 E0= -.39993411E+02  d E =-.447386E-02
       N       E                     dE             d eps       ncg     rms          rms(c)
DAV:   1    -0.399938784660E+02   -0.78180E-03   -0.17951E-01 19776   0.326E+00    0.349E-01
DAV:   2    -0.399944086847E+02   -0.53022E-03   -0.21335E-02 19836   0.789E-01    0.146E-01
DAV:   3    -0.399940899686E+02    0.31872E-03   -0.12602E-03 26784   0.185E-01    0.101E-01
DAV:   4    -0.399939957621E+02    0.94207E-04   -0.32256E-04 16364   0.113E-01
   6 F= -.39993996E+02 E0= -.39994379E+02  d E =-.963997E-03
       N       E                     dE             d eps       ncg     rms          rms(c)
DAV:   1    -0.399940059852E+02    0.83983E-04   -0.64828E-03 20148   0.634E-01    0.879E-02
DAV:   2    -0.399940116726E+02   -0.56874E-05   -0.78131E-04 20180   0.150E-01
   7 F= -.39994012E+02 E0= -.39994397E+02  d E =-.979907E-03
