 running on   16 total cores
 distrk:  each k-point on   16 cores,    1 groups
 distr:  one band on    1 cores,   16 groups
 using from now: INCAR     
 vasp.5.4.4.18Apr17-6-g9f103f2a35 (build Nov 01 2019 12:17:22) complex          
  
 POSCAR found type information on POSCAR  Sr Nb H 
 POSCAR found :  3 types and      20 ions

 ----------------------------------------------------------------------------- 
|                                                                             |
|           W    W    AA    RRRRR   N    N  II  N    N   GGGG   !!!           |
|           W    W   A  A   R    R  NN   N  II  NN   N  G    G  !!!           |
|           W    W  A    A  R    R  N N  N  II  N N  N  G       !!!           |
|           W WW W  AAAAAA  RRRRR   N  N N  II  N  N N  G  GGG   !            |
|           WW  WW  A    A  R   R   N   NN  II  N   NN  G    G                |
|           W    W  A    A  R    R  N    N  II  N    N   GGGG   !!!           |
|                                                                             |
|      For optimal performance we recommend to set                            |
|        NCORE= 4 - approx SQRT( number of cores)                             |
|      NCORE specifies how many cores store one orbital (NPAR=cpu/NCORE).     |
|      This setting can  greatly improve the performance of VASP for DFT.     |
|      The default,   NCORE=1            might be grossly inefficient         |
|      on modern multi-core architectures or massively parallel machines.     |
|      Do your own testing !!!!                                               |
|      Unfortunately you need to use the default for GW and RPA calculations. |
|      (for HF NCORE is supported but not extensively tested yet)             |
|                                                                             |
 ----------------------------------------------------------------------------- 

 LDA part: xc-table for Pade appr. of Perdew
 POSCAR, INCAR and KPOINTS ok, starting setup
 FFT: planning ...
 WAVECAR not read
 entering main loop
       N       E                     dE             d eps       ncg     rms          rms(c)
DAV:   1     0.316368496522E+03    0.31637E+03   -0.22033E+04  8256   0.936E+02
DAV:   2    -0.539366154852E+02   -0.37031E+03   -0.34975E+03  8512   0.302E+02
DAV:   3    -0.773578512883E+02   -0.23421E+02   -0.22997E+02 13952   0.712E+01
DAV:   4    -0.780256467533E+02   -0.66780E+00   -0.66488E+00 11040   0.847E+00
DAV:   5    -0.780443083995E+02   -0.18662E-01   -0.18658E-01 12656   0.134E+00    0.461E+01
RMM:   6    -0.782489514207E+02   -0.20464E+00   -0.89092E+00  8774   0.109E+01    0.233E+01
RMM:   7    -0.787366214580E+02   -0.48767E+00   -0.35997E+00  8900   0.902E+00    0.894E+00
RMM:   8    -0.788645737095E+02   -0.12795E+00   -0.44376E-01  8914   0.434E+00    0.563E+00
RMM:   9    -0.788733107206E+02   -0.87370E-02   -0.74599E-02  8550   0.139E+00    0.262E+00
RMM:  10    -0.788807315201E+02   -0.74208E-02   -0.27517E-02  8243   0.106E+00    0.132E+00
RMM:  11    -0.788844377955E+02   -0.37063E-02   -0.84831E-03  7612   0.557E-01    0.509E-01
RMM:  12    -0.788847595108E+02   -0.32172E-03   -0.17154E-03  6585   0.311E-01
   1 F= -.78884760E+02 E0= -.78884760E+02  d E =-.788848E+02  mag=     0.8108
 curvature:   0.00 expect dE= 0.000E+00 dE for cont linesearch  0.000E+00
 trial: gam= 0.00000 g(F)=  0.106E-01 g(S)=  0.126E+00 ort = 0.000E+00 (trialstep = 0.100E+01)
 search vector abs. value=  0.136E+00
 bond charge predicted
       N       E                     dE             d eps       ncg     rms          rms(c)
DAV:   1    -0.792267220457E+02   -0.34228E+00   -0.52165E+00 10832   0.130E+01    0.586E+00
RMM:   2    -0.790191669806E+02    0.20756E+00   -0.60342E-01  9197   0.361E+00    0.126E+00
RMM:   3    -0.789909256749E+02    0.28241E-01   -0.54920E-02  9137   0.167E+00    0.789E-01
RMM:   4    -0.789852046496E+02    0.57210E-02   -0.15090E-02  8409   0.634E-01    0.776E-01
RMM:   5    -0.789838236662E+02    0.13810E-02   -0.32132E-03  6535   0.519E-01    0.758E-01
RMM:   6    -0.789836825138E+02    0.14115E-03   -0.22135E-03  6612   0.213E-01
   2 F= -.78983683E+02 E0= -.78983683E+02  d E =-.989230E-01  mag=     0.8632
 trial-energy change:   -0.098923  1 .order   -0.108270   -0.136480   -0.080061
 step:   2.4190(harm=  2.4190)  dis= 0.01862  next Energy=   -79.049834 (dE=-0.165E+00)
 bond charge predicted
       N       E                     dE             d eps       ncg     rms          rms(c)
DAV:   1    -0.794988179244E+02   -0.51499E+00   -0.10288E+01  8880   0.181E+01    0.804E+00
RMM:   2    -0.790772521610E+02    0.42157E+00   -0.11910E+00  9113   0.507E+00    0.174E+00
RMM:   3    -0.790215710550E+02    0.55681E-01   -0.10058E-01  9024   0.232E+00    0.112E+00
RMM:   4    -0.790093558952E+02    0.12215E-01   -0.31758E-02  9010   0.913E-01    0.119E+00
RMM:   5    -0.790063950133E+02    0.29609E-02   -0.66421E-03  7786   0.665E-01    0.106E+00
RMM:   6    -0.790056424075E+02    0.75261E-03   -0.70044E-03  8138   0.364E-01
   3 F= -.79005642E+02 E0= -.79005642E+02  d E =-.120883E+00  mag=     0.9385
 curvature:  -1.21 expect dE=-0.912E-01 dE for cont linesearch -0.160E-02
 trial: gam= 0.65074 g(F)=  0.703E-01 g(S)=  0.506E-02 ort =-0.134E-01 (trialstep = 0.128E+01)
 search vector abs. value=  0.116E+00
 bond charge predicted
       N       E                     dE             d eps       ncg     rms          rms(c)
DAV:   1    -0.791345428141E+02   -0.12815E+00   -0.69075E+00  9744   0.161E+01    0.386E+00
RMM:   2    -0.790275158982E+02    0.10703E+00   -0.73729E-01  9051   0.393E+00    0.104E+00
RMM:   3    -0.790106704037E+02    0.16845E-01   -0.51346E-02  8922   0.205E+00    0.752E-01
RMM:   4    -0.790077041612E+02    0.29662E-02   -0.17266E-02  9196   0.597E-01    0.708E-01
RMM:   5    -0.790078485634E+02   -0.14440E-03   -0.33402E-03  6911   0.362E-01
   4 F= -.79007849E+02 E0= -.79007849E+02  d E =-.220616E-02  mag=     0.9438
 trial-energy change:   -0.002206  1 .order   -0.015083   -0.085578    0.055411
 step:   0.6040(harm=  0.7792)  dis= 0.01091  next Energy=   -79.024432 (dE=-0.188E-01)
 bond charge predicted
       N       E                     dE             d eps       ncg     rms          rms(c)
DAV:   1    -0.790549202800E+02   -0.47216E-01   -0.19779E+00 10544   0.854E+00    0.205E+00
RMM:   2    -0.790303644879E+02    0.24556E-01   -0.21728E-01  9080   0.209E+00    0.553E-01
RMM:   3    -0.790250375941E+02    0.53269E-02   -0.13011E-02  8318   0.109E+00    0.329E-01
RMM:   4    -0.790252417063E+02   -0.20411E-03   -0.35533E-03  7145   0.342E-01
   5 F= -.79025242E+02 E0= -.79025242E+02  d E =-.195993E-01  mag=     0.9503
 curvature:  -0.59 expect dE=-0.383E-01 dE for cont linesearch -0.246E-04
 trial: gam= 0.50477 g(F)=  0.426E-01 g(S)=  0.218E-01 ort =-0.219E-02 (trialstep = 0.115E+01)
 search vector abs. value=  0.916E-01
 bond charge predicted
       N       E                     dE             d eps       ncg     rms          rms(c)
DAV:   1    -0.790439066553E+02   -0.18869E-01   -0.43703E+00  9632   0.140E+01    0.134E+00
RMM:   2    -0.790747094912E+02   -0.30803E-01   -0.41374E-01  8523   0.264E+00    0.117E+00
RMM:   3    -0.790705887518E+02    0.41207E-02   -0.42459E-02  8215   0.208E+00    0.327E-01
RMM:   4    -0.790708070322E+02   -0.21828E-03   -0.79480E-03  8474   0.395E-01
   6 F= -.79070807E+02 E0= -.79070807E+02  d E =-.455653E-01  mag=     0.9094
 trial-energy change:   -0.045565  1 .order   -0.045002   -0.072611   -0.017394
 step:   1.5094(harm=  1.5094)  dis= 0.03107  next Energy=   -79.072984 (dE=-0.477E-01)
 bond charge predicted
       N       E                     dE             d eps       ncg     rms          rms(c)
DAV:   1    -0.790710000977E+02   -0.41135E-03   -0.43713E-01 12288   0.441E+00    0.393E-01
RMM:   2    -0.790742386657E+02   -0.32386E-02   -0.41488E-02  8424   0.832E-01    0.327E-01
RMM:   3    -0.790735982834E+02    0.64038E-03   -0.39454E-03  6519   0.620E-01
   7 F= -.79073598E+02 E0= -.79073598E+02  d E =-.483566E-01  mag=     0.9063
 curvature:  -1.09 expect dE=-0.661E-01 dE for cont linesearch -0.597E-05
 trial: gam= 0.91065 g(F)=  0.519E-01 g(S)=  0.854E-02 ort = 0.707E-03 (trialstep = 0.812E+00)
 search vector abs. value=  0.138E+00
 bond charge predicted
       N       E                     dE             d eps       ncg     rms          rms(c)
DAV:   1    -0.791091646122E+02   -0.34926E-01   -0.20169E+00  9632   0.777E+00    0.728E-01
RMM:   2    -0.791069626212E+02    0.22020E-02   -0.12416E-01  8726   0.156E+00    0.439E-01
RMM:   3    -0.791042889917E+02    0.26736E-02   -0.10648E-02  7910   0.117E+00    0.441E-01
RMM:   4    -0.791039731954E+02    0.31580E-03   -0.21102E-03  6581   0.232E-01
   8 F= -.79103973E+02 E0= -.79103973E+02  d E =-.303749E-01  mag=     0.9033
 trial-energy change:   -0.030375  1 .order   -0.032518   -0.049602   -0.015433
 step:   1.1784(harm=  1.1784)  dis= 0.02382  next Energy=   -79.109601 (dE=-0.360E-01)
 bond charge predicted
       N       E                     dE             d eps       ncg     rms          rms(c)
DAV:   1    -0.791078468621E+02   -0.35579E-02   -0.40686E-01 12256   0.350E+00    0.437E-01
RMM:   2    -0.791073742366E+02    0.47263E-03   -0.25436E-02  8671   0.684E-01    0.254E-01
RMM:   3    -0.791063421965E+02    0.10320E-02   -0.19415E-03  6548   0.496E-01    0.277E-01
RMM:   4    -0.791061950982E+02    0.14710E-03   -0.68042E-04  5107   0.135E-01
   9 F= -.79106195E+02 E0= -.79106195E+02  d E =-.325968E-01  mag=     0.9103
 curvature:  -1.33 expect dE=-0.677E-01 dE for cont linesearch -0.112E-04
 trial: gam= 0.83185 g(F)=  0.420E-01 g(S)=  0.896E-02 ort =-0.108E-02 (trialstep = 0.844E+00)
 search vector abs. value=  0.144E+00
 bond charge predicted
       N       E                     dE             d eps       ncg     rms          rms(c)
DAV:   1    -0.791535523316E+02   -0.47210E-01   -0.25196E+00  9808   0.858E+00    0.123E+00
RMM:   2    -0.791351696886E+02    0.18383E-01   -0.17637E-01  9020   0.187E+00    0.533E-01
RMM:   3    -0.791301343475E+02    0.50353E-02   -0.11476E-02  8325   0.108E+00    0.517E-01
RMM:   4    -0.791294580344E+02    0.67631E-03   -0.27488E-03  7067   0.290E-01
  10 F= -.79129458E+02 E0= -.79129458E+02  d E =-.232629E-01  mag=     0.9349
 trial-energy change:   -0.023263  1 .order   -0.027703   -0.042247   -0.013160
 step:   1.2255(harm=  1.2255)  dis= 0.02559  next Energy=   -79.136875 (dE=-0.307E-01)
 bond charge predicted
       N       E                     dE             d eps       ncg     rms          rms(c)
DAV:   1    -0.791344145989E+02   -0.42803E-02   -0.50061E-01 12096   0.384E+00    0.557E-01
RMM:   2    -0.791291302030E+02    0.52844E-02   -0.35169E-02  8991   0.827E-01    0.286E-01
RMM:   3    -0.791276305125E+02    0.14997E-02   -0.22324E-03  6782   0.486E-01    0.350E-01
RMM:   4    -0.791273812951E+02    0.24922E-03   -0.70032E-04  5639   0.164E-01
  11 F= -.79127381E+02 E0= -.79127381E+02  d E =-.211862E-01  mag=     0.9565
 curvature:  -1.77 expect dE=-0.116E+00 dE for cont linesearch -0.460E-03
 trial: gam= 1.44114 g(F)=  0.493E-01 g(S)=  0.161E-01 ort =-0.613E-02 (trialstep = 0.382E+00)
 search vector abs. value=  0.348E+00
 bond charge predicted
       N       E                     dE             d eps       ncg     rms          rms(c)
DAV:   1    -0.791700782610E+02   -0.42448E-01   -0.12276E+00  8464   0.586E+00    0.154E+00
RMM:   2    -0.791459614096E+02    0.24117E-01   -0.11726E-01  9178   0.170E+00    0.529E-01
RMM:   3    -0.791426817364E+02    0.32797E-02   -0.80256E-03  8263   0.675E-01    0.356E-01
RMM:   4    -0.791406795222E+02    0.20022E-02   -0.18302E-03  6514   0.294E-01    0.414E-01
RMM:   5    -0.791407400446E+02   -0.60522E-04   -0.63171E-04  5712   0.213E-01
  12 F= -.79140740E+02 E0= -.79140740E+02  d E =-.133587E-01  mag=     0.9794
 ZBRENT: can't locate minimum, use default step
 trial-energy change:   -0.013359  1 .order   -0.019554   -0.021608   -0.017501
 step:   1.5291(harm=  2.0116)  dis= 0.05523  next Energy=   -79.184233 (dE=-0.569E-01)
 bond charge predicted
       N       E                     dE             d eps       ncg     rms          rms(c)
DAV:   1    -0.793979183019E+02   -0.25724E+00   -0.11137E+01  8672   0.176E+01    0.484E+00
RMM:   2    -0.792002715172E+02    0.19765E+00   -0.10596E+00  9185   0.514E+00    0.157E+00
RMM:   3    -0.791691102418E+02    0.31161E-01   -0.76743E-02  9071   0.202E+00    0.107E+00
RMM:   4    -0.791611404282E+02    0.79698E-02   -0.17323E-02  8930   0.726E-01    0.875E-01
RMM:   5    -0.791595001762E+02    0.16403E-02   -0.50565E-03  7604   0.439E-01    0.739E-01
RMM:   6    -0.791577674390E+02    0.17327E-02   -0.52178E-03  7637   0.320E-01    0.221E-01
RMM:   7    -0.791579184360E+02   -0.15100E-03   -0.16561E-03  6441   0.257E-01
  13 F= -.79157918E+02 E0= -.79157918E+02  d E =-.305371E-01  mag=     1.0006
 curvature:  -5.65 expect dE=-0.393E+00 dE for cont linesearch -0.799E-03
 trial: gam= 0.37551 g(F)=  0.664E-01 g(S)=  0.316E-02 ort = 0.701E-02 (trialstep = 0.612E+00)
 search vector abs. value=  0.124E+00
 bond charge predicted
       N       E                     dE             d eps       ncg     rms          rms(c)
DAV:   1    -0.791826238767E+02   -0.24856E-01   -0.25393E+00 10080   0.111E+01    0.122E+00
RMM:   2    -0.791908945706E+02   -0.82707E-02   -0.28582E-01  8934   0.225E+00    0.619E-01
RMM:   3    -0.791889566123E+02    0.19380E-02   -0.19408E-02  8225   0.140E+00    0.444E-01
RMM:   4    -0.791892381811E+02   -0.28157E-03   -0.41487E-03  6927   0.312E-01
  14 F= -.79189238E+02 E0= -.79189238E+02  d E =-.313197E-01  mag=     1.0000
 trial-energy change:   -0.031320  1 .order   -0.032965   -0.044179   -0.021750
 step:   1.2048(harm=  1.2048)  dis= 0.04158  next Energy=   -79.201429 (dE=-0.435E-01)
 bond charge predicted
       N       E                     dE             d eps       ncg     rms          rms(c)
DAV:   1    -0.791918013222E+02   -0.28447E-02   -0.23931E+00  9824   0.107E+01    0.109E+00
RMM:   2    -0.791985665993E+02   -0.67653E-02   -0.26673E-01  8948   0.215E+00    0.553E-01
RMM:   3    -0.791961960181E+02    0.23706E-02   -0.17627E-02  8303   0.131E+00    0.518E-01
RMM:   4    -0.791963082333E+02   -0.11222E-03   -0.38492E-03  6923   0.296E-01
  15 F= -.79196308E+02 E0= -.79196308E+02  d E =-.383898E-01  mag=     1.0000
 curvature:  -1.03 expect dE=-0.566E-01 dE for cont linesearch -0.302E-04
 trial: gam= 0.94803 g(F)=  0.517E-01 g(S)=  0.315E-02 ort =-0.190E-02 (trialstep = 0.557E+00)
 search vector abs. value=  0.163E+00
 bond charge predicted
       N       E                     dE             d eps       ncg     rms          rms(c)
DAV:   1    -0.792199132733E+02   -0.23717E-01   -0.20674E+00 10176   0.938E+00    0.122E+00
RMM:   2    -0.792155431960E+02    0.43701E-02   -0.20660E-01  9118   0.195E+00    0.507E-01
RMM:   3    -0.792124826710E+02    0.30605E-02   -0.14266E-02  8383   0.113E+00    0.478E-01
RMM:   4    -0.792119315322E+02    0.55114E-03   -0.33651E-03  7053   0.288E-01
  16 F= -.79211932E+02 E0= -.79211932E+02  d E =-.156233E-01  mag=     1.0000
 trial-energy change:   -0.015623  1 .order   -0.019688   -0.029503   -0.009873
 step:   0.8366(harm=  0.8366)  dis= 0.02827  next Energy=   -79.218479 (dE=-0.222E-01)
 bond charge predicted
       N       E                     dE             d eps       ncg     rms          rms(c)
DAV:   1    -0.792147141643E+02   -0.22315E-02   -0.52162E-01 12096   0.471E+00    0.587E-01
RMM:   2    -0.792124956122E+02    0.22186E-02   -0.51673E-02  9133   0.973E-01    0.304E-01
RMM:   3    -0.792114291274E+02    0.10665E-02   -0.32962E-03  6930   0.555E-01    0.394E-01
RMM:   4    -0.792113269114E+02    0.10222E-03   -0.87851E-04  5931   0.194E-01
  17 F= -.79211327E+02 E0= -.79211327E+02  d E =-.150187E-01  mag=     1.0000
 curvature:  -1.28 expect dE=-0.524E-01 dE for cont linesearch -0.327E-03
 trial: gam= 0.62121 g(F)=  0.381E-01 g(S)=  0.271E-02 ort =-0.644E-02 (trialstep = 0.613E+00)
 search vector abs. value=  0.956E-01
 bond charge predicted
       N       E                     dE             d eps       ncg     rms          rms(c)
DAV:   1    -0.792394494588E+02   -0.28020E-01   -0.84706E-01  8720   0.500E+00    0.122E+00
RMM:   2    -0.792285216226E+02    0.10928E-01   -0.74122E-02  8982   0.130E+00    0.396E-01
RMM:   3    -0.792263540917E+02    0.21675E-02   -0.62139E-03  7997   0.662E-01    0.322E-01
RMM:   4    -0.792257772794E+02    0.57681E-03   -0.12637E-03  6219   0.228E-01
  18 F= -.79225777E+02 E0= -.79225777E+02  d E =-.144504E-01  mag=     1.0000
 trial-energy change:   -0.014450  1 .order   -0.017583   -0.022570   -0.012596
 step:   1.3862(harm=  1.3862)  dis= 0.02406  next Energy=   -79.236862 (dE=-0.255E-01)
 bond charge predicted
       N       E                     dE             d eps       ncg     rms          rms(c)
DAV:   1    -0.792534537718E+02   -0.27100E-01   -0.13630E+00  8656   0.639E+00    0.159E+00
RMM:   2    -0.792355119415E+02    0.17942E-01   -0.12401E-01  9159   0.167E+00    0.504E-01
RMM:   3    -0.792317012230E+02    0.38107E-02   -0.97912E-03  8348   0.776E-01    0.366E-01
RMM:   4    -0.792309915340E+02    0.70969E-03   -0.20991E-03  6648   0.286E-01
  19 F= -.79230992E+02 E0= -.79230992E+02  d E =-.196646E-01  mag=     1.0000
 curvature:  -1.80 expect dE=-0.779E-01 dE for cont linesearch -0.223E-03
 trial: gam= 0.83203 g(F)=  0.405E-01 g(S)=  0.285E-02 ort = 0.344E-02 (trialstep = 0.637E+00)
 search vector abs. value=  0.115E+00
 bond charge predicted
       N       E                     dE             d eps       ncg     rms          rms(c)
DAV:   1    -0.792527912069E+02   -0.21090E-01   -0.10236E+00  9440   0.527E+00    0.885E-01
RMM:   2    -0.792461623641E+02    0.66288E-02   -0.81311E-02  9259   0.132E+00    0.386E-01
RMM:   3    -0.792437896549E+02    0.23727E-02   -0.52100E-03  7479   0.630E-01    0.416E-01
RMM:   4    -0.792434854167E+02    0.30424E-03   -0.10833E-03  5952   0.225E-01
  20 F= -.79243485E+02 E0= -.79243485E+02  d E =-.124939E-01  mag=     1.0000
 trial-energy change:   -0.012494  1 .order   -0.016276   -0.029402   -0.003150
 step:   0.7129(harm=  0.7129)  dis= 0.01441  next Energy=   -79.247456 (dE=-0.165E-01)
 bond charge predicted
       N       E                     dE             d eps       ncg     rms          rms(c)
DAV:   1    -0.792433429520E+02    0.44670E-03   -0.14671E-02 11360   0.711E-01    0.166E-01
RMM:   2    -0.792432298588E+02    0.11309E-03   -0.12520E-03  4709   0.167E-01
  21 F= -.79243230E+02 E0= -.79243230E+02  d E =-.122383E-01  mag=     1.0000
 curvature:  -0.89 expect dE=-0.299E-01 dE for cont linesearch -0.923E-04
 trial: gam= 0.88042 g(F)=  0.246E-01 g(S)=  0.903E-02 ort =-0.346E-02 (trialstep = 0.643E+00)
 search vector abs. value=  0.117E+00
 bond charge predicted
       N       E                     dE             d eps       ncg     rms          rms(c)
DAV:   1    -0.792549073175E+02   -0.11564E-01   -0.13831E+00  9664   0.734E+00    0.646E-01
RMM:   2    -0.792619033387E+02   -0.69960E-02   -0.12959E-01  8444   0.144E+00    0.368E-01
RMM:   3    -0.792598183097E+02    0.20850E-02   -0.12008E-02  7776   0.112E+00    0.234E-01
RMM:   4    -0.792598923452E+02   -0.74035E-04   -0.21957E-03  6615   0.218E-01
  22 F= -.79259892E+02 E0= -.79259892E+02  d E =-.166625E-01  mag=     1.0000
 trial-energy change:   -0.016662  1 .order   -0.016802   -0.019664   -0.013940
 step:   2.2073(harm=  2.2073)  dis= 0.05010  next Energy=   -79.277003 (dE=-0.338E-01)
 bond charge predicted
       N       E                     dE             d eps       ncg     rms          rms(c)
DAV:   1    -0.792434100480E+02    0.16408E-01   -0.82048E+00  9632   0.178E+01    0.151E+00
RMM:   2    -0.792880715972E+02   -0.44662E-01   -0.76981E-01  8440   0.349E+00    0.910E-01
RMM:   3    -0.792765395814E+02    0.11532E-01   -0.68774E-02  8279   0.265E+00    0.517E-01
RMM:   4    -0.792768875332E+02   -0.34795E-03   -0.14061E-02  8612   0.497E-01    0.394E-01
RMM:   5    -0.792768140306E+02    0.73503E-04   -0.10980E-03  6165   0.350E-01
  23 F= -.79276814E+02 E0= -.79276814E+02  d E =-.335842E-01  mag=     1.0000
 curvature:  -4.21 expect dE=-0.194E+00 dE for cont linesearch -0.469E-07
 trial: gam= 1.04180 g(F)=  0.438E-01 g(S)=  0.214E-02 ort =-0.361E-04 (trialstep = 0.646E+00)
 search vector abs. value=  0.173E+00
 bond charge predicted
       N       E                     dE             d eps       ncg     rms          rms(c)
DAV:   1    -0.792862786213E+02   -0.93911E-02   -0.17624E+00 10192   0.803E+00    0.624E-01
RMM:   2    -0.792956292661E+02   -0.93506E-02   -0.14346E-01  8762   0.167E+00    0.374E-01
RMM:   3    -0.792943672042E+02    0.12621E-02   -0.12319E-02  7753   0.116E+00    0.303E-01
RMM:   4    -0.792940831458E+02    0.28406E-03   -0.22050E-03  6576   0.235E-01
  24 F= -.79294083E+02 E0= -.79294083E+02  d E =-.172691E-01  mag=     1.0000
 trial-energy change:   -0.017269  1 .order   -0.017539   -0.029701   -0.005377
 step:   0.7893(harm=  0.7893)  dis= 0.02064  next Energy=   -79.294947 (dE=-0.181E-01)
 bond charge predicted
       N       E                     dE             d eps       ncg     rms          rms(c)
DAV:   1    -0.792942882379E+02    0.78966E-04   -0.85816E-02 11600   0.176E+00    0.217E-01
RMM:   2    -0.792947571231E+02   -0.46889E-03   -0.77812E-03  8091   0.376E-01
  25 F= -.79294757E+02 E0= -.79294757E+02  d E =-.179431E-01  mag=     1.0000
 curvature:  -1.48 expect dE=-0.576E-01 dE for cont linesearch -0.900E-05
 trial: gam= 0.89079 g(F)=  0.344E-01 g(S)=  0.435E-02 ort =-0.102E-02 (trialstep = 0.670E+00)
 search vector abs. value=  0.174E+00
 bond charge predicted
       N       E                     dE             d eps       ncg     rms          rms(c)
DAV:   1    -0.793062756229E+02   -0.11987E-01   -0.20725E+00  9664   0.893E+00    0.672E-01
RMM:   2    -0.793148249060E+02   -0.85493E-02   -0.15088E-01  8894   0.172E+00    0.429E-01
RMM:   3    -0.793136572700E+02    0.11676E-02   -0.97967E-03  7801   0.105E+00    0.400E-01
RMM:   4    -0.793132942941E+02    0.36298E-03   -0.16453E-03  6491   0.226E-01
  26 F= -.79313294E+02 E0= -.79313294E+02  d E =-.185372E-01  mag=     1.0000
 trial-energy change:   -0.018537  1 .order   -0.018653   -0.025378   -0.011928
 step:   1.2641(harm=  1.2641)  dis= 0.03117  next Energy=   -79.318699 (dE=-0.239E-01)
 bond charge predicted
       N       E                     dE             d eps       ncg     rms          rms(c)
DAV:   1    -0.793125307536E+02    0.11265E-02   -0.16254E+00  9600   0.792E+00    0.593E-01
RMM:   2    -0.793187620237E+02   -0.62313E-02   -0.11846E-01  8910   0.152E+00    0.383E-01
RMM:   3    -0.793177090925E+02    0.10529E-02   -0.77622E-03  7598   0.922E-01    0.415E-01
RMM:   4    -0.793173916892E+02    0.31740E-03   -0.13767E-03  6382   0.218E-01
  27 F= -.79317392E+02 E0= -.79317392E+02  d E =-.226346E-01  mag=     1.0000
 curvature:  -2.90 expect dE=-0.749E-01 dE for cont linesearch -0.676E-04
 trial: gam= 0.76672 g(F)=  0.200E-01 g(S)=  0.581E-02 ort =-0.201E-02 (trialstep = 0.789E+00)
 search vector abs. value=  0.125E+00
 bond charge predicted
       N       E                     dE             d eps       ncg     rms          rms(c)
DAV:   1    -0.793434281077E+02   -0.25719E-01   -0.19121E+00  9824   0.814E+00    0.127E+00
RMM:   2    -0.793351853667E+02    0.82427E-02   -0.14560E-01  9152   0.170E+00    0.504E-01
RMM:   3    -0.793321220689E+02    0.30633E-02   -0.10714E-02  8382   0.966E-01    0.395E-01
RMM:   4    -0.793316558539E+02    0.46621E-03   -0.30399E-03  7088   0.266E-01
  28 F= -.79331656E+02 E0= -.79331656E+02  d E =-.142642E-01  mag=     1.0000
 ZBRENT: can't locate minimum, use default step
 trial-energy change:   -0.014264  1 .order   -0.016971   -0.019129   -0.014812
 step:   3.1552(harm=  3.4955)  dis= 0.05866  next Energy=   -79.359777 (dE=-0.424E-01)
 bond charge predicted
       N       E                     dE             d eps       ncg     rms          rms(c)
DAV:   1    -0.794369776517E+02   -0.10486E+00   -0.17279E+01  9440   0.245E+01    0.390E+00
RMM:   2    -0.793709827551E+02    0.65995E-01   -0.13447E+00  9242   0.520E+00    0.143E+00
RMM:   3    -0.793436360073E+02    0.27347E-01   -0.92943E-02  8732   0.281E+00    0.102E+00
RMM:   4    -0.793414814658E+02    0.21545E-02   -0.31348E-02  9470   0.760E-01    0.837E-01
RMM:   5    -0.793404470808E+02    0.10344E-02   -0.43912E-03  7254   0.444E-01    0.796E-01
RMM:   6    -0.793403193457E+02    0.12774E-03   -0.28756E-03  7085   0.246E-01
  29 F= -.79340319E+02 E0= -.79340319E+02  d E =-.229277E-01  mag=     1.0000
 curvature:  -8.87 expect dE=-0.820E+00 dE for cont linesearch -0.191E-03
 trial: gam= 3.38562 g(F)=  0.895E-01 g(S)=  0.300E-02 ort =-0.164E-02 (trialstep = 0.104E+00)
 search vector abs. value=  0.151E+01
 bond charge predicted
       N       E                     dE             d eps       ncg     rms          rms(c)
DAV:   1    -0.793494573075E+02   -0.90102E-02   -0.41033E-01 12368   0.386E+00    0.749E-01
RMM:   2    -0.793474822638E+02    0.19750E-02   -0.32033E-02  9098   0.776E-01    0.269E-01
RMM:   3    -0.793467808061E+02    0.70146E-03   -0.18870E-03  6451   0.421E-01
  30 F= -.79346781E+02 E0= -.79346781E+02  d E =-.646146E-02  mag=     1.0000
 ZBRENT: can't locate minimum, use default step
 trial-energy change:   -0.006461  1 .order   -0.008079   -0.009053   -0.007105
 step:   0.4168(harm=  0.4841)  dis= 0.02578  next Energy=   -79.361352 (dE=-0.210E-01)
 bond charge predicted
       N       E                     dE             d eps       ncg     rms          rms(c)
DAV:   1    -0.793808775931E+02   -0.33395E-01   -0.37868E+00  9696   0.116E+01    0.187E+00
RMM:   2    -0.793654200430E+02    0.15458E-01   -0.30017E-01  9128   0.242E+00    0.649E-01
RMM:   3    -0.793595802657E+02    0.58398E-02   -0.21713E-02  8559   0.140E+00    0.436E-01
RMM:   4    -0.793593372773E+02    0.24299E-03   -0.68126E-03  7829   0.378E-01
  31 F= -.79359337E+02 E0= -.79359337E+02  d E =-.190179E-01  mag=     1.0000
 curvature:  -4.09 expect dE=-0.184E+00 dE for cont linesearch -0.509E-02
 trial: gam=-0.09293 g(F)=  0.413E-01 g(S)=  0.359E-02 ort = 0.434E-01 (trialstep = 0.167E+00)
 search vector abs. value=  0.499E-01
 bond charge predicted
       N       E                     dE             d eps       ncg     rms          rms(c)
DAV:   1    -0.793650778805E+02   -0.54976E-02   -0.78865E-02 12384   0.198E+00    0.411E-01
RMM:   2    -0.793656571143E+02   -0.57923E-03   -0.78961E-03  7805   0.362E-01
  32 F= -.79365657E+02 E0= -.79365657E+02  d E =-.631984E-02  mag=     1.0000
 ZBRENT: can't locate minimum, use default step
 trial-energy change:   -0.006320  1 .order   -0.006127   -0.006819   -0.005434
 step:   0.6668(harm=  0.8209)  dis= 0.01180  next Energy=   -79.376126 (dE=-0.168E-01)
 bond charge predicted
       N       E                     dE             d eps       ncg     rms          rms(c)
DAV:   1    -0.793706598662E+02   -0.55820E-02   -0.68242E-01  9664   0.577E+00    0.568E-01
RMM:   2    -0.793763351449E+02   -0.56753E-02   -0.71515E-02  8646   0.111E+00    0.456E-01
RMM:   3    -0.793759018196E+02    0.43333E-03   -0.54390E-03  7294   0.752E-01
  33 F= -.79375902E+02 E0= -.79375902E+02  d E =-.165645E-01  mag=     1.0000
 curvature:  -0.47 expect dE=-0.658E-02 dE for cont linesearch -0.385E-03
 trial: gam= 0.13935 g(F)=  0.116E-01 g(S)=  0.232E-02 ort = 0.638E-02 (trialstep = 0.267E+00)
 search vector abs. value=  0.166E-01
 bond charge predicted
       N       E                     dE             d eps       ncg     rms          rms(c)
DAV:   1    -0.793794687613E+02   -0.31336E-02   -0.27922E-02 11664   0.957E-01    0.163E-01
RMM:   2    -0.793793575510E+02    0.11121E-03   -0.20300E-03  4996   0.218E-01
  34 F= -.79379358E+02 E0= -.79379358E+02  d E =-.345573E-02  mag=     1.0000
 ZBRENT: can't locate minimum, use default step
 trial-energy change:   -0.003456  1 .order   -0.003524   -0.003943   -0.003104
 step:   1.0669(harm=  1.2540)  dis= 0.00977  next Energy=   -79.385170 (dE=-0.927E-02)
 bond charge predicted
       N       E                     dE             d eps       ncg     rms          rms(c)
DAV:   1    -0.793864125791E+02   -0.69438E-02   -0.25448E-01  8816   0.283E+00    0.662E-01
RMM:   2    -0.793852643651E+02    0.11482E-02   -0.19029E-02  9000   0.638E-01    0.315E-01
RMM:   3    -0.793846168254E+02    0.64754E-03   -0.17186E-03  6171   0.435E-01
  35 F= -.79384617E+02 E0= -.79384617E+02  d E =-.871501E-02  mag=     1.0000
 curvature:  -0.68 expect dE=-0.480E-02 dE for cont linesearch -0.502E-03
 trial: gam= 0.32498 g(F)=  0.601E-02 g(S)=  0.105E-02 ort = 0.350E-02 (trialstep = 0.427E+00)
 search vector abs. value=  0.111E-01
 reached required accuracy - stopping structural energy minimisation
