unknown system                          
           1
     5.800553   -0.886710    0.817204
     1.740152    5.618904   -0.335656
     3.186028   -1.892034    7.369742
   Sr   H    Nb   H    Sr   H    Sr
   1   6   1   3   1   6   2
Direct configuration=     1
   0.85518299  0.38812387  0.45256254
   0.20153860  0.54907882  0.22424874
   0.04202617  0.69325090  0.54686140
   0.03939907  0.09424459  0.57269166
   0.46999991  0.72656906  0.80102613
   0.48486841  0.35473353  0.78443969
   0.85886384  0.89018422  0.42563820
   0.24210041  0.82540234  0.33843117
   0.98074809  0.90356446  0.87178098
   0.56487614  0.69226784  0.07786563
   0.45424111  0.79169333  0.89921044
   0.96059829  0.70660194  0.08745953
   0.97450835  0.28905541  0.05612876
   0.03273125  0.45285928  0.77602977
   0.06551922  0.54776312  0.71931668
   0.18680548  0.02521117  0.19330681
   0.48677139  0.03245699  0.30972604
   0.49465686  0.66980558  0.39735828
   0.59154567  0.22529420  0.02112961
   0.34675175  0.03739937  0.67314094
unknown system                          
           1
     5.795711   -0.891408    0.818853
     1.734153    5.613432   -0.342312
     3.186393   -1.902883    7.362252
   Sr   H    Nb   H    Sr   H    Sr
   1   6   1   3   1   6   2
Direct configuration=     2
   0.85532581  0.38733724  0.45262110
   0.20152792  0.54824897  0.22385079
   0.04154226  0.69319579  0.54690104
   0.03924223  0.09454034  0.57276747
   0.47020430  0.72736192  0.80161831
   0.48491046  0.35486741  0.78419453
   0.86001101  0.89042733  0.42517429
   0.23869262  0.82835186  0.33961545
   0.98130896  0.90338224  0.87137756
   0.56532960  0.69112975  0.07768085
   0.45414705  0.79137137  0.89892030
   0.96125008  0.70678924  0.08740018
   0.97473841  0.28902824  0.05594186
   0.03163373  0.45053487  0.77705220
   0.06599263  0.54989915  0.71834550
   0.18753302  0.02485467  0.19327100
   0.48699633  0.03191963  0.30960582
   0.49525139  0.66979707  0.39758167
   0.59147509  0.22493269  0.02130741
   0.34662010  0.03759022  0.67312567
unknown system                          
           1
     5.797517   -0.889656    0.818238
     1.736390    5.615472   -0.339830
     3.186257   -1.898838    7.365044
   Sr   H    Nb   H    Sr   H    Sr
   1   6   1   3   1   6   2
Direct configuration=     3
   0.85527258  0.38763085  0.45259953
   0.20153174  0.54855913  0.22399966
   0.04172286  0.69321649  0.54688621
   0.03930078  0.09442990  0.57273904
   0.47012831  0.72706535  0.80139696
   0.48489463  0.35481761  0.78428602
   0.85958269  0.89033656  0.42534752
   0.23996472  0.82725075  0.33917191
   0.98109947  0.90345042  0.87152830
   0.56516034  0.69155468  0.07775029
   0.45418201  0.79149184  0.89902873
   0.96100683  0.70671914  0.08742233
   0.97465247  0.28903846  0.05601167
   0.03204391  0.45140227  0.77667119
   0.06581537  0.54910224  0.71870738
   0.18726153  0.02498757  0.19328457
   0.48691235  0.03212029  0.30965092
   0.49502966  0.66979988  0.39749833
   0.59150154  0.22506755  0.02124115
   0.34666921  0.03751901  0.67313129
unknown system                          
           1
     5.794882   -0.895189    0.821083
     1.729377    5.607310   -0.343761
     3.190028   -1.906813    7.357850
   Sr   H    Nb   H    Sr   H    Sr
   1   6   1   3   1   6   2
Direct configuration=     4
   0.85520658  0.38693443  0.45276669
   0.20137628  0.54796343  0.22371500
   0.04089431  0.69328518  0.54707686
   0.03877702  0.09519661  0.57317043
   0.47050556  0.72747262  0.80124828
   0.48491712  0.35500288  0.78406100
   0.86019897  0.89089437  0.42499297
   0.23884820  0.82835755  0.33956328
   0.98176822  0.90312587  0.87105941
   0.56521906  0.69050193  0.07786083
   0.45399112  0.79168765  0.89949602
   0.96166285  0.70686687  0.08725647
   0.97490333  0.28898113  0.05580728
   0.03170857  0.45158556  0.77614302
   0.06532998  0.54882686  0.71928645
   0.18791629  0.02480507  0.19311030
   0.48707334  0.03168365  0.30958359
   0.49535327  0.66997398  0.39769744
   0.59147661  0.22466686  0.02136367
   0.34660634  0.03774749  0.67309401
unknown system                          
           1
     5.792362   -0.900479    0.823804
     1.722672    5.599505   -0.347519
     3.193633   -1.914438    7.350972
   Sr   H    Nb   H    Sr   H    Sr
   1   6   1   3   1   6   2
Direct configuration=     5
   0.85514290  0.38626764  0.45292636
   0.20122787  0.54739235  0.22344223
   0.04010152  0.69335053  0.54725971
   0.03827559  0.09593110  0.57358401
   0.47086680  0.72786278  0.80110603
   0.48493909  0.35518001  0.78384568
   0.86078925  0.89142862  0.42465364
   0.23778001  0.82941717  0.33993895
   0.98240854  0.90281493  0.87061012
   0.56527465  0.68949389  0.07796605
   0.45380781  0.79187572  0.89994353
   0.96229066  0.70700868  0.08709753
   0.97514359  0.28892613  0.05561149
   0.03138881  0.45176002  0.77563763
   0.06486461  0.54856356  0.71984082
   0.18854277  0.02463060  0.19294314
   0.48722727  0.03126550  0.30951885
   0.49566251  0.67014130  0.39788802
   0.59145240  0.22428327  0.02148074
   0.34654635  0.03796619  0.67305847
unknown system                          
           1
     5.791891   -0.903712    0.825445
     1.719183    5.596153   -0.350303
     3.196113   -1.919891    7.347900
   Sr   H    Nb   H    Sr   H    Sr
   1   6   1   3   1   6   2
Direct configuration=     6
   0.85501882  0.38595431  0.45304753
   0.20109740  0.54718008  0.22333390
   0.03953055  0.69347056  0.54738291
   0.03787836  0.09650969  0.57394552
   0.47109181  0.72813554  0.80102783
   0.48492337  0.35531477  0.78375435
   0.86091128  0.89186252  0.42450618
   0.23786747  0.82931625  0.33993002
   0.98279028  0.90258713  0.87034133
   0.56525609  0.68892113  0.07807760
   0.45370184  0.79199739  0.90022262
   0.96265337  0.70707177  0.08696867
   0.97528474  0.28886681  0.05549816
   0.03105720  0.45151253  0.77551712
   0.06469656  0.54875306  0.71999794
   0.18889608  0.02459341  0.19279032
   0.48733627  0.03109733  0.30949140
   0.49572063  0.67030044  0.39798612
   0.59148409  0.22401544  0.02150085
   0.34653680  0.03809983  0.67303263
unknown system                          
           1
     5.790475   -0.913409    0.830369
     1.708716    5.586097   -0.358655
     3.203554   -1.936248    7.338685
   Sr   H    Nb   H    Sr   H    Sr
   1   6   1   3   1   6   2
Direct configuration=     7
   0.85464602  0.38501377  0.45341095
   0.20070621  0.54654226  0.22300854
   0.03781725  0.69383040  0.54775321
   0.03668573  0.09824727  0.57503162
   0.47176723  0.72895456  0.80079326
   0.48487656  0.35571908  0.78348039
   0.86127806  0.89316497  0.42406397
   0.23812985  0.82901335  0.33990306
   0.98393628  0.90190301  0.86953397
   0.56519979  0.68720186  0.07841175
   0.45338309  0.79236338  0.90106060
   0.96374198  0.70726136  0.08658170
   0.97570851  0.28868859  0.05515783
   0.03006260  0.45076860  0.77515528
   0.06419199  0.54932221  0.72046992
   0.18995651  0.02448183  0.19233134
   0.48766332  0.03059250  0.30940875
   0.49589476  0.67077862  0.39828074
   0.59157897  0.22321143  0.02156090
   0.34650829  0.03850098  0.67295521
unknown system                          
           1
     5.787644   -0.932805    0.840217
     1.687783    5.565985   -0.375358
     3.218437   -1.968962    7.320253
   Sr   H    Nb   H    Sr   H    Sr
   1   6   1   3   1   6   2
Direct configuration=     8
   0.85389716  0.38312941  0.45413727
   0.19992519  0.54526051  0.22235562
   0.03438821  0.69454867  0.54849807
   0.03429497  0.10173327  0.57721327
   0.47312050  0.73059703  0.80032443
   0.48478503  0.35652773  0.78293252
   0.86201574  0.89577429  0.42318068
   0.23865456  0.82840682  0.33984799
   0.98623302  0.90053029  0.86791338
   0.56508347  0.68375728  0.07907718
   0.45274057  0.79310111  0.90274078
   0.96592210  0.70764242  0.08580553
   0.97655813  0.28833057  0.05447503
   0.02807473  0.44927209  0.77442977
   0.06318028  0.55046440  0.72141752
   0.19208042  0.02425866  0.19141020
   0.48831753  0.02958104  0.30924155
   0.49624165  0.67173948  0.39887197
   0.59176761  0.22160040  0.02167916
   0.34645214  0.03930454  0.67280109
unknown system                          
           1
     5.788980   -0.923653    0.835571
     1.697660    5.575475   -0.367477
     3.211415   -1.953526    7.328950
   Sr   H    Nb   H    Sr   H    Sr
   1   6   1   3   1   6   2
Direct configuration=     9
   0.85425358  0.38402164  0.45379506
   0.20029242  0.54587110  0.22266580
   0.03600849  0.69421107  0.54814258
   0.03542830  0.10007808  0.57617489
   0.47247969  0.72981784  0.80054533
   0.48482624  0.35614612  0.78319097
   0.86166381  0.89453887  0.42359639
   0.23840702  0.82869372  0.33987506
   0.98514482  0.90118227  0.86868364
   0.56514186  0.68538834  0.07876594
   0.45304850  0.79274753  0.90194398
   0.96489068  0.70746083  0.08617387
   0.97615526  0.28850099  0.05479924
   0.02901142  0.44998645  0.77477388
   0.06366009  0.54992174  0.72096694
   0.19107537  0.02436398  0.19184784
   0.48800871  0.03006002  0.30932225
   0.49607927  0.67128181  0.39859112
   0.59167964  0.22236344  0.02162510
   0.34647783  0.03892416  0.67287312
unknown system                          
           1
     5.794924   -0.925021    0.835956
     1.698918    5.578457   -0.370116
     3.214623   -1.958155    7.331025
   Sr   H    Nb   H    Sr   H    Sr
   1   6   1   3   1   6   2
Direct configuration=    10
   0.85387193  0.38398135  0.45395436
   0.20004072  0.54582426  0.22259512
   0.03504902  0.69457165  0.54835059
   0.03492225  0.10088246  0.57673802
   0.47274148  0.73052566  0.80076712
   0.48464307  0.35645208  0.78332092
   0.86142884  0.89534354  0.42353816
   0.23899211  0.82769823  0.33983350
   0.98555025  0.90064956  0.86840228
   0.56554073  0.68449541  0.07868320
   0.45297624  0.79277881  0.90206253
   0.96532780  0.70735222  0.08584899
   0.97629569  0.28828317  0.05471077
   0.02842380  0.44944949  0.77466017
   0.06349500  0.55043741  0.72116274
   0.19168652  0.02419089  0.19160991
   0.48840644  0.03011840  0.30926224
   0.49579949  0.67154646  0.39864123
   0.59202105  0.22187560  0.02134059
   0.34652056  0.03910336  0.67287057
unknown system                          
           1
     5.805305   -0.927410    0.836628
     1.701115    5.583664   -0.374724
     3.220227   -1.966239    7.334649
   Sr   H    Nb   H    Sr   H    Sr
   1   6   1   3   1   6   2
Direct configuration=    11
   0.85320599  0.38391113  0.45423243
   0.19960173  0.54574238  0.22247166
   0.03337480  0.69520117  0.54871390
   0.03403841  0.10228716  0.57772177
   0.47319755  0.73176154  0.80115486
   0.48432324  0.35698629  0.78354799
   0.86101859  0.89674806  0.42343699
   0.24001334  0.82596054  0.33976037
   0.98625813  0.89971939  0.86791071
   0.56623710  0.68293666  0.07853820
   0.45285003  0.79283354  0.90226953
   0.96609078  0.70716232  0.08528169
   0.97654088  0.28790287  0.05455617
   0.02739911  0.44851193  0.77446121
   0.06320653  0.55133777  0.72150494
   0.19275304  0.02388857  0.19119441
   0.48910032  0.03022032  0.30915754
   0.49531123  0.67200845  0.39872885
   0.59261720  0.22102373  0.02084352
   0.34659502  0.03941618  0.67286623
unknown system                          
           1
     5.813475   -0.926142    0.836440
     1.705676    5.587932   -0.376479
     3.223243   -1.968078    7.338499
   Sr   H    Nb   H    Sr   H    Sr
   1   6   1   3   1   6   2
Direct configuration=    12
   0.85291273  0.38397581  0.45425560
   0.19934968  0.54568763  0.22240116
   0.03220686  0.69563865  0.54898647
   0.03382499  0.10271230  0.57807430
   0.47356983  0.73254157  0.80117164
   0.48396329  0.35741691  0.78388683
   0.86092559  0.89766197  0.42337417
   0.23977096  0.82601943  0.33997741
   0.98670423  0.89894541  0.86760711
   0.56701832  0.68174866  0.07829650
   0.45274002  0.79308032  0.90268265
   0.96648862  0.70678100  0.08489241
   0.97666101  0.28756003  0.05449362
   0.02696910  0.44880286  0.77384143
   0.06271497  0.55112970  0.72225432
   0.19367151  0.02331142  0.19106712
   0.48961193  0.03022942  0.30907358
   0.49484159  0.67222936  0.39878237
   0.59319577  0.22045348  0.02033235
   0.34659200  0.03963407  0.67290196
unknown system                          
           1
     5.827126   -0.924022    0.836127
     1.713297    5.595064   -0.379412
     3.228283   -1.971151    7.344932
   Sr   H    Nb   H    Sr   H    Sr
   1   6   1   3   1   6   2
Direct configuration=    13
   0.85242325  0.38408401  0.45429423
   0.19892917  0.54559635  0.22228332
   0.03025719  0.69636995  0.54944162
   0.03346817  0.10342239  0.57866325
   0.47419016  0.73384381  0.80120012
   0.48336193  0.35813625  0.78445290
   0.86076935  0.89918805  0.42326965
   0.23936631  0.82611797  0.34033990
   0.98744974  0.89765270  0.86709976
   0.56832352  0.67976440  0.07789244
   0.45255597  0.79349252  0.90337275
   0.96715315  0.70614395  0.08424213
   0.97686191  0.28698746  0.05438901
   0.02625146  0.44928883  0.77280624
   0.06189456  0.55078275  0.72350576
   0.19520498  0.02234708  0.19085449
   0.49046572  0.03024425  0.30893349
   0.49405759  0.67259856  0.39887175
   0.59416220  0.21950083  0.01947844
   0.34658668  0.03999790  0.67296173
unknown system                          
           1
     5.833180   -0.920327    0.836332
     1.719906    5.600035   -0.382939
     3.229794   -1.973991    7.347731
   Sr   H    Nb   H    Sr   H    Sr
   1   6   1   3   1   6   2
Direct configuration=    14
   0.85240763  0.38416553  0.45408052
   0.19872372  0.54565423  0.22230958
   0.02889513  0.69702368  0.54962995
   0.03359982  0.10339351  0.57875427
   0.47466136  0.73490565  0.80125034
   0.48279282  0.35866767  0.78496323
   0.86094051  0.90029106  0.42312390
   0.23880690  0.82694652  0.34041285
   0.98807744  0.89670345  0.86668615
   0.56901001  0.67841559  0.07788798
   0.45239718  0.79383030  0.90392348
   0.96746196  0.70546655  0.08392817
   0.97695031  0.28651294  0.05433174
   0.02532618  0.44862302  0.77253409
   0.06170085  0.55157631  0.72394973
   0.19640569  0.02147604  0.19082984
   0.49085286  0.02999539  0.30885939
   0.49339208  0.67279098  0.39900541
   0.59483903  0.21892020  0.01887268
   0.34649152  0.04020140  0.67301972
unknown system                          
           1
     5.839514   -0.916459    0.836547
     1.726822    5.605236   -0.386629
     3.231375   -1.976963    7.350659
   Sr   H    Nb   H    Sr   H    Sr
   1   6   1   3   1   6   2
Direct configuration=    15
   0.85239124  0.38425070  0.45385699
   0.19850880  0.54571492  0.22233708
   0.02747004  0.69770840  0.54982733
   0.03373750  0.10336324  0.57884947
   0.47515275  0.73601553  0.80130352
   0.48219698  0.35922398  0.78549740
   0.86111813  0.90144415  0.42297209
   0.23822090  0.82781333  0.34048964
   0.98873505  0.89571026  0.86625290
   0.56972952  0.67700472  0.07788252
   0.45223062  0.79418381  0.90449984
   0.96778577  0.70475790  0.08359931
   0.97704335  0.28601669  0.05427155
   0.02435954  0.44792751  0.77224895
   0.06149723  0.55240637  0.72441466
   0.19766230  0.02056429  0.19080356
   0.49125800  0.02973485  0.30878172
   0.49269592  0.67299276  0.39914533
   0.59554760  0.21831232  0.01823862
   0.34639175  0.04041427  0.67308050
unknown system                          
           1
     5.836989   -0.912319    0.838415
     1.730438    5.604459   -0.391056
     3.231016   -1.980618    7.346034
   Sr   H    Nb   H    Sr   H    Sr
   1   6   1   3   1   6   2
Direct configuration=    16
   0.85267329  0.38435438  0.45346729
   0.19842576  0.54610793  0.22257102
   0.02614784  0.69877408  0.54969786
   0.03412560  0.10300391  0.57873366
   0.47566932  0.73740034  0.80155769
   0.48145501  0.35975024  0.78608115
   0.86138934  0.90280927  0.42271366
   0.23836801  0.82782360  0.34028965
   0.98961232  0.89465825  0.86570082
   0.56984693  0.67584500  0.07841607
   0.45201154  0.79447732  0.90503356
   0.96795963  0.70379698  0.08339228
   0.97706817  0.28544271  0.05422296
   0.02343112  0.44766081  0.77173795
   0.06115825  0.55292065  0.72511942
   0.19887945  0.01991539  0.19067989
   0.49126563  0.02918317  0.30874284
   0.49185794  0.67319760  0.39937188
   0.59607444  0.21790940  0.01772701
   0.34631341  0.04052896  0.67309633
unknown system                          
           1
     5.829412   -0.899900    0.844018
     1.741284    5.602127   -0.404335
     3.229939   -1.991583    7.332159
   Sr   H    Nb   H    Sr   H    Sr
   1   6   1   3   1   6   2
Direct configuration=    17
   0.85352053  0.38466393  0.45229719
   0.19817470  0.54728796  0.22327434
   0.02217452  0.70197446  0.54931310
   0.03529229  0.10192457  0.57838474
   0.47721536  0.74155518  0.80232323
   0.47922439  0.36133244  0.78783574
   0.86219966  0.90690428  0.42194051
   0.23881003  0.82785362  0.33968909
   0.99225084  0.89149823  0.86404000
   0.57020233  0.67236612  0.08001521
   0.45135182  0.79535983  0.90663682
   0.96848520  0.70091267  0.08276839
   0.97714465  0.28372021  0.05407579
   0.02064523  0.44686132  0.77020430
   0.06013749  0.55446631  0.72723681
   0.20253644  0.01796526  0.19030571
   0.49129043  0.02752767  0.30862486
   0.48934076  0.67381467  0.40005347
   0.59765856  0.21669797  0.01618952
   0.34607777  0.04087331  0.67314418
unknown system                          
           1
     5.823775   -0.898649    0.850201
     1.740783    5.600347   -0.409069
     3.233166   -1.998469    7.331720
   Sr   H    Nb   H    Sr   H    Sr
   1   6   1   3   1   6   2
Direct configuration=    18
   0.85365348  0.38466698  0.45207998
   0.19829159  0.54748369  0.22342830
   0.02036590  0.70369688  0.54905653
   0.03545156  0.10187747  0.57855067
   0.47830591  0.74294306  0.80167409
   0.47816539  0.36197701  0.78849484
   0.86222318  0.90903684  0.42144121
   0.23894796  0.82673630  0.34025350
   0.99364849  0.88990043  0.86324337
   0.57067699  0.67071106  0.08038534
   0.45067249  0.79626879  0.90847666
   0.96888030  0.69976921  0.08240896
   0.97714567  0.28280866  0.05408333
   0.01961041  0.44734521  0.76913446
   0.05944049  0.55449809  0.72845737
   0.20392317  0.01810422  0.18947175
   0.49112760  0.02670053  0.30848988
   0.48865674  0.67377711  0.40052410
   0.59791929  0.21630976  0.01574943
   0.34662639  0.04094871  0.67294924
unknown system                          
           1
     5.822601   -0.898389    0.851489
     1.740679    5.599976   -0.410055
     3.233838   -1.999903    7.331629
   Sr   H    Nb   H    Sr   H    Sr
   1   6   1   3   1   6   2
Direct configuration=    19
   0.85368126  0.38466756  0.45203470
   0.19831592  0.54752450  0.22346037
   0.01998852  0.70405582  0.54900374
   0.03548475  0.10186768  0.57858519
   0.47853339  0.74323199  0.80153885
   0.47794429  0.36211154  0.78863246
   0.86222799  0.90948103  0.42133753
   0.23897672  0.82650363  0.34037087
   0.99394035  0.88956724  0.86307689
   0.57077608  0.67036628  0.08046208
   0.45053030  0.79645866  0.90886018
   0.96896290  0.69953086  0.08233383
   0.97714597  0.28261874  0.05408477
   0.01939474  0.44744584  0.76891191
   0.05929484  0.55450506  0.72871176
   0.20421260  0.01813288  0.18929776
   0.49109375  0.02652818  0.30846167
   0.48851396  0.67376944  0.40062228
   0.59797381  0.21622876  0.01565765
   0.34674086  0.04096433  0.67290853
unknown system                          
           1
     5.817672   -0.898590    0.857197
     1.739428    5.600874   -0.414697
     3.236977   -2.007929    7.332595
   Sr   H    Nb   H    Sr   H    Sr
   1   6   1   3   1   6   2
Direct configuration=    20
   0.85349781  0.38454673  0.45215245
   0.19850453  0.54724019  0.22344347
   0.01796993  0.70550679  0.54911908
   0.03529373  0.10215117  0.57904771
   0.47942917  0.74487641  0.80179106
   0.47698139  0.36267778  0.78913059
   0.86212970  0.91148689  0.42078327
   0.23896593  0.82612386  0.34048940
   0.99527740  0.88803869  0.86235226
   0.57148664  0.66869587  0.08053148
   0.44998229  0.79689753  0.90987108
   0.96959388  0.69869956  0.08191330
   0.97714548  0.28169746  0.05414684
   0.01811675  0.44702013  0.76819695
   0.05904279  0.55545247  0.72944949
   0.20539067  0.01852260  0.18841493
   0.49093408  0.02570993  0.30829704
   0.48830185  0.67341734  0.40122889
   0.59804940  0.21580195  0.01533475
   0.34763955  0.04099666  0.67265897
unknown system                          
           1
     5.807113   -0.899020    0.869424
     1.736747    5.602796   -0.424642
     3.243701   -2.025122    7.334664
   Sr   H    Nb   H    Sr   H    Sr
   1   6   1   3   1   6   2
Direct configuration=    21
   0.85310410  0.38428827  0.45240488
   0.19890924  0.54663112  0.22340649
   0.01363936  0.70861556  0.54937227
   0.03488297  0.10275975  0.58003926
   0.48134950  0.74839944  0.80233181
   0.47491478  0.36389227  0.79020037
   0.86191932  0.91578208  0.41959901
   0.23894269  0.82531070  0.34074280
   0.99814736  0.88476218  0.86079518
   0.57301124  0.66511778  0.08067635
   0.44880459  0.79784052  0.91203827
   0.97094848  0.69691757  0.08101005
   0.97714462  0.27972416  0.05427850
   0.01537711  0.44610646  0.76666742
   0.05850031  0.55748401  0.73103160
   0.20791928  0.01935476  0.18652199
   0.49059222  0.02395673  0.30794355
   0.48784575  0.67266482  0.40252826
   0.59821236  0.21488678  0.01464233
   0.34956772  0.04106505  0.67212262
unknown system                          
           1
     5.804865   -0.898357    0.872690
     1.737063    5.603838   -0.427486
     3.245533   -2.029544    7.335483
   Sr   H    Nb   H    Sr   H    Sr
   1   6   1   3   1   6   2
Direct configuration=    22
   0.85279416  0.38415348  0.45265639
   0.19899324  0.54619712  0.22334949
   0.01167542  0.70962448  0.54979059
   0.03461072  0.10307324  0.58052506
   0.48202264  0.74984490  0.80293798
   0.47418334  0.36437708  0.79056654
   0.86193887  0.91732735  0.41907440
   0.23875988  0.82588883  0.34039257
   0.99922617  0.88351792  0.86019280
   0.57365947  0.66372360  0.08063187
   0.44844747  0.79804474  0.91252197
   0.97161109  0.69632494  0.08062293
   0.97716344  0.27896801  0.05434987
   0.01454135  0.44611675  0.76592239
   0.05816803  0.55792648  0.73172990
   0.20887985  0.01940893  0.18600925
   0.49060452  0.02333606  0.30778249
   0.48776373  0.67228078  0.40305445
   0.59843786  0.21436830  0.01430230
   0.35025174  0.04105702  0.67193975
unknown system                          
           1
     5.798952   -0.896613    0.881284
     1.737893    5.606579   -0.434968
     3.250351   -2.041179    7.337639
   Sr   H    Nb   H    Sr   H    Sr
   1   6   1   3   1   6   2
Direct configuration=    23
   0.85197792  0.38379953  0.45331834
   0.19921478  0.54505531  0.22319894
   0.00650357  0.71228033  0.55089501
   0.03389307  0.10389896  0.58180381
   0.48379304  0.75364806  0.80453329
   0.47225679  0.36565347  0.79153142
   0.86198998  0.92139134  0.41769593
   0.23827866  0.82740908  0.33947209
   0.00206811  0.88024312  0.85860518
   0.57536715  0.66005566  0.08051239
   0.44750644  0.79858303  0.91379523
   0.97335652  0.69476493  0.07960290
   0.97721342  0.27697901  0.05453676
   0.01234201  0.44614288  0.76396359
   0.05729194  0.55909190  0.73356793
   0.21140948  0.01954997  0.18465905
   0.49063752  0.02170303  0.30735811
   0.48754735  0.67127153  0.40443845
   0.59903239  0.21300367  0.01340689
   0.35205287  0.04103520  0.67145768
unknown system                          
           1
     5.800872   -0.894030    0.881685
     1.741121    5.607544   -0.435211
     3.250813   -2.039912    7.340329
   Sr   H    Nb   H    Sr   H    Sr
   1   6   1   3   1   6   2
Direct configuration=    24
   0.85154127  0.38381879  0.45366048
   0.19911457  0.54478016  0.22321326
   0.00491795  0.71309627  0.55127467
   0.03362903  0.10420206  0.58220024
   0.48459714  0.75431871  0.80436327
   0.47184755  0.36604788  0.79174261
   0.86219054  0.92243112  0.41711048
   0.23779012  0.82781896  0.33955841
   0.00284277  0.87942266  0.85810830
   0.57578279  0.65918674  0.08038478
   0.44710327  0.79900260  0.91475444
   0.97389840  0.69439713  0.07931428
   0.97727399  0.27644702  0.05460531
   0.01206480  0.44645522  0.76323366
   0.05692554  0.55910000  0.73411095
   0.21201967  0.01926172  0.18457383
   0.49103658  0.02152181  0.30714314
   0.48733762  0.67105830  0.40468387
   0.59961479  0.21231861  0.01298434
   0.35220460  0.04087423  0.67133268
unknown system                          
           1
     5.804434   -0.889238    0.882430
     1.747112    5.609335   -0.435662
     3.251671   -2.037560    7.345322
   Sr   H    Nb   H    Sr   H    Sr
   1   6   1   3   1   6   2
Direct configuration=    25
   0.85073116  0.38385473  0.45429526
   0.19892890  0.54426972  0.22323978
   0.00197493  0.71461151  0.55197934
   0.03313896  0.10476447  0.58293574
   0.48608853  0.75556246  0.80404788
   0.47108785  0.36677996  0.79213452
   0.86256139  0.92436060  0.41602452
   0.23688319  0.82857991  0.33971865
   0.00428085  0.87789989  0.85718627
   0.57655488  0.65757415  0.08014785
   0.44635515  0.79978088  0.91653404
   0.97490419  0.69371434  0.07877873
   0.97738694  0.27545981  0.05473239
   0.01154976  0.44703551  0.76187962
   0.05624588  0.55911503  0.73511836
   0.21315223  0.01872636  0.18441560
   0.49177717  0.02118532  0.30674427
   0.48694876  0.67066269  0.40513915
   0.60069602  0.21104719  0.01220027
   0.35248626  0.04057549  0.67110076
unknown system                          
           1
     5.807462   -0.885484    0.881353
     1.751966    5.610599   -0.435930
     3.250927   -2.035268    7.346042
   Sr   H    Nb   H    Sr   H    Sr
   1   6   1   3   1   6   2
Direct configuration=    26
   0.85018804  0.38401466  0.45469609
   0.19873123  0.54415780  0.22339225
   0.00028784  0.71561652  0.55230382
   0.03285155  0.10507245  0.58331256
   0.48685014  0.75633387  0.80431999
   0.47073924  0.36715169  0.79230229
   0.86281764  0.92542985  0.41527798
   0.23677443  0.82839341  0.33989015
   0.00507664  0.87715612  0.85662390
   0.57666178  0.65693191  0.08017447
   0.44608181  0.80006533  0.91716870
   0.97541937  0.69334819  0.07850119
   0.97748867  0.27492729  0.05479599
   0.01118584  0.44673984  0.76120048
   0.05611198  0.55968448  0.73546973
   0.21366539  0.01837038  0.18448902
   0.49230563  0.02112105  0.30648483
   0.48656166  0.67053903  0.40528286
   0.60146076  0.21018416  0.01170472
   0.35247336  0.04032197  0.67096202
unknown system                          
           1
     5.816544   -0.874224    0.878119
     1.766527    5.614389   -0.436733
     3.248695   -2.028392    7.348202
   Sr   H    Nb   H    Sr   H    Sr
   1   6   1   3   1   6   2
Direct configuration=    27
   0.84855936  0.38449492  0.45589816
   0.19813887  0.54382238  0.22384943
  -0.00477347  0.71863362  0.55327667
   0.03198933  0.10599620  0.58444279
   0.48913246  0.75864548  0.80513680
   0.46969310  0.36826703  0.79280548
   0.86358271  0.92863701  0.41303920
   0.23644892  0.82783410  0.34040445
   0.00746429  0.87492457  0.85493719
   0.57698392  0.65500556  0.08025414
   0.44526208  0.80091820  0.91907236
   0.97696488  0.69224939  0.07766881
   0.97779509  0.27332995  0.05498661
   0.01009456  0.44585469  0.75916310
   0.05570941  0.56139211  0.73652380
   0.21520518  0.01730167  0.18470934
   0.49389026  0.02092756  0.30570685
   0.48540129  0.67016876  0.40571367
   0.60375564  0.20759494  0.01021837
   0.35243512  0.03956185  0.67054578
unknown system                          
           1
     5.817278   -0.870784    0.876452
     1.770050    5.611389   -0.438756
     3.246457   -2.027482    7.344755
   Sr   H    Nb   H    Sr   H    Sr
   1   6   1   3   1   6   2
Direct configuration=    28
   0.84813319  0.38471411  0.45619913
   0.19789769  0.54389220  0.22430499
  -0.00694087  0.72005526  0.55358784
   0.03172704  0.10611844  0.58466774
   0.48994904  0.75972501  0.80621264
   0.46934389  0.36851261  0.79289444
   0.86409270  0.92989444  0.41194277
   0.23692697  0.82725626  0.34046874
   0.00849509  0.87405441  0.85412525
   0.57641755  0.65466098  0.08073543
   0.44516423  0.80104353  0.91930550
   0.97731511  0.69169320  0.07747429
   0.97801930  0.27269967  0.05500138
   0.01018950  0.44617939  0.75811554
   0.05524810  0.56136731  0.73694033
   0.21566537  0.01691600  0.18501935
   0.49429845  0.02070147  0.30543838
   0.48483218  0.67006008  0.40581846
   0.60439831  0.20667450  0.00980208
   0.35256017  0.03934113  0.67029874
unknown system                          
           1
     5.817804   -0.868320    0.875258
     1.772574    5.609240   -0.440206
     3.244854   -2.026830    7.342286
   Sr   H    Nb   H    Sr   H    Sr
   1   6   1   3   1   6   2
Direct configuration=    29
   0.84782786  0.38487134  0.45641479
   0.19772496  0.54394234  0.22463139
  -0.00849403  0.72107483  0.55381092
   0.03153913  0.10620614  0.58482892
   0.49053315  0.76049827  0.80698396
   0.46909364  0.36868873  0.79295820
   0.86445692  0.93079527  0.41115761
   0.23726975  0.82684201  0.34051470
   0.00923385  0.87343045  0.85354336
   0.57601223  0.65441429  0.08108010
   0.44509408  0.80113339  0.91947256
   0.97756631  0.69129451  0.07733479
   0.97818032  0.27224793  0.05501180
   0.01025717  0.44641201  0.75736505
   0.05491779  0.56134973  0.73723871
   0.21599524  0.01663946  0.18524142
   0.49459092  0.02053928  0.30524601
   0.48442469  0.66998243  0.40589342
   0.60485917  0.20601467  0.00950361
   0.35264986  0.03918291  0.67012167
unknown system                          
           1
     5.814436   -0.866153    0.875138
     1.773395    5.603338   -0.444388
     3.242035   -2.028954    7.340406
   Sr   H    Nb   H    Sr   H    Sr
   1   6   1   3   1   6   2
Direct configuration=    30
   0.84790284  0.38488962  0.45632369
   0.19762059  0.54396667  0.22519212
  -0.01048248  0.72238401  0.55407809