unknown system                          
           1
     3.255771   -0.892411    0.255422
    -0.742186    6.059006   -0.240468
     0.485552    2.175033    4.529560
   Sr   Nb   H 
   1   2   7
Direct configuration=     1
   0.36639300  0.25937100  0.86504200
   0.13232500  0.61914700  0.18919800
   0.67758200  0.91100900  0.53893600
   0.62008000  0.62257600  0.95471400
   0.59562700  0.94035900  0.90189900
   0.86189300  0.26307600  0.17841900
   0.25934500  0.04636600  0.56611500
   0.18733900  0.88635200  0.31839800
   0.90224300  0.27478400  0.53487300
   0.58479700  0.61538500  0.40560100
unknown system                          
           1
     3.288976   -0.902140    0.256584
    -0.751403    6.118843   -0.242281
     0.487933    2.196521    4.575158
   Sr   Nb   H 
   1   2   7
Direct configuration=     2
   0.36650582  0.25899657  0.86480078
   0.13246227  0.61989638  0.18950933
   0.67768820  0.91120425  0.53911699
   0.62002583  0.62252305  0.95460304
   0.59607201  0.94044289  0.90179080
   0.86202257  0.26304844  0.17807557
   0.25910824  0.04618692  0.56629069
   0.18704245  0.88610260  0.31817522
   0.90214290  0.27470298  0.53515854
   0.58455371  0.61532093  0.40567403
unknown system                          
           1
     3.296886   -0.904458    0.256861
    -0.753599    6.133098   -0.242712
     0.488501    2.201639    4.586020
   Sr   Nb   H 
   1   2   7
Direct configuration=     3
   0.36653232  0.25890821  0.86474391
   0.13249480  0.62007320  0.18958274
   0.67771331  0.91125032  0.53915968
   0.62001302  0.62251055  0.95457687
   0.59617694  0.94046267  0.90176532
   0.86205305  0.26304192  0.17799459
   0.25905242  0.04614468  0.56633212
   0.18697244  0.88604375  0.31812267
   0.90211934  0.27468388  0.53522588
   0.58449635  0.61530582  0.40569124
