       N       E                     dE             d eps       ncg     rms          rms(c)
DAV:   1    -0.218258972318E+02   -0.21826E+02   -0.39309E+03 14480   0.367E+02
DAV:   2    -0.539209933389E+02   -0.32095E+02   -0.31119E+02 18868   0.909E+01
DAV:   3    -0.550471206549E+02   -0.11261E+01   -0.11220E+01 17540   0.156E+01
DAV:   4    -0.550494918595E+02   -0.23712E-02   -0.23711E-02 16636   0.869E-01
DAV:   5    -0.550494973530E+02   -0.54935E-05   -0.54931E-05 14500   0.399E-02    0.122E+01
DAV:   6    -0.531942336161E+02    0.18553E+01   -0.47521E-01 15656   0.335E+00    0.695E+00
DAV:   7    -0.522804609991E+02    0.91377E+00   -0.12768E+00 15836   0.572E+00    0.594E-01
DAV:   8    -0.522991957420E+02   -0.18735E-01   -0.57158E-02 15388   0.115E+00    0.342E-01
DAV:   9    -0.522970470259E+02    0.21487E-02   -0.25287E-03 18092   0.269E-01    0.339E-02
DAV:  10    -0.522971537924E+02   -0.10677E-03   -0.20044E-04 15776   0.759E-02    0.114E-02
DAV:  11    -0.522971567798E+02   -0.29873E-05   -0.74189E-06  8468   0.136E-02
   1 F= -.52297157E+02 E0= -.52297250E+02  d E =-.522972E+02
       N       E                     dE             d eps       ncg     rms          rms(c)
DAV:   1    -0.522741506943E+02    0.23003E-01   -0.76363E-01 16060   0.518E+00    0.373E-01
DAV:   2    -0.522763603917E+02   -0.22097E-02   -0.43846E-02 16372   0.118E+00    0.299E-01
DAV:   3    -0.522747716102E+02    0.15888E-02   -0.17116E-03 16924   0.431E-01    0.291E-02
DAV:   4    -0.522748893276E+02   -0.11772E-03   -0.11781E-03 16568   0.171E-01    0.139E-02
DAV:   5    -0.522748860323E+02    0.32954E-05   -0.68799E-06  8044   0.254E-02
   2 F= -.52274886E+02 E0= -.52274934E+02  d E =0.222707E-01
       N       E                     dE             d eps       ncg     rms          rms(c)
DAV:   1    -0.523018884386E+02   -0.26999E-01   -0.37365E-01 15996   0.358E+00    0.261E-01
DAV:   2    -0.523028981218E+02   -0.10097E-02   -0.20772E-02 16412   0.816E-01    0.208E-01
DAV:   3    -0.523021430995E+02    0.75502E-03   -0.10395E-03 16928   0.326E-01    0.114E-02
DAV:   4    -0.523022055855E+02   -0.62486E-04   -0.61217E-04 15856   0.123E-01
   3 F= -.52302206E+02 E0= -.52302299E+02  d E =-.504881E-02
