Automatically generated mesh
      61
Reciprocal lattice
    0.00000000000000    0.00000000000000    0.00000000000000             1
    0.12500000000000    0.00000000000000    0.00000000000000             2
    0.25000000000000    0.00000000000000    0.00000000000000             2
    0.37500000000000    0.00000000000000    0.00000000000000             2
    0.50000000000000    0.00000000000000    0.00000000000000             1
    0.00000000000000    0.20000000000000    0.00000000000000             2
    0.12500000000000    0.20000000000000    0.00000000000000             2
    0.25000000000000    0.20000000000000    0.00000000000000             2
    0.37500000000000    0.20000000000000    0.00000000000000             2
    0.50000000000000    0.20000000000000    0.00000000000000             2
   -0.37500000000000    0.20000000000000    0.00000000000000             2
   -0.25000000000000    0.20000000000000    0.00000000000000             2
   -0.12500000000000    0.20000000000000    0.00000000000000             2
    0.00000000000000    0.40000000000000    0.00000000000000             2
    0.12500000000000    0.40000000000000    0.00000000000000             2
    0.25000000000000    0.40000000000000    0.00000000000000             2
    0.37500000000000    0.40000000000000    0.00000000000000             2
    0.50000000000000    0.40000000000000    0.00000000000000             2
   -0.37500000000000    0.40000000000000    0.00000000000000             2
   -0.25000000000000    0.40000000000000    0.00000000000000             2
   -0.12500000000000    0.40000000000000    0.00000000000000             2
    0.00000000000000    0.00000000000000    0.33333333333333             2
    0.12500000000000    0.00000000000000    0.33333333333333             2
    0.25000000000000    0.00000000000000    0.33333333333333             2
    0.37500000000000    0.00000000000000    0.33333333333333             2
    0.50000000000000    0.00000000000000    0.33333333333333             2
   -0.37500000000000    0.00000000000000    0.33333333333333             2
   -0.25000000000000    0.00000000000000    0.33333333333333             2
   -0.12500000000000    0.00000000000000    0.33333333333333             2
    0.00000000000000    0.20000000000000    0.33333333333333             2
    0.12500000000000    0.20000000000000    0.33333333333333             2
    0.25000000000000    0.20000000000000    0.33333333333333             2
    0.37500000000000    0.20000000000000    0.33333333333333             2
    0.50000000000000    0.20000000000000    0.33333333333333             2
   -0.37500000000000    0.20000000000000    0.33333333333333             2
   -0.25000000000000    0.20000000000000    0.33333333333333             2
   -0.12500000000000    0.20000000000000    0.33333333333333             2
    0.00000000000000    0.40000000000000    0.33333333333333             2
    0.12500000000000    0.40000000000000    0.33333333333333             2
    0.25000000000000    0.40000000000000    0.33333333333333             2
    0.37500000000000    0.40000000000000    0.33333333333333             2
    0.50000000000000    0.40000000000000    0.33333333333333             2
   -0.37500000000000    0.40000000000000    0.33333333333333             2
   -0.25000000000000    0.40000000000000    0.33333333333333             2
   -0.12500000000000    0.40000000000000    0.33333333333333             2
    0.00000000000000   -0.40000000000000    0.33333333333333             2
    0.12500000000000   -0.40000000000000    0.33333333333333             2
    0.25000000000000   -0.40000000000000    0.33333333333333             2
    0.37500000000000   -0.40000000000000    0.33333333333333             2
    0.50000000000000   -0.40000000000000    0.33333333333333             2
   -0.37500000000000   -0.40000000000000    0.33333333333333             2
   -0.25000000000000   -0.40000000000000    0.33333333333333             2
   -0.12500000000000   -0.40000000000000    0.33333333333333             2
    0.00000000000000   -0.20000000000000    0.33333333333333             2
    0.12500000000000   -0.20000000000000    0.33333333333333             2
    0.25000000000000   -0.20000000000000    0.33333333333333             2
    0.37500000000000   -0.20000000000000    0.33333333333333             2
    0.50000000000000   -0.20000000000000    0.33333333333333             2
   -0.37500000000000   -0.20000000000000    0.33333333333333             2
   -0.25000000000000   -0.20000000000000    0.33333333333333             2
   -0.12500000000000   -0.20000000000000    0.33333333333333             2
Tetrahedra
       358    0.00138888888889
         2         1         2         6        23
         2         2         6         7        23
         2         6         7        23        31
         2         1         6        22        23
         2         6        22        23        30
         2         6        23        30        31
         2         2         3         7        24
         2         3         7         8        24
         2         7         8        24        32
         2         2         7        23        24
         2         7        23        24        31
         2         7        24        31        32
         2         3         4         8        25
         2         4         8         9        25
         2         8         9        25        33
         2         3         8        24        25
         2         8        24        25        32
         2         8        25        32        33
         2         4         5         9        26
         2         5         9        10        26
         2         9        10        26        34
         2         4         9        25        26
         2         9        25        26        33
         2         9        26        33        34
         2         4         5        10        27
         2         4        10        11        27
         2        10        11        27        35
         2         5        10        26        27
         2        10        26        27        34
         2        10        27        34        35
         2         3         4        11        28
         2         3        11        12        28
         2        11        12        28        36
         2         4        11        27        28
         2        11        27        28        35
         2        11        28        35        36
         2         2         3        12        29
         2         2        12        13        29
         2        12        13        29        37
         2         3        12        28        29
         2        12        28        29        36
         2        12        29        36        37
         2         1         2        13        22
         2         1         6        13        22
         2         6        13        22        30
         2         2        13        22        29
         2        13        22        29        37
         2        13        22        30        37
         2         6         7        14        31
         2         7        14        15        31
         2        14        15        31        39
         2         6        14        30        31
         2        14        30        31        38
         2        14        31        38        39
         2         7         8        15        32
         2         8        15        16        32
         2        15        16        32        40
         2         7        15        31        32
         2        15        31        32        39
         2        15        32        39        40
         2         8         9        16        33
         2         9        16        17        33
         2        16        17        33        41
         2         8        16        32        33
         2        16        32        33        40
         2        16        33        40        41
         2         9        10        17        34
         2        10        17        18        34
         2        17        18        34        42
         2         9        17        33        34
         2        17        33        34        41
         2        17        34        41        42
         2        10        11        18        35
         2        11        18        19        35
         2        18        19        35        43
         2        10        18        34        35
         2        18        34        35        42
         2        18        35        42        43
         2        11        12        19        36
         2        12        19        20        36
         2        19        20        36        44
         2        11        19        35        36
         2        19        35        36        43
         2        19        36        43        44
         2        12        13        20        37
         2        13        20        21        37
         2        20        21        37        45
         2        12        20        36        37
         2        20        36        37        44
         2        20        37        44        45
         2         6        13        21        30
         2         6        14        21        30
         2        14        21        30        38
         2        13        21        30        37
         2        21        30        37        45
         2        21        30        38        45
         2        14        14        15        39
         2        14        15        21        39
         2        14        21        39        47
         2        14        14        38        39
         2        14        38        39        46
         2        14        39        46        47
         2        15        16        21        40
         2        16        20        21        40
         2        20        21        40        48
         2        15        21        39        40
         2        21        39        40        47
         2        21        40        47        48
         2        16        17        20        41
         2        17        19        20        41
         2        19        20        41        49
         2        16        20        40        41
         2        20        40        41        48
         2        20        41        48        49
         2        17        18        19        42
         2        18        18        19        42
         2        18        19        42        50
         2        17        19        41        42
         2        19        41        42        49
         2        19        42        49        50
         2        18        18        19        43
         2        17        18        19        43
         2        17        18        43        51
         2        18        18        42        43
         2        18        42        43        50
         2        18        43        50        51
         2        17        19        20        44
         2        16        17        20        44
         2        16        17        44        52
         2        17        19        43        44
         2        17        43        44        51
         2        17        44        51        52
         2        16        20        21        45
         2        15        16        21        45
         2        15        16        45        53
         2        16        20        44        45
         2        16        44        45        52
         2        16        45        52        53
         2        14        15        21        38
         2        14        14        15        38
         2        14        15        38        46
         2        15        21        38        45
         2        15        38        45        53
         2        15        38        46        53
         2         6        14        21        47
         2         6        13        21        47
         2         6        13        47        55
         2         6        14        46        47
         2         6        46        47        54
         2         6        47        54        55
         2        13        20        21        48
         2        12        13        20        48
         2        12        13        48        56
         2        13        21        47        48
         2        13        47        48        55
         2        13        48        55        56
         2        12        19        20        49
         2        11        12        19        49
         2        11        12        49        57
         2        12        20        48        49
         2        12        48        49        56
         2        12        49        56        57
         2        11        18        19        50
         2        10        11        18        50
         2        10        11        50        58
         2        11        19        49        50
         2        11        49        50        57
         2        11        50        57        58
         2        10        17        18        51
         2         9        10        17        51
         2         9        10        51        59
         2        10        18        50        51
         2        10        50        51        58
         2        10        51        58        59
         2         9        16        17        52
         2         8         9        16        52
         2         8         9        52        60
         2         9        17        51        52
         2         9        51        52        59
         2         9        52        59        60
         2         8        15        16        53
         2         7         8        15        53
         2         7         8        53        61
         2         8        16        52        53
         2         8        52        53        60
         2         8        53        60        61
         2         7        14        15        46
         2         6         7        14        46
         2         6         7        46        54
         2         7        15        46        53
         2         7        46        53        61
         2         7        46        54        61
         2         1         6        13        55
         2         1         2        13        55
         2         1         2        23        55
         2         1         6        54        55
         2         1        22        54        55
         2         1        22        23        55
         2         2        12        13        56
         2         2         3        12        56
         2         2         3        24        56
         2         2        13        55        56
         2         2        23        55        56
         2         2        23        24        56
         2         3        11        12        57
         2         3         4        11        57
         2         3         4        25        57
         2         3        12        56        57
         2         3        24        56        57
         2         3        24        25        57
         2         4        10        11        58
         2         4         5        10        58
         2         4         5        26        58
         2         4        11        57        58
         2         4        25        57        58
         2         4        25        26        58
         2         5         9        10        59
         2         4         5         9        59
         2         4         5        27        59
         2         5        10        58        59
         2         5        26        58        59
         2         5        26        27        59
         2         4         8         9        60
         2         3         4         8        60
         2         3         4        28        60
         2         4         9        59        60
         2         4        27        59        60
         2         4        27        28        60
         2         3         7         8        61
         2         2         3         7        61
         2         2         3        29        61
         2         3         8        60        61
         2         3        28        60        61
         2         3        28        29        61
         2         2         6         7        54
         2         1         2         6        54
         2         1         2        22        54
         2         2         7        54        61
         2         2        29        54        61
         2         2        22        29        54
         2        22        23        29        30
         2        23        29        30        31
         2        29        30        31        61
         2        22        22        29        30
         2        22        29        30        54
         2        29        30        54        61
         2        23        24        28        31
         2        24        28        31        32
         2        28        31        32        60
         2        23        28        29        31
         2        28        29        31        61
         2        28        31        60        61
         2        24        25        27        32
         2        25        27        32        33
         2        27        32        33        59
         2        24        27        28        32
         2        27        28        32        60
         2        27        32        59        60
         2        25        26        26        33
         2        26        26        33        34
         2        26        33        34        58
         2        25        26        27        33
         2        26        27        33        59
         2        26        33        58        59
         2        25        26        27        34
         2        25        27        34        35
         2        25        34        35        57
         2        25        26        26        34
         2        25        26        34        58
         2        25        34        57        58
         2        24        27        28        35
         2        24        28        35        36
         2        24        35        36        56
         2        24        25        27        35
         2        24        25        35        57
         2        24        35        56        57
         2        23        28        29        36
         2        23        29        36        37
         2        23        36        37        55
         2        23        24        28        36
         2        23        24        36        56
         2        23        36        55        56
         2        22        22        29        37
         2        22        22        30        37
         2        22        30        37        54
         2        22        23        29        37
         2        22        23        37        55
         2        22        37        54        55
         2        30        31        38        61
         2        31        38        39        61
         2        38        39        53        61
         2        30        38        54        61
         2        38        46        54        61
         2        38        46        53        61
         2        31        32        39        60
         2        32        39        40        60
         2        39        40        52        60
         2        31        39        60        61
         2        39        53        60        61
         2        39        52        53        60
         2        32        33        40        59
         2        33        40        41        59
         2        40        41        51        59
         2        32        40        59        60
         2        40        52        59        60
         2        40        51        52        59
         2        33        34        41        58
         2        34        41        42        58
         2        41        42        50        58
         2        33        41        58        59
         2        41        51        58        59
         2        41        50        51        58
         2        34        35        42        57
         2        35        42        43        57
         2        42        43        49        57
         2        34        42        57        58
         2        42        50        57        58
         2        42        49        50        57
         2        35        36        43        56
         2        36        43        44        56
         2        43        44        48        56
         2        35        43        56        57
         2        43        49        56        57
         2        43        48        49        56
         2        36        37        44        55
         2        37        44        45        55
         2        44        45        47        55
         2        36        44        55        56
         2        44        48        55        56
         2        44        47        48        55
         2        30        37        45        54
         2        30        38        45        54
         2        38        45        46        54
         2        37        45        54        55
         2        45        47        54        55
         2        45        46        47        54
         2        38        39        46        53
         2        39        46        47        53
         2        45        46        47        53
         4        38        46        46        53
         2        38        45        46        53
         2        39        40        47        52
         2        40        47        48        52
         2        44        47        48        52
         2        39        47        52        53
         2        45        47        52        53
         2        44        45        47        52
         2        40        41        48        51
         2        41        48        49        51
         2        43        48        49        51
         2        40        48        51        52
         2        44        48        51        52
         2        43        44        48        51
         2        41        42        49        50
         4        42        49        50        50
         2        41        49        50        51
         2        43        49        50        51
         2        42        43        49        50
