  15  15   0   0
  0.1010545E+02  0.4234910E-09  0.5691846E-09  0.6539542E-09  0.5000000E-15
  1.000000000000000E-004
  CAR 
 unknown system                          
      9.39239430    -35.68649251  301      2.10756612      1.00000000
    -35.686  0.0000E+00  0.0000E+00
    -35.536  0.0000E+00  0.0000E+00
    -35.386  0.0000E+00  0.0000E+00
    -35.236  0.0000E+00  0.0000E+00
    -35.085  0.0000E+00  0.0000E+00
    -34.935  0.0000E+00  0.0000E+00
    -34.785  0.0000E+00  0.0000E+00
    -34.635  0.0000E+00  0.0000E+00
    -34.484  0.7596E-30  0.1141E-30
    -34.334  0.5317E-20  0.7989E-21
    -34.184  0.3472E-12  0.5217E-13
    -34.034  0.1839E-06  0.2763E-07
    -33.883  0.4687E-03  0.7045E-04
    -33.733 -0.1156E-01 -0.1666E-02
    -33.583  0.2118E+00  0.3017E-01
    -33.433  0.2003E+00  0.6026E-01
    -33.282  0.4190E-01  0.6656E-01
    -33.132  0.7222E-03  0.6666E-01
    -32.982  0.1277E-04  0.6667E-01
    -32.831  0.2306E-09  0.6667E-01
    -32.681  0.3202E-16  0.6667E-01
    -32.531  0.0000E+00  0.6667E-01
    -32.381  0.0000E+00  0.6667E-01
    -32.230  0.0000E+00  0.6667E-01
    -32.080  0.0000E+00  0.6667E-01
    -31.930  0.0000E+00  0.6667E-01
    -31.780  0.0000E+00  0.6667E-01
    -31.629  0.0000E+00  0.6667E-01
    -31.479  0.0000E+00  0.6667E-01
    -31.329  0.0000E+00  0.6667E-01
    -31.179  0.0000E+00  0.6667E-01
    -31.028  0.0000E+00  0.6667E-01
    -30.878  0.0000E+00  0.6667E-01
    -30.728  0.0000E+00  0.6667E-01
    -30.578  0.0000E+00  0.6667E-01
    -30.427  0.0000E+00  0.6667E-01
    -30.277  0.1420E-30  0.6667E-01
    -30.127  0.1297E-20  0.6667E-01
    -29.977  0.1128E-12  0.6667E-01
    -29.826  0.8244E-07  0.6667E-01
    -29.676  0.3244E-03  0.6672E-01
    -29.526 -0.9177E-02  0.6534E-01
    -29.375  0.2067E+00  0.9640E-01
    -29.225  0.2709E+00  0.1371E+00
    -29.075  0.2074E+00  0.1683E+00
    -28.925 -0.1111E-01  0.1666E+00
    -28.774  0.4407E-03  0.1667E+00
    -28.624  0.1576E-06  0.1667E+00
    -28.474  0.2746E-12  0.1667E+00
    -28.324  0.0000E+00  0.1667E+00
    -28.173  0.0000E+00  0.1667E+00
    -28.023  0.0000E+00  0.1667E+00
    -27.873  0.0000E+00  0.1667E+00
    -27.723  0.0000E+00  0.1667E+00
    -27.572  0.0000E+00  0.1667E+00
    -27.422  0.0000E+00  0.1667E+00
    -27.272  0.0000E+00  0.1667E+00
    -27.122  0.0000E+00  0.1667E+00
    -26.971  0.0000E+00  0.1667E+00
    -26.821  0.0000E+00  0.1667E+00
    -26.671  0.0000E+00  0.1667E+00
    -26.520  0.0000E+00  0.1667E+00
    -26.370  0.0000E+00  0.1667E+00
    -26.220  0.0000E+00  0.1667E+00
    -26.070  0.0000E+00  0.1667E+00
    -25.919  0.0000E+00  0.1667E+00
    -25.769  0.0000E+00  0.1667E+00
    -25.619  0.0000E+00  0.1667E+00
    -25.469  0.0000E+00  0.1667E+00
    -25.318  0.0000E+00  0.1667E+00
    -25.168  0.0000E+00  0.1667E+00
    -25.018  0.0000E+00  0.1667E+00
    -24.868  0.0000E+00  0.1667E+00
    -24.717  0.0000E+00  0.1667E+00
    -24.567  0.0000E+00  0.1667E+00
    -24.417  0.0000E+00  0.1667E+00
    -24.267  0.0000E+00  0.1667E+00
    -24.116  0.0000E+00  0.1667E+00
    -23.966  0.0000E+00  0.1667E+00
    -23.816  0.0000E+00  0.1667E+00
    -23.665  0.0000E+00  0.1667E+00
    -23.515  0.0000E+00  0.1667E+00
    -23.365  0.0000E+00  0.1667E+00
    -23.215  0.0000E+00  0.1667E+00
    -23.064  0.0000E+00  0.1667E+00
    -22.914  0.0000E+00  0.1667E+00
    -22.764  0.0000E+00  0.1667E+00
    -22.614  0.0000E+00  0.1667E+00
    -22.463  0.0000E+00  0.1667E+00
    -22.313  0.0000E+00  0.1667E+00
    -22.163  0.0000E+00  0.1667E+00
    -22.013  0.0000E+00  0.1667E+00
    -21.862  0.0000E+00  0.1667E+00
    -21.712  0.0000E+00  0.1667E+00
    -21.562  0.0000E+00  0.1667E+00
    -21.412  0.0000E+00  0.1667E+00
    -21.261  0.0000E+00  0.1667E+00
    -21.111  0.0000E+00  0.1667E+00
    -20.961  0.0000E+00  0.1667E+00
    -20.810  0.0000E+00  0.1667E+00
    -20.660  0.0000E+00  0.1667E+00
    -20.510  0.0000E+00  0.1667E+00
    -20.360  0.0000E+00  0.1667E+00
    -20.209  0.0000E+00  0.1667E+00
    -20.059  0.0000E+00  0.1667E+00
    -19.909  0.0000E+00  0.1667E+00
    -19.759  0.0000E+00  0.1667E+00
    -19.608  0.0000E+00  0.1667E+00
    -19.458  0.0000E+00  0.1667E+00
    -19.308  0.0000E+00  0.1667E+00
    -19.158  0.0000E+00  0.1667E+00
    -19.007  0.0000E+00  0.1667E+00
    -18.857  0.0000E+00  0.1667E+00
    -18.707  0.0000E+00  0.1667E+00
    -18.557  0.0000E+00  0.1667E+00
    -18.406  0.0000E+00  0.1667E+00
    -18.256  0.0000E+00  0.1667E+00
    -18.106  0.0000E+00  0.1667E+00
    -17.955  0.0000E+00  0.1667E+00
    -17.805  0.0000E+00  0.1667E+00
    -17.655  0.0000E+00  0.1667E+00
    -17.505  0.0000E+00  0.1667E+00
    -17.354  0.0000E+00  0.1667E+00
    -17.204  0.0000E+00  0.1667E+00
    -17.054  0.0000E+00  0.1667E+00
    -16.904  0.0000E+00  0.1667E+00
    -16.753  0.1372E-37  0.1667E+00
    -16.603  0.1660E-26  0.1667E+00
    -16.453  0.1946E-17  0.1667E+00
    -16.303  0.2374E-10  0.1667E+00
    -16.152  0.2645E-05  0.1667E+00
    -16.002  0.1394E-02  0.1669E+00
    -15.852 -0.1165E-01  0.1651E+00
    -15.702  0.5165E+00  0.2427E+00
    -15.551  0.4417E+00  0.3091E+00
    -15.401  0.3505E+00  0.3618E+00
    -15.251  0.3290E-01  0.3667E+00
    -15.100 -0.3361E-03  0.3667E+00
    -14.950  0.2735E-04  0.3667E+00
    -14.800  0.1870E-08  0.3667E+00
    -14.650  0.8799E-15  0.3667E+00
    -14.499  0.0000E+00  0.3667E+00
    -14.349  0.0000E+00  0.3667E+00
    -14.199  0.0000E+00  0.3667E+00
    -14.049  0.0000E+00  0.3667E+00
    -13.898  0.0000E+00  0.3667E+00
    -13.748  0.0000E+00  0.3667E+00
    -13.598  0.0000E+00  0.3667E+00
    -13.448  0.0000E+00  0.3667E+00
    -13.297  0.0000E+00  0.3667E+00
    -13.147  0.0000E+00  0.3667E+00
    -12.997  0.0000E+00  0.3667E+00
    -12.847  0.0000E+00  0.3667E+00
    -12.696  0.0000E+00  0.3667E+00
    -12.546  0.0000E+00  0.3667E+00
    -12.396  0.0000E+00  0.3667E+00
    -12.245  0.0000E+00  0.3667E+00
    -12.095  0.0000E+00  0.3667E+00
    -11.945  0.0000E+00  0.3667E+00
    -11.795  0.0000E+00  0.3667E+00
    -11.644  0.0000E+00  0.3667E+00
    -11.494  0.0000E+00  0.3667E+00
    -11.344  0.0000E+00  0.3667E+00
    -11.194  0.0000E+00  0.3667E+00
    -11.043  0.0000E+00  0.3667E+00
    -10.893  0.0000E+00  0.3667E+00
    -10.743  0.0000E+00  0.3667E+00
    -10.593  0.0000E+00  0.3667E+00
    -10.442  0.0000E+00  0.3667E+00
    -10.292  0.0000E+00  0.3667E+00
    -10.142  0.0000E+00  0.3667E+00
     -9.992  0.0000E+00  0.3667E+00
     -9.841  0.0000E+00  0.3667E+00
     -9.691  0.0000E+00  0.3667E+00
     -9.541  0.0000E+00  0.3667E+00
     -9.390  0.0000E+00  0.3667E+00
     -9.240  0.0000E+00  0.3667E+00
     -9.090  0.1233E-31  0.3667E+00
     -8.940  0.6116E-22  0.3667E+00
     -8.789  0.2832E-14  0.3667E+00
     -8.639  0.1110E-08  0.3667E+00
     -8.489  0.3024E-05  0.3667E+00
     -8.339 -0.3388E-04  0.3667E+00
     -8.188  0.2516E-02  0.3670E+00
     -8.038  0.1839E-01  0.3698E+00
     -7.888  0.3812E-01  0.3755E+00
     -7.738  0.3937E-01  0.3814E+00
     -7.587  0.3491E-01  0.3867E+00
     -7.437  0.3992E-01  0.3927E+00
     -7.287  0.4207E-01  0.3990E+00
     -7.137  0.6672E-02  0.4000E+00
     -6.986 -0.1053E-03  0.4000E+00
     -6.836  0.7033E-05  0.4000E+00
     -6.686  0.1369E-03  0.4000E+00
     -6.535 -0.7628E-03  0.3999E+00
     -6.385  0.5806E-01  0.4086E+00
     -6.235  0.1139E+00  0.4257E+00
     -6.085  0.5125E-01  0.4334E+00
     -5.934 -0.8642E-03  0.4333E+00
     -5.784  0.1166E-03  0.4333E+00
     -5.634  0.2185E-06  0.4333E+00
     -5.484  0.1947E-11  0.4333E+00
     -5.333  0.1173E-18  0.4333E+00
     -5.183  0.2442E-37  0.4333E+00
     -5.033  0.1858E-26  0.4333E+00
     -4.883  0.1444E-17  0.4333E+00
     -4.732  0.1130E-10  0.4333E+00
     -4.582  0.8012E-06  0.4333E+00
     -4.432  0.2898E-03  0.4334E+00
     -4.282 -0.2234E-02  0.4330E+00
     -4.131  0.1261E+00  0.4520E+00
     -3.981  0.8986E-01  0.4655E+00
     -3.831  0.7917E-02  0.4667E+00
     -3.680 -0.3333E-03  0.4666E+00
     -3.530  0.7323E-02  0.4677E+00
     -3.380  0.3555E-01  0.4731E+00
     -3.230  0.5798E-01  0.4818E+00
     -3.079  0.7245E-01  0.4927E+00
     -2.929  0.6050E-01  0.5018E+00
     -2.779  0.2650E-01  0.5057E+00
     -2.629  0.3389E-01  0.5108E+00
     -2.478  0.4347E-01  0.5174E+00
     -2.328  0.6091E-01  0.5265E+00
     -2.178  0.1330E+00  0.5465E+00
     -2.028  0.1351E+00  0.5668E+00
     -1.877  0.1005E+00  0.5819E+00
     -1.727  0.1209E+00  0.6001E+00
     -1.577  0.5181E-01  0.6078E+00
     -1.427  0.1150E+00  0.6251E+00
     -1.276  0.1059E+00  0.6410E+00
     -1.126  0.6535E-01  0.6509E+00
     -0.976  0.3677E-01  0.6564E+00
     -0.825  0.5992E-01  0.6654E+00
     -0.675  0.8857E-01  0.6787E+00
     -0.525  0.6524E-01  0.6885E+00
     -0.375  0.6609E-01  0.6984E+00
     -0.224  0.1047E-01  0.7000E+00
     -0.074 -0.6382E-04  0.7000E+00
      0.076  0.7940E-05  0.7000E+00
      0.226  0.8297E-09  0.7000E+00
      0.377  0.6754E-15  0.7000E+00
      0.527  0.0000E+00  0.7000E+00
      0.677  0.0000E+00  0.7000E+00
      0.827  0.5384E-33  0.7000E+00
      0.978  0.5523E-23  0.7000E+00
      1.128  0.5485E-15  0.7000E+00
      1.278  0.5017E-09  0.7000E+00
      1.428  0.3675E-05  0.7000E+00
      1.579 -0.4436E-04  0.7000E+00
      1.729  0.4090E-02  0.7006E+00
      1.879  0.3550E-01  0.7059E+00
      2.030  0.5275E-01  0.7139E+00
      2.180  0.3389E-01  0.7190E+00
      2.330  0.2644E-01  0.7229E+00
      2.480  0.3795E-01  0.7286E+00
      2.631  0.3157E-01  0.7334E+00
      2.781 -0.3769E-03  0.7333E+00
      2.931  0.5810E-03  0.7334E+00
      3.081  0.5959E-02  0.7343E+00
      3.232  0.5272E-01  0.7422E+00
      3.382  0.8809E-01  0.7555E+00
      3.532  0.9005E-01  0.7690E+00
      3.682  0.1017E+00  0.7843E+00
      3.833  0.7146E-01  0.7950E+00
      3.983  0.4545E-01  0.8019E+00
      4.133  0.6208E-01  0.8112E+00
      4.283  0.8508E-01  0.8240E+00
      4.434  0.7412E-01  0.8351E+00
      4.584  0.8177E-01  0.8474E+00
      4.734  0.6432E-01  0.8571E+00
      4.885  0.4088E-01  0.8632E+00
      5.035  0.4024E-01  0.8692E+00
      5.185  0.5513E-01  0.8775E+00
      5.335  0.9929E-01  0.8924E+00
      5.486  0.8522E-01  0.9053E+00
      5.636  0.9239E-01  0.9191E+00
      5.786  0.9958E-01  0.9341E+00
      5.936  0.8118E-01  0.9463E+00
      6.087  0.8936E-01  0.9597E+00
      6.237  0.9966E-01  0.9747E+00
      6.387  0.8956E-01  0.9882E+00
      6.537  0.9776E-01  0.1003E+01
      6.688  0.1018E+00  0.1018E+01
      6.838  0.1117E+00  0.1035E+01
      6.988  0.1100E+00  0.1051E+01
      7.138  0.8053E-01  0.1064E+01
      7.289  0.1802E-01  0.1066E+01
      7.439  0.2784E-02  0.1067E+01
      7.589 -0.9922E-04  0.1067E+01
      7.740  0.5129E-05  0.1067E+01
      7.890  0.1912E-08  0.1067E+01
      8.040  0.3706E-14  0.1067E+01
      8.190  0.0000E+00  0.1067E+01
      8.341  0.0000E+00  0.1067E+01
      8.491  0.0000E+00  0.1067E+01
      8.641  0.0000E+00  0.1067E+01
      8.791  0.0000E+00  0.1067E+01
      8.942  0.0000E+00  0.1067E+01
      9.092  0.0000E+00  0.1067E+01
      9.242  0.0000E+00  0.1067E+01
      9.392  0.0000E+00  0.1067E+01
