unknown system                          
           1
     4.698749    0.053372   -0.789822
     0.046358    6.010671    0.903307
    -0.975210    0.424103    7.188719
   H    Nb   H    Nb   H    Nb   Sr   H    Nb   H    Nb
   2   1   6   1   6   1   1   3   1   2   1
Direct configuration=     1
   0.13197850  0.82538236  0.97997584
   0.29716673  0.76545694  0.29310145
   0.63373021  0.25506742  0.52601833
   0.50665337  0.17315369  0.76272521
   0.25705138  0.15087052  0.92299774
   0.55900968  0.87203652  0.98069515
   0.35036976  0.01235426  0.48716418
   0.30681915  0.35481190  0.28974968
   0.38166300  0.49556508  0.54401888
   0.46420084  0.60118973  0.14304704
   0.54841664  0.41141165  0.97931721
   0.74576491  0.77483671  0.29373430
   0.88497107  0.51853835  0.50765502
   0.04565031  0.22137493  0.55553626
   0.11325198  0.45865754  0.99212013
   0.73933063  0.35139922  0.29097283
   0.62132866  0.75210285  0.52500898
   0.94576054  0.09892764  0.14629523
   0.81968308  0.96013408  0.69087337
   0.82100164  0.60306303  0.11976682
   0.47571892  0.69380458  0.75763611
   0.24170199  0.94244552  0.75114562
   0.89176630  0.62974779  0.78008533
   0.84620675  0.30279746  0.77766276
   0.18792498  0.44647824  0.75995156
unknown system                          
           1
     4.694472    0.057243   -0.795934
     0.050438    6.013392    0.905544
    -0.981973    0.425144    7.196817
   H    Nb   H    Nb   H    Nb   Sr   H    Nb   H    Nb
   2   1   6   1   6   1   1   3   1   2   1
Direct configuration=     2
   0.13186293  0.82527861  0.98052645
   0.29682846  0.76544273  0.29262570
   0.63186665  0.25356669  0.52585622
   0.50676780  0.17335323  0.76251266
   0.25697980  0.15068338  0.92273790
   0.56012118  0.87112057  0.98094253
   0.35042110  0.01220132  0.48738406
   0.30676141  0.35440796  0.29074905
   0.38207107  0.49597454  0.54390919
   0.46248883  0.60117376  0.14319017
   0.54843293  0.41191145  0.97917814
   0.74479154  0.77512141  0.29335274
   0.88463895  0.51896139  0.50759172
   0.04639902  0.22137399  0.55609073
   0.11441671  0.45866891  0.99288319
   0.73937295  0.35114580  0.29092221
   0.62139487  0.75311335  0.52582869
   0.94568943  0.09825602  0.14612965
   0.81991035  0.96077930  0.69035320
   0.82310231  0.60317538  0.11992148
   0.47553489  0.69373620  0.75760310
   0.23896286  0.94319265  0.74962070
   0.89318443  0.63034104  0.77939334
   0.84561542  0.30282544  0.77846392
   0.18950511  0.44580289  0.75948828
unknown system                          
           1
     4.693111    0.058475   -0.797879
     0.051737    6.014259    0.906256
    -0.984127    0.425476    7.199395
   H    Nb   H    Nb   H    Nb   Sr   H    Nb   H    Nb
   2   1   6   1   6   1   1   3   1   2   1
Direct configuration=     3
   0.13182634  0.82524560  0.98070156
   0.29672046  0.76543831  0.29247426
   0.63127302  0.25308951  0.52580419
   0.50680414  0.17341672  0.76244507
   0.25695693  0.15062384  0.92265525
   0.56047585  0.87082879  0.98102170
   0.35043760  0.01215263  0.48745403
   0.30674352  0.35427938  0.29106695
   0.38220098  0.49610477  0.54387439
   0.46194318  0.60116907  0.14323512
   0.54843791  0.41207052  0.97913385
   0.74448104  0.77521226  0.29323101
   0.88453294  0.51909611  0.50757142
   0.04663789  0.22137349  0.55626734
   0.11478826  0.45867223  0.99312630
   0.73938649  0.35106514  0.29090615
   0.62141599  0.75343490  0.52608933
   0.94566690  0.09804230  0.14607704
   0.81998239  0.96098461  0.69018774
   0.82377194  0.60321064  0.11997138
   0.47547624  0.69371449  0.75759254
   0.23808892  0.94343113  0.74913464
   0.89363601  0.63052954  0.77917364
   0.84542724  0.30283446  0.77871854
   0.19000880  0.44558760  0.75934154
unknown system                          
           1
     4.682854    0.061840   -0.802256
     0.055372    6.015322    0.907988
    -0.987915    0.426633    7.202243
   H    Nb   H    Nb   H    Nb   Sr   H    Nb   H    Nb
   2   1   6   1   6   1   1   3   1   2   1
Direct configuration=     4
   0.13144982  0.82540509  0.98097806
   0.29617795  0.76549666  0.29206970
   0.63050113  0.25320356  0.52591197
   0.50646528  0.17347711  0.76224811
   0.25690641  0.15033597  0.92216424
   0.56091173  0.86938643  0.98067086
   0.34983179  0.01206050  0.48764332
   0.30591856  0.35383257  0.29218468
   0.38262181  0.49655759  0.54369225
   0.46325976  0.60115268  0.14315217
   0.54876724  0.41290061  0.97907382
   0.74275971  0.77560130  0.29315675
   0.88374057  0.51950296  0.50754588
   0.04697921  0.22167978  0.55679954
   0.11638504  0.45845707  0.99351050
   0.73915009  0.35056055  0.29116142
   0.62149156  0.75356323  0.52573606
   0.94533858  0.09720835  0.14572957
   0.81952327  0.96181912  0.68949650
   0.82466753  0.60333788  0.12046836
   0.47472682  0.69384463  0.75750545
   0.23797162  0.94303305  0.74925625
   0.89601994  0.63141352  0.77823600
   0.84472719  0.30319005  0.77925814
   0.19082837  0.44458772  0.75960538
unknown system                          
           1
     4.668157    0.066661   -0.808527
     0.060580    6.016846    0.910471
    -0.993343    0.428292    7.206323
   H    Nb   H    Nb   H    Nb   Sr   H    Nb   H    Nb
   2   1   6   1   6   1   1   3   1   2   1
Direct configuration=     5
   0.13090907  0.82563388  0.98137359
   0.29539817  0.76558088  0.29148936
   0.62939234  0.25336767  0.52606525
   0.50597826  0.17356400  0.76196545
   0.25683366  0.14992369  0.92146088
   0.56153920  0.86731953  0.98016951
   0.34896191  0.01192902  0.48791371
   0.30473530  0.35319286  0.29378500
   0.38322557  0.49720604  0.54343169
   0.46515086  0.60112800  0.14303515
   0.54923923  0.41408967  0.97898788
   0.74028659  0.77616032  0.29304783
   0.88260186  0.52008665  0.50750803
   0.04746969  0.22211817  0.55756229
   0.11867938  0.45814721  0.99406319
   0.73881139  0.34983774  0.29152702
   0.62159959  0.75374712  0.52523002
   0.94486761  0.09601388  0.14523173
   0.81886203  0.96301542  0.68850524
   0.82595438  0.60351922  0.12118149
   0.47365006  0.69403183  0.75737960
   0.23780374  0.94246278  0.74943047
   0.89944222  0.63267810  0.77689563
   0.84372177  0.30370005  0.78003003
   0.19200712  0.44315428  0.75998494
unknown system                          
           1
     4.664544    0.066689   -0.809469
     0.060630    6.022500    0.912348
    -0.993430    0.430388    7.209941
   H    Nb   H    Nb   H    Nb   Sr   H    Nb   H    Nb
   2   1   6   1   6   1   1   3   1   2   1
Direct configuration=     6
   0.13065137  0.82584211  0.98139531
   0.29494928  0.76551209  0.29113276
   0.62936565  0.25379239  0.52619410
   0.50561350  0.17348774  0.76192152
   0.25697491  0.14944023  0.92133496
   0.56224891  0.86595119  0.97993435
   0.34818128  0.01197445  0.48802247
   0.30364488  0.35328004  0.29427073
   0.38322736  0.49757456  0.54331639
   0.46461858  0.60080763  0.14320369
   0.55025779  0.41462754  0.97911293
   0.73917790  0.77685026  0.29303336
   0.88209144  0.52017821  0.50749953
   0.04761440  0.22248449  0.55803393
   0.11997275  0.45770118  0.99413401
   0.73883135  0.34908214  0.29193575
   0.62130827  0.75380158  0.52491166
   0.94456880  0.09551479  0.14492024
   0.81816056  0.96350863  0.68794150
   0.82736524  0.60357424  0.12172907
   0.47324378  0.69387571  0.75711671
   0.23794110  0.94193004  0.74957591
   0.90169046  0.63374894  0.77622246
   0.84329281  0.30425729  0.78035099
   0.19212864  0.44281055  0.76001068
unknown system                          
           1
     4.653704    0.066774   -0.812298
     0.060780    6.039460    0.917981
    -0.993691    0.436677    7.220797
   H    Nb   H    Nb   H    Nb   Sr   H    Nb   H    Nb
   2   1   6   1   6   1   1   3   1   2   1
Direct configuration=     7
   0.12987762  0.82646623  0.98146015
   0.29360157  0.76530628  0.29006318
   0.62928545  0.25506524  0.52658023
   0.50451834  0.17325926  0.76178959
   0.25739910  0.14799130  0.92095767
   0.56437996  0.86185012  0.97923026
   0.34583742  0.01211057  0.48834804
   0.30037082  0.35354098  0.29572648
   0.38323276  0.49867920  0.54297050
   0.46302041  0.59984731  0.14370884
   0.55331588  0.41623942  0.97948837
   0.73584901  0.77891826  0.29298892
   0.88055890  0.52045268  0.50747366
   0.04804874  0.22358197  0.55944810
   0.12385605  0.45636418  0.99434745
   0.73889124  0.34681704  0.29316171
   0.62043369  0.75396512  0.52395681
   0.94367174  0.09401925  0.14398624
   0.81605451  0.96498748  0.68625039
   0.83160118  0.60373852  0.12337198
   0.47202400  0.69340807  0.75632820
   0.23835354  0.94033316  0.75001232
   0.90844079  0.63695891  0.77420495
   0.84200475  0.30592719  0.78131285
   0.19249353  0.44178028  0.76008810
unknown system                          
           1
     4.651832    0.062318   -0.811353
     0.055508    6.046357    0.920540
    -0.991563    0.440441    7.225008
   H    Nb   H    Nb   H    Nb   Sr   H    Nb   H    Nb
   2   1   6   1   6   1   1   3   1   2   1
Direct configuration=     8
   0.12986229  0.82646870  0.98135476
   0.29294484  0.76505841  0.28986287
   0.62911658  0.25519535  0.52683466
   0.50398099  0.17275980  0.76192968
   0.25781429  0.14725342  0.92117990
   0.56566461  0.86004916  0.97909176
   0.34510425  0.01234817  0.48841987
   0.29882732  0.35432913  0.29561386
   0.38253196  0.49886046  0.54299043
   0.46384616  0.59933306  0.14411869
   0.55498054  0.41659107  0.97960478
   0.73497774  0.78003915  0.29255474
   0.88042467  0.52012283  0.50742211
   0.04832127  0.22389716  0.56025810
   0.12446700  0.45520808  0.99419634
   0.73882419  0.34588744  0.29351049
   0.61919549  0.75449589  0.52430885
   0.94322505  0.09402025  0.14367777
   0.81528958  0.96496977  0.68568965
   0.83187240  0.60357618  0.12438184
   0.47210479  0.69271241  0.75571439
   0.23783660  0.94032586  0.74968716
   0.91076024  0.63935807  0.77354503
   0.84176580  0.30700946  0.78134413
   0.19338235  0.44173870  0.75996315
unknown system                          
           1
     4.647786    0.052690   -0.809312
     0.044114    6.061262    0.926071
    -0.986964    0.448577    7.234106
   H    Nb   H    Nb   H    Nb   Sr   H    Nb   H    Nb
   2   1   6   1   6   1   1   3   1   2   1
Direct configuration=     9
   0.12982929  0.82647413  0.98112713
   0.29152471  0.76452255  0.28943054
   0.62875152  0.25547561  0.52738423
   0.50281793  0.17168063  0.76223256
   0.25870980  0.14566102  0.92165984
   0.56843761  0.85616383  0.97879242
   0.34351973  0.01285978  0.48857525
   0.29549253  0.35602811  0.29537111
   0.38101737  0.49925058  0.54303371
   0.46562957  0.59822380  0.14500368
   0.55858003  0.41735271  0.97985548
   0.73309744  0.78245786  0.29161712
   0.88013372  0.51941066  0.50731088
   0.04891021  0.22457698  0.56200741
   0.12578516  0.45271367  0.99386993
   0.73867654  0.34388025  0.29426400
   0.61651953  0.75563919  0.52506960
   0.94225976  0.09402208  0.14301168
   0.81363656  0.96493101  0.68447884
   0.83245708  0.60322493  0.12656293
   0.47227851  0.69121165  0.75438874
   0.23671943  0.94030968  0.74898505
   0.91578125  0.64454153  0.77211835
   0.84125182  0.30934526  0.78141159
   0.19530390  0.44165051  0.75969292
unknown system                          
           1
     4.644628    0.050486   -0.810135
     0.041169    6.060549    0.926729
    -0.987823    0.449814    7.233979
   H    Nb   H    Nb   H    Nb   Sr   H    Nb   H    Nb
   2   1   6   1   6   1   1   3   1   2   1
Direct configuration=    10
   0.13020559  0.82621751  0.98111302
   0.29110057  0.76416118  0.28942263
   0.62832958  0.25592731  0.52751382
   0.50252973  0.17130401  0.76239276
   0.25904456  0.14525588  0.92173334
   0.56935663  0.85479680  0.97831620
   0.34298428  0.01304430  0.48853163
   0.29456222  0.35673765  0.29535093
   0.38027460  0.49919431  0.54297186
   0.46549550  0.59795872  0.14528032
   0.55992555  0.41766109  0.97983315
   0.73232283  0.78335714  0.29129963
   0.87987461  0.51921106  0.50732922
   0.04916025  0.22481635  0.56279072
   0.12615849  0.45161222  0.99379977
   0.73843855  0.34321045  0.29438526
   0.61560684  0.75593538  0.52469224
   0.94192182  0.09421021  0.14273536
   0.81304532  0.96488518  0.68409906
   0.83279086  0.60301035  0.12755929
   0.47214642  0.69085412  0.75399788
   0.23657031  0.93961959  0.74935554
   0.91817889  0.64689775  0.77158388
   0.84112969  0.31046883  0.78123309
   0.19596730  0.44126060  0.75993438
unknown system                          
           1
     4.635156    0.043876   -0.812603
     0.032334    6.058411    0.928701
    -0.990400    0.453525    7.233598
   H    Nb   H    Nb   H    Nb   Sr   H    Nb   H    Nb
   2   1   6   1   6   1   1   3   1   2   1
Direct configuration=    11
   0.13133480  0.82544795  0.98107089
   0.28982656  0.76307652  0.28939875
   0.62706379  0.25728203  0.52790239
   0.50166390  0.17017362  0.76287332
   0.26004885  0.14404061  0.92195404
   0.57211278  0.85069652  0.97688801
   0.34137712  0.01359739  0.48840048
   0.29177063  0.35886555  0.29528992
   0.37804459  0.49902475  0.54278596
   0.46509269  0.59716308  0.14611027
   0.56396553  0.41858778  0.97976671
   0.72999888  0.78605469  0.29034666
   0.87909635  0.51861192  0.50738416
   0.04991180  0.22553431  0.56514090
   0.12727719  0.44830794  0.99358955
   0.73772289  0.34120052  0.29474904
   0.61286719  0.75682333  0.52355965
   0.94090748  0.09477449  0.14190619
   0.81127004  0.96474731  0.68295938
   0.83379310  0.60236628  0.13054874
   0.47174895  0.68978149  0.75282521
   0.23612156  0.93754869  0.75046708
   0.92538098  0.65397004  0.76998118
   0.84076503  0.31383995  0.78069735
   0.19795833  0.44009127  0.76065916
unknown system                          
           1
     4.616212    0.030655   -0.817541
     0.014663    6.054134    0.932644
    -0.995555    0.460947    7.232836
   H    Nb   H    Nb   H    Nb   Sr   H    Nb   H    Nb
   2   1   6   1   6   1   1   3   1   2   1
Direct configuration=    12
   0.13359509  0.82391070  0.98098778
   0.28726899  0.76090381  0.28935008
   0.62453238  0.25998927  0.52867827
   0.49992488  0.16790965  0.76383408
   0.26205741  0.14161104  0.92239669
   0.57761968  0.84250066  0.97403439
   0.33815788  0.01470076  0.48813659
   0.28618348  0.36311711  0.29516492
   0.37357420  0.49868109  0.54241215
   0.46428335  0.59556936  0.14777031
   0.57206612  0.42045029  0.97963721
   0.72535005  0.79144801  0.28843767
   0.87753432  0.51741153  0.50749351
   0.05142365  0.22696931  0.56984272
   0.12950666  0.44169967  0.99317072
   0.73628138  0.33717729  0.29547653
   0.60737817  0.75859557  0.52129138
   0.93887560  0.09590237  0.14024649
   0.80771001  0.96446921  0.68067801
   0.83580304  0.60107599  0.13652987
   0.47094688  0.68763614  0.75047925
   0.23521568  0.93340310  0.75269064
   0.93984055  0.66813659  0.76678008
   0.84004619  0.32058443  0.77962462
   0.20194535  0.43775503  0.76211104
unknown system                          
           1
     4.628708    0.039376   -0.814284
     0.026319    6.056955    0.930043
    -0.992155    0.456051    7.233339
   H    Nb   H    Nb   H    Nb   Sr   H    Nb   H    Nb
   2   1   6   1   6   1   1   3   1   2   1
Direct configuration=    13
   0.13210161  0.82492226  0.98104107
   0.28896877  0.76234152  0.28938341
   0.62620200  0.25820634  0.52816813
   0.50108182  0.16940732  0.76320078
   0.26073250  0.14321241  0.92210306
   0.57399422  0.84790083  0.97591314
   0.34028801  0.01397664  0.48831279
   0.28987431  0.36031824  0.29525130
   0.37653687  0.49891380  0.54266143
   0.46482217  0.59662389  0.14667509
   0.56669515  0.41920954  0.97971813
   0.72841784  0.78789267  0.28970093
   0.87857203  0.51820617  0.50742211
   0.05041476  0.22602388  0.56673924
   0.12804651  0.44605841  0.99344488
   0.73724580  0.33983565  0.29499675
   0.61101189  0.75743139  0.52279173
   0.94022018  0.09515927  0.14134310
   0.81007095  0.96465580  0.68218558
   0.83446996  0.60192993  0.13258149
   0.47148545  0.68905145  0.75202755
   0.23582437  0.93614274  0.75122325
   0.93022868  0.65876251  0.76888590
   0.84050644  0.31613244  0.78033388
   0.19930872  0.43929290  0.76115025
unknown system                          
           1
     4.624352    0.044225   -0.821895
     0.030795    6.050478    0.927937
    -1.000965    0.450933    7.242597
   H    Nb   H    Nb   H    Nb   Sr   H    Nb   H    Nb
   2   1   6   1   6   1   1   3   1   2   1
Direct configuration=    14
   0.13291953  0.82389425  0.98192590
   0.28754022  0.76163298  0.28917117
   0.62541727  0.25832378  0.52821732
   0.50145840  0.16914578  0.76364708
   0.26122096  0.14276549  0.92232185
   0.57559492  0.84591858  0.97475125
   0.33925889  0.01416316  0.48798059
   0.28901416  0.36100583  0.29578811
   0.37485645  0.49870499  0.54212243
   0.46371155  0.59652254  0.14642587
   0.56831998  0.41997614  0.97958204
   0.72684146  0.78907724  0.28920073
   0.87779936  0.51843685  0.50752389
   0.05069125  0.22615111  0.56824702
   0.12847387  0.44420328  0.99422683
   0.73614055  0.33909554  0.29490630
   0.61084530  0.75727859  0.52200736
   0.93983290  0.09548494  0.14086654
   0.80920702  0.96513557  0.68174961
   0.83567127  0.60144322  0.13449875
   0.47117570  0.68909183  0.75185649
   0.23479108  0.93457852  0.75135362
   0.93584861  0.66293967  0.76773355
   0.84012061  0.31827647  0.78009486
   0.20036969  0.43836165  0.76105584
unknown system                          
           1
     4.613433    0.056377   -0.840971
     0.042012    6.034244    0.922660
    -1.023046    0.438104    7.265800
   H    Nb   H    Nb   H    Nb   Sr   H    Nb   H    Nb
   2   1   6   1   6   1   1   3   1   2   1
Direct configuration=    15
   0.13497805  0.82131529  0.98414332
   0.28395645  0.75985807  0.28863515
   0.62344805  0.25862032  0.52833789
   0.50240583  0.16848977  0.76476543
   0.26244862  0.14164362  0.92287107
   0.57961157  0.84093899  0.97184790
   0.33667472  0.01463270  0.48714569
   0.28685632  0.36273412  0.29712908
   0.37063809  0.49818367  0.54076769
   0.46092392  0.59627022  0.14579836
   0.57239472  0.42189543  0.97924679
   0.72288095  0.79205161  0.28794361
   0.87586038  0.51901761  0.50777616
   0.05139091  0.22647318  0.57202214
   0.12955393  0.43954982  0.99618538
   0.73336861  0.33724101  0.29467618
   0.61042445  0.75689377  0.52004341
   0.93885837  0.09630179  0.13967237
   0.80703622  0.96634022  0.68065554
   0.83869475  0.60022385  0.13930185
   0.47039764  0.68919345  0.75142728
   0.23220259  0.93065672  0.75167640
   0.94993575  0.67340425  0.76486788
   0.83914628  0.32365592  0.77949554
   0.20303383  0.43602259  0.76082287
unknown system                          
           1
     4.616075    0.053437   -0.836356
     0.039298    6.038172    0.923937
    -1.017704    0.441208    7.260187
   H    Nb   H    Nb   H    Nb   Sr   H    Nb   H    Nb
   2   1   6   1   6   1   1   3   1   2   1
Direct configuration=    16
   0.13447477  0.82194080  0.98360691
   0.28482565  0.76028695  0.28876732
   0.62392600  0.25854723  0.52831036
   0.50217441  0.16864881  0.76449495
   0.26214948  0.14191614  0.92273765
   0.57863675  0.84215079  0.97254513
   0.33730295  0.01451784  0.48734910
   0.28737968  0.36231292  0.29680731
   0.37166285  0.49830856  0.54109781
   0.46160090  0.59633024  0.14595193
   0.57140731  0.42143228  0.97932437
   0.72384509  0.79132859  0.28824989
   0.87633102  0.51887552  0.50771683
   0.05121757  0.22639333  0.57111102
   0.12928714  0.44067817  0.99571224
   0.73404044  0.33768948  0.29473393
   0.61052830  0.75698799  0.52051746
   0.93909653  0.09610377  0.13996116
   0.80756482  0.96604740  0.68092112
   0.83795553  0.60051864  0.13814098
   0.47058695  0.68916861  0.75153142
   0.23282814  0.93160648  0.75160069
   0.94652606  0.67087509  0.76554766
   0.83938649  0.32235075  0.77964074
   0.20238615  0.43659161  0.76087701
unknown system                          
           1
     4.617539    0.059328   -0.839649
     0.045521    6.040511    0.919468
    -1.021232    0.433859    7.267512
   H    Nb   H    Nb   H    Nb   Sr   H    Nb   H    Nb
   2   1   6   1   6   1   1   3   1   2   1
Direct configuration=    17
   0.13436027  0.82150419  0.98445644
   0.28259278  0.75970948  0.28827740
   0.62274699  0.25717309  0.52819035
   0.50336684  0.16882374  0.76480886
   0.26236209  0.14142641  0.92291016
   0.57976314  0.84054718  0.97196524
   0.33623824  0.01458874  0.48701422
   0.28720619  0.36228465  0.29746297
   0.36947365  0.49844853  0.53997410
   0.46332633  0.59638770  0.14561064
   0.57137732  0.42232052  0.97910536
   0.72223082  0.79185346  0.28791330
   0.87576982  0.51936123  0.50757800
   0.05075091  0.22587172  0.57209745
   0.12955825  0.43949844  0.99627296
   0.73240494  0.33715733  0.29500710
   0.61093640  0.75637865  0.52108951
   0.93891373  0.09598906  0.13967340
   0.80667375  0.96682787  0.68089820
   0.83828560  0.59986236  0.13972918
   0.47158839  0.68920209  0.75131980
   0.23211637  0.93287685  0.75103076
   0.95168741  0.67370890  0.76406899
   0.83903442  0.32427456  0.77944999
   0.20435633  0.43553125  0.76135062
unknown system                          
           1
     4.618184    0.061922   -0.841099
     0.048260    6.041541    0.917502
    -1.022785    0.430625    7.270736
   H    Nb   H    Nb   H    Nb   Sr   H    Nb   H    Nb
   2   1   6   1   6   1   1   3   1   2   1
Direct configuration=    18
   0.13431030  0.82131263  0.98482982
   0.28161037  0.75945612  0.28806131
   0.62222886  0.25656898  0.52813697
   0.50389157  0.16890036  0.76494721
   0.26245596  0.14121095  0.92298594
   0.58025957  0.83984081  0.97171019
   0.33576958  0.01462022  0.48686673
   0.28713001  0.36227266  0.29775120
   0.36850993  0.49851045  0.53947955
   0.46408553  0.59641202  0.14546103
   0.57136359  0.42271121  0.97900926
   0.72152007  0.79208492  0.28776504
   0.87552255  0.51957510  0.50751694
   0.05054604  0.22564300  0.57253090
   0.12967831  0.43897960  0.99651928
   0.73168556  0.33692408  0.29512668
   0.61111645  0.75611070  0.52134098
   0.93883328  0.09593851  0.13954681
   0.80628119  0.96717163  0.68088809
   0.83843156  0.59957437  0.14042738
   0.47202903  0.68921625  0.75122701
   0.23180233  0.93343576  0.75078031
   0.95395690  0.67495253  0.76342080
   0.83887840  0.32512102  0.77936649
   0.20522403  0.43506412  0.76155909
unknown system                          
           1
     4.621747    0.065824   -0.840612
     0.052588    6.043383    0.912629
    -1.023131    0.424801    7.266531
   H    Nb   H    Nb   H    Nb   Sr   H    Nb   H    Nb
   2   1   6   1   6   1   1   3   1   2   1
Direct configuration=    19
   0.13410345  0.82183200  0.98471360
   0.28075499  0.75883229  0.28807438
   0.62147149  0.25653197  0.52822651
   0.50527180  0.16959634  0.76515327
   0.26253916  0.14098966  0.92316387
   0.58053443  0.83904762  0.97164496
   0.33500083  0.01447581  0.48665781
   0.28758661  0.36199559  0.29797773
   0.36668459  0.49862685  0.53818606
   0.46317772  0.59645712  0.14597109
   0.57092385  0.42316617  0.97891131
   0.72040027  0.79219393  0.28774924
   0.87557984  0.51938134  0.50753866
   0.04926745  0.22505022  0.57260253
   0.13028866  0.43885355  0.99651022
   0.73052880  0.33634505  0.29551007
   0.61049741  0.75541854  0.52140007
   0.93885478  0.09554529  0.13952674
   0.80585937  0.96754237  0.68139924
   0.83959276  0.59892586  0.14131849
   0.47302709  0.68944209  0.75107048
   0.23274496  0.93362042  0.75129263
   0.95722695  0.67595946  0.76203563
   0.83895822  0.32662912  0.77896165
   0.20624552  0.43514934  0.76165875
unknown system                          
           1
     4.625396    0.069822   -0.840114
     0.057021    6.045270    0.907637
    -1.023486    0.418834    7.262223
   H    Nb   H    Nb   H    Nb   Sr   H    Nb   H    Nb
   2   1   6   1   6   1   1   3   1   2   1
Direct configuration=    20
   0.13389126  0.82236390  0.98459483
   0.27987992  0.75819400  0.28808746
   0.62069629  0.25649466  0.52831833
   0.50668410  0.17030838  0.76536479
   0.26262454  0.14076317  0.92334609
   0.58081641  0.83823509  0.97157758
   0.33421400  0.01432821  0.48644364
   0.28805425  0.36171178  0.29820969
   0.36481581  0.49874601  0.53686057
   0.46224852  0.59650438  0.14649396
   0.57047332  0.42363227  0.97881125
   0.71925392  0.79230629  0.28773321
   0.87563864  0.51918290  0.50756078
   0.04795916  0.22444407  0.57267567
   0.13091353  0.43872407  0.99650081
   0.72934526  0.33575320  0.29590274
   0.60986432  0.75471016  0.52146024
   0.93887710  0.09514258  0.13950591
   0.80542737  0.96792279  0.68192340
   0.84078208  0.59826184  0.14223131
   0.47404851  0.68967257  0.75091012
   0.23370979  0.93380940  0.75181776
   0.96057317  0.67698718  0.76061633
   0.83903863  0.32817308  0.77854768
   0.20729108  0.43523604  0.76176087
unknown system                          
           1
     4.623959    0.070188   -0.839822
     0.057075    6.040544    0.904696
    -1.023529    0.415709    7.257267
   H    Nb   H    Nb   H    Nb   Sr   H    Nb   H    Nb
   2   1   6   1   6   1   1   3   1   2   1
Direct configuration=    21
   0.13372120  0.82351390  0.98398938
   0.27924813  0.75761629  0.28873190
   0.62156850  0.25656690  0.52933112
   0.50794128  0.17108567  0.76596751
   0.26287460  0.14104854  0.92362352
   0.58081936  0.83742966  0.97210857
   0.33358268  0.01408308  0.48642800
   0.28827843  0.36126857  0.29792097
   0.36229317  0.49896454  0.53508388
   0.46310589  0.59599540  0.14665423
   0.57016894  0.42392092  0.97899306
   0.71797927  0.79243489  0.28776532
   0.87595322  0.51826636  0.50768496
   0.04601763  0.22373748  0.57238174
   0.13145387  0.43906875  0.99632330
   0.72798200  0.33507068  0.29606698
   0.60881703  0.75454127  0.52142684
   0.93862478  0.09482983  0.13951029
   0.80584012  0.96785501  0.68295900
   0.84034551  0.59737476  0.14314727
   0.47505366  0.68990617  0.75113866
   0.23446441  0.93353761  0.75224836
   0.96331720  0.67812836  0.75872368
   0.83972120  0.33027246  0.77796296
   0.20794893  0.43509088  0.76108353
unknown system                          
           1
     4.622820    0.070477   -0.839590
     0.057118    6.036801    0.902367
    -1.023563    0.413235    7.253343
   H    Nb   H    Nb   H    Nb   Sr   H    Nb   H    Nb
   2   1   6   1   6   1   1   3   1   2   1
Direct configuration=    22
   0.13358648  0.82442498  0.98350995
   0.27874776  0.75715877  0.28924236
   0.62225948  0.25662449  0.53013360
   0.50893714  0.17170178  0.76644526
   0.26307270  0.14127477  0.92384340
   0.58082172  0.83679162  0.97252909
   0.33308263  0.01388886  0.48641553
   0.28845594  0.36091724  0.29769209
   0.36029488  0.49913717  0.53367622
   0.46378499  0.59559209  0.14678110
   0.56992787  0.42414973  0.97913718
   0.71696967  0.79253688  0.28779078
   0.87620236  0.51754010  0.50778312
   0.04447974  0.22317756  0.57214867
   0.13188184  0.43934177  0.99618274
   0.72690220  0.33452997  0.29619693
   0.60798749  0.75440748  0.52140032
   0.93842491  0.09458202  0.13951367
   0.80616717  0.96780167  0.68377951
   0.83999980  0.59667219  0.14387279
   0.47584984  0.69009132  0.75131981
   0.23506217  0.93332237  0.75258946
   0.96549048  0.67903181  0.75722438
   0.84026185  0.33193580  0.77750020
   0.20846990  0.43497556  0.76054682
unknown system                          
           1
     4.626272    0.068867   -0.842210
     0.054571    6.032690    0.902156
    -1.027736    0.412484    7.257938
   H    Nb   H    Nb   H    Nb   Sr   H    Nb   H    Nb
   2   1   6   1   6   1   1   3   1   2   1
Direct configuration=    23
   0.13373457  0.82533531  0.98309543
   0.27826484  0.75669028  0.29000197
   0.62209230  0.25630673  0.53046602
   0.50967702  0.17234006  0.76739836
   0.26344737  0.14187351  0.92404602
   0.58103532  0.83632453  0.97332871
   0.33288532  0.01370146  0.48659214
   0.28882983  0.36025984  0.29734180
   0.35760944  0.49957741  0.53179956
   0.46274248  0.59486968  0.14679763
   0.57030278  0.42402107  0.97947129
   0.71609889  0.79287026  0.28778728
   0.87618856  0.51667892  0.50765153
   0.04350817  0.22241400  0.57180217
   0.13206433  0.43991018  0.99569834
   0.72599090  0.33373684  0.29608256
   0.60701084  0.75488588  0.52136479
   0.93806737  0.09454794  0.13952055
   0.80702495  0.96728584  0.68505854
   0.83991516  0.59574268  0.14463596
   0.47696889  0.68990725  0.75191028
   0.23506762  0.93349581  0.75252176
   0.96713599  0.68033365  0.75538333
   0.84103030  0.33402057  0.77730218
   0.21042773  0.43447830  0.76019679
unknown system                          
           1
     4.630594    0.066850   -0.845492
     0.051380    6.027540    0.901891
    -1.032963    0.411543    7.263693
   H    Nb   H    Nb   H    Nb   Sr   H    Nb   H    Nb
   2   1   6   1   6   1   1   3   1   2   1
Direct configuration=    24
   0.13392014  0.82647621  0.98257660
   0.27766084  0.75610311  0.29095267
   0.62188317  0.25590848  0.53088206
   0.51060441  0.17314043  0.76859165
   0.26391691  0.14262408  0.92429978
   0.58130312  0.83573935  0.97432971
   0.33263842  0.01346657  0.48681314
   0.28929701  0.35943598  0.29690342
   0.35424684  0.50012793  0.52944960
   0.46143720  0.59396393  0.14681800
   0.57077226  0.42386000  0.97988962
   0.71500925  0.79328780  0.28778262
   0.87617057  0.51559956  0.50748681
   0.04229130  0.22145665  0.57136813
   0.13229266  0.44062253  0.99509206
   0.72484966  0.33274249  0.29593911
   0.60578876  0.75548515  0.52132001
   0.93761987  0.09450513  0.13952905
   0.80809945  0.96663987  0.68665984
   0.83980934  0.59457783  0.14559122
   0.47836995  0.68967703  0.75264976
   0.23507450  0.93371318  0.75243703
   0.96919462  0.68196543  0.75307931
   0.84199331  0.33663364  0.77705456
   0.21287746  0.43385564  0.75975924
unknown system                          
           1