  16  16   1   0
  0.5723452E+01  0.4396277E-09  0.4113663E-09  0.5064160E-09  0.5000000E-15
  1.000000000000000E-004
  CAR 
 unknown system                          
     15.61500896    -12.14068997  301     -7.58412940      1.00000000
    -12.141  0.0000E+00  0.0000E+00  0.0000E+00  0.0000E+00
    -12.048  0.0000E+00  0.0000E+00  0.0000E+00  0.0000E+00
    -11.956  0.0000E+00  0.0000E+00  0.0000E+00  0.0000E+00
    -11.863  0.0000E+00  0.0000E+00  0.0000E+00  0.0000E+00
    -11.771  0.0000E+00  0.0000E+00  0.0000E+00  0.0000E+00
    -11.678  0.0000E+00  0.0000E+00  0.0000E+00  0.0000E+00
    -11.586  0.0000E+00  0.0000E+00  0.0000E+00  0.0000E+00
    -11.493  0.0000E+00  0.0000E+00  0.0000E+00  0.0000E+00
    -11.401  0.0000E+00  0.0000E+00  0.0000E+00  0.0000E+00
    -11.308  0.0000E+00  0.0000E+00  0.0000E+00  0.0000E+00
    -11.216  0.0000E+00  0.0000E+00  0.0000E+00  0.0000E+00
    -11.123  0.0000E+00  0.0000E+00  0.0000E+00  0.0000E+00
    -11.030  0.0000E+00  0.0000E+00  0.0000E+00  0.0000E+00
    -10.938  0.0000E+00  0.0000E+00  0.0000E+00  0.0000E+00
    -10.845  0.1139E-03  0.1145E-03  0.1274E-05  0.1284E-05
    -10.753  0.1607E-02  0.1609E-02  0.6756E-04  0.6770E-04
    -10.660  0.3874E-02  0.3875E-02  0.3264E-03  0.3267E-03
    -10.568  0.4769E-02  0.4769E-02  0.7372E-03  0.7376E-03
    -10.475  0.5291E-02  0.5292E-02  0.1198E-02  0.1199E-02
    -10.383  0.6361E-02  0.6362E-02  0.1735E-02  0.1735E-02
    -10.290  0.7431E-02  0.7432E-02  0.2374E-02  0.2374E-02
    -10.198  0.9678E-02  0.9680E-02  0.3167E-02  0.3167E-02
    -10.105  0.1035E-01  0.1035E-01  0.4114E-02  0.4115E-02
    -10.013  0.9929E-02  0.9929E-02  0.5048E-02  0.5049E-02
     -9.920  0.1051E-01  0.1051E-01  0.5993E-02  0.5994E-02
     -9.828  0.1097E-01  0.1097E-01  0.6991E-02  0.6991E-02
     -9.735  0.1112E-01  0.1112E-01  0.8012E-02  0.8013E-02
     -9.643  0.1225E-01  0.1225E-01  0.9081E-02  0.9082E-02
     -9.550  0.1693E-01  0.1694E-01  0.1041E-01  0.1041E-01
     -9.458  0.1930E-01  0.1930E-01  0.1214E-01  0.1214E-01
     -9.365  0.1760E-01  0.1759E-01  0.1384E-01  0.1384E-01
     -9.273  0.1906E-01  0.1906E-01  0.1550E-01  0.1550E-01
     -9.180  0.2010E-01  0.2010E-01  0.1739E-01  0.1739E-01
     -9.088  0.1355E-01  0.1355E-01  0.1891E-01  0.1891E-01
     -8.995  0.1464E-01  0.1464E-01  0.2024E-01  0.2024E-01
     -8.903  0.1759E-01  0.1760E-01  0.2167E-01  0.2167E-01
     -8.810  0.2964E-01  0.2967E-01  0.2371E-01  0.2372E-01
     -8.717  0.3811E-01  0.3809E-01  0.2739E-01  0.2739E-01
     -8.625  0.3321E-01  0.3322E-01  0.3063E-01  0.3063E-01
     -8.532  0.3805E-01  0.3806E-01  0.3397E-01  0.3397E-01
     -8.440  0.3559E-01  0.3561E-01  0.3736E-01  0.3736E-01
     -8.347  0.4363E-01  0.4363E-01  0.4125E-01  0.4125E-01
     -8.255  0.4760E-01  0.4760E-01  0.4551E-01  0.4552E-01
     -8.162  0.4852E-01  0.4851E-01  0.5016E-01  0.5016E-01
     -8.070  0.5294E-01  0.5294E-01  0.5483E-01  0.5484E-01
     -7.977  0.5481E-01  0.5481E-01  0.5982E-01  0.5983E-01
     -7.885  0.6830E-01  0.6829E-01  0.6556E-01  0.6556E-01
     -7.792  0.7166E-01  0.7167E-01  0.7193E-01  0.7194E-01
     -7.700  0.5605E-01  0.5596E-01  0.7919E-01  0.7919E-01
     -7.607  0.0000E+00  0.0000E+00  0.8081E-01  0.8081E-01
     -7.515  0.0000E+00  0.0000E+00  0.8081E-01  0.8081E-01
     -7.422  0.0000E+00  0.0000E+00  0.8081E-01  0.8081E-01
     -7.330  0.0000E+00  0.0000E+00  0.8081E-01  0.8081E-01
     -7.237  0.0000E+00  0.0000E+00  0.8081E-01  0.8081E-01
     -7.145  0.0000E+00  0.0000E+00  0.8081E-01  0.8081E-01
     -7.052  0.0000E+00  0.0000E+00  0.8081E-01  0.8081E-01
     -6.960  0.0000E+00  0.0000E+00  0.8081E-01  0.8081E-01
     -6.867  0.0000E+00  0.0000E+00  0.8081E-01  0.8081E-01
     -6.775  0.0000E+00  0.0000E+00  0.8081E-01  0.8081E-01
     -6.682  0.0000E+00  0.0000E+00  0.8081E-01  0.8081E-01
     -6.590  0.0000E+00  0.0000E+00  0.8081E-01  0.8081E-01
     -6.497  0.0000E+00  0.0000E+00  0.8081E-01  0.8081E-01
     -6.405  0.0000E+00  0.0000E+00  0.8081E-01  0.8081E-01
     -6.312  0.0000E+00  0.0000E+00  0.8081E-01  0.8081E-01
     -6.219  0.0000E+00  0.0000E+00  0.8081E-01  0.8081E-01
     -6.127  0.0000E+00  0.0000E+00  0.8081E-01  0.8081E-01
     -6.034  0.0000E+00  0.0000E+00  0.8081E-01  0.8081E-01
     -5.942  0.0000E+00  0.0000E+00  0.8081E-01  0.8081E-01
     -5.849  0.0000E+00  0.0000E+00  0.8081E-01  0.8081E-01
     -5.757  0.0000E+00  0.0000E+00  0.8081E-01  0.8081E-01
     -5.664  0.0000E+00  0.0000E+00  0.8081E-01  0.8081E-01
     -5.572  0.0000E+00  0.0000E+00  0.8081E-01  0.8081E-01
     -5.479  0.0000E+00  0.0000E+00  0.8081E-01  0.8081E-01
     -5.387  0.0000E+00  0.0000E+00  0.8081E-01  0.8081E-01
     -5.294  0.0000E+00  0.0000E+00  0.8081E-01  0.8081E-01
     -5.202  0.0000E+00  0.0000E+00  0.8081E-01  0.8081E-01
     -5.109  0.0000E+00  0.0000E+00  0.8081E-01  0.8081E-01
     -5.017  0.0000E+00  0.0000E+00  0.8081E-01  0.8081E-01
     -4.924  0.0000E+00  0.0000E+00  0.8081E-01  0.8081E-01
     -4.832  0.0000E+00  0.0000E+00  0.8081E-01  0.8081E-01
     -4.739  0.0000E+00  0.0000E+00  0.8081E-01  0.8081E-01
     -4.647  0.0000E+00  0.0000E+00  0.8081E-01  0.8081E-01
     -4.554  0.0000E+00  0.0000E+00  0.8081E-01  0.8081E-01
     -4.462  0.0000E+00  0.0000E+00  0.8081E-01  0.8081E-01
     -4.369  0.0000E+00  0.0000E+00  0.8081E-01  0.8081E-01
     -4.277  0.0000E+00  0.0000E+00  0.8081E-01  0.8081E-01
     -4.184  0.0000E+00  0.0000E+00  0.8081E-01  0.8081E-01
     -4.092  0.0000E+00  0.0000E+00  0.8081E-01  0.8081E-01
     -3.999  0.0000E+00  0.0000E+00  0.8081E-01  0.8081E-01
     -3.906  0.0000E+00  0.0000E+00  0.8081E-01  0.8081E-01
     -3.814  0.0000E+00  0.0000E+00  0.8081E-01  0.8081E-01
     -3.721  0.0000E+00  0.0000E+00  0.8081E-01  0.8081E-01
     -3.629  0.0000E+00  0.0000E+00  0.8081E-01  0.8081E-01
     -3.536  0.0000E+00  0.0000E+00  0.8081E-01  0.8081E-01
     -3.444  0.0000E+00  0.0000E+00  0.8081E-01  0.8081E-01
     -3.351  0.0000E+00  0.0000E+00  0.8081E-01  0.8081E-01
     -3.259  0.0000E+00  0.0000E+00  0.8081E-01  0.8081E-01
     -3.166  0.0000E+00  0.0000E+00  0.8081E-01  0.8081E-01
     -3.074  0.0000E+00  0.0000E+00  0.8081E-01  0.8081E-01
     -2.981  0.0000E+00  0.0000E+00  0.8081E-01  0.8081E-01
     -2.889  0.0000E+00  0.0000E+00  0.8081E-01  0.8081E-01
     -2.796  0.0000E+00  0.0000E+00  0.8081E-01  0.8081E-01
     -2.704  0.0000E+00  0.0000E+00  0.8081E-01  0.8081E-01
     -2.611  0.0000E+00  0.0000E+00  0.8081E-01  0.8081E-01
     -2.519  0.0000E+00  0.0000E+00  0.8081E-01  0.8081E-01
     -2.426  0.0000E+00  0.0000E+00  0.8081E-01  0.8081E-01
     -2.334  0.0000E+00  0.0000E+00  0.8081E-01  0.8081E-01
     -2.241  0.0000E+00  0.0000E+00  0.8081E-01  0.8081E-01
     -2.149  0.0000E+00  0.0000E+00  0.8081E-01  0.8081E-01
     -2.056  0.0000E+00  0.0000E+00  0.8081E-01  0.8081E-01
     -1.964  0.0000E+00  0.0000E+00  0.8081E-01  0.8081E-01
     -1.871  0.0000E+00  0.0000E+00  0.8081E-01  0.8081E-01
     -1.779  0.0000E+00  0.0000E+00  0.8081E-01  0.8081E-01
     -1.686  0.0000E+00  0.0000E+00  0.8081E-01  0.8081E-01
     -1.594  0.0000E+00  0.0000E+00  0.8081E-01  0.8081E-01
     -1.501  0.0000E+00  0.0000E+00  0.8081E-01  0.8081E-01
     -1.408  0.0000E+00  0.0000E+00  0.8081E-01  0.8081E-01
     -1.316  0.0000E+00  0.0000E+00  0.8081E-01  0.8081E-01
     -1.223  0.0000E+00  0.0000E+00  0.8081E-01  0.8081E-01
     -1.131  0.0000E+00  0.0000E+00  0.8081E-01  0.8081E-01
     -1.038  0.0000E+00  0.0000E+00  0.8081E-01  0.8081E-01
     -0.946  0.0000E+00  0.0000E+00  0.8081E-01  0.8081E-01
     -0.853  0.0000E+00  0.0000E+00  0.8081E-01  0.8081E-01
     -0.761  0.0000E+00  0.0000E+00  0.8081E-01  0.8081E-01
     -0.668  0.0000E+00  0.0000E+00  0.8081E-01  0.8081E-01
     -0.576  0.0000E+00  0.0000E+00  0.8081E-01  0.8081E-01
     -0.483  0.0000E+00  0.0000E+00  0.8081E-01  0.8081E-01
     -0.391  0.0000E+00  0.0000E+00  0.8081E-01  0.8081E-01
     -0.298  0.0000E+00  0.0000E+00  0.8081E-01  0.8081E-01
     -0.206  0.0000E+00  0.0000E+00  0.8081E-01  0.8081E-01
     -0.113  0.0000E+00  0.0000E+00  0.8081E-01  0.8081E-01
     -0.021  0.0000E+00  0.0000E+00  0.8081E-01  0.8081E-01
      0.072  0.0000E+00  0.0000E+00  0.8081E-01  0.8081E-01
      0.164  0.0000E+00  0.0000E+00  0.8081E-01  0.8081E-01
      0.257  0.0000E+00  0.0000E+00  0.8081E-01  0.8081E-01
      0.349  0.0000E+00  0.0000E+00  0.8081E-01  0.8081E-01
      0.442  0.0000E+00  0.0000E+00  0.8081E-01  0.8081E-01
      0.534  0.0000E+00  0.0000E+00  0.8081E-01  0.8081E-01
      0.627  0.0000E+00  0.0000E+00  0.8081E-01  0.8081E-01
      0.719  0.0000E+00  0.0000E+00  0.8081E-01  0.8081E-01
      0.812  0.0000E+00  0.0000E+00  0.8081E-01  0.8081E-01
      0.904  0.0000E+00  0.0000E+00  0.8081E-01  0.8081E-01
      0.997  0.0000E+00  0.0000E+00  0.8081E-01  0.8081E-01
      1.090  0.0000E+00  0.0000E+00  0.8081E-01  0.8081E-01
      1.182  0.3081E-04  0.3083E-04  0.8081E-01  0.8081E-01
      1.275  0.3325E-03  0.3325E-03  0.8082E-01  0.8082E-01
      1.367  0.9607E-03  0.9609E-03  0.8088E-01  0.8088E-01
      1.460  0.1952E-02  0.1952E-02  0.8101E-01  0.8101E-01
      1.552  0.4584E-02  0.4588E-02  0.8127E-01  0.8127E-01
      1.645  0.9353E-02  0.9355E-02  0.8193E-01  0.8193E-01
      1.737  0.1177E-01  0.1178E-01  0.8292E-01  0.8292E-01
      1.830  0.1480E-01  0.1480E-01  0.8414E-01  0.8414E-01
      1.922  0.2163E-01  0.2163E-01  0.8582E-01  0.8582E-01
      2.015  0.2632E-01  0.2632E-01  0.8809E-01  0.8809E-01
      2.107  0.2922E-01  0.2922E-01  0.9066E-01  0.9066E-01
      2.200  0.3340E-01  0.3340E-01  0.9354E-01  0.9354E-01
      2.292  0.3996E-01  0.3996E-01  0.9692E-01  0.9692E-01
      2.385  0.4179E-01  0.4178E-01  0.1006E+00  0.1006E+00
      2.477  0.3792E-01  0.3792E-01  0.1045E+00  0.1045E+00
      2.570  0.2796E-01  0.2795E-01  0.1075E+00  0.1075E+00
      2.662  0.2261E-01  0.2261E-01  0.1097E+00  0.1097E+00
      2.755  0.2618E-01  0.2618E-01  0.1120E+00  0.1120E+00
      2.847  0.2700E-01  0.2699E-01  0.1145E+00  0.1145E+00
      2.940  0.3035E-01  0.3035E-01  0.1172E+00  0.1172E+00
      3.032  0.2154E-01  0.2153E-01  0.1196E+00  0.1196E+00
      3.125  0.2094E-01  0.2094E-01  0.1215E+00  0.1215E+00
      3.217  0.2502E-01  0.2502E-01  0.1237E+00  0.1237E+00
      3.310  0.1897E-01  0.1897E-01  0.1256E+00  0.1256E+00
      3.403  0.2066E-01  0.2067E-01  0.1273E+00  0.1273E+00
      3.495  0.3018E-01  0.3019E-01  0.1298E+00  0.1298E+00
      3.588  0.2790E-01  0.2790E-01  0.1325E+00  0.1325E+00
      3.680  0.1993E-01  0.1992E-01  0.1348E+00  0.1348E+00
      3.773  0.1721E-01  0.1721E-01  0.1365E+00  0.1365E+00
      3.865  0.1595E-01  0.1595E-01  0.1380E+00  0.1380E+00
      3.958  0.1901E-01  0.1901E-01  0.1396E+00  0.1396E+00
      4.050  0.2595E-01  0.2595E-01  0.1417E+00  0.1417E+00
      4.143  0.2527E-01  0.2527E-01  0.1441E+00  0.1441E+00
      4.235  0.2288E-01  0.2288E-01  0.1462E+00  0.1462E+00
      4.328  0.1653E-01  0.1653E-01  0.1481E+00  0.1481E+00
      4.420  0.1481E-01  0.1481E-01  0.1495E+00  0.1495E+00
      4.513  0.1339E-01  0.1339E-01  0.1508E+00  0.1508E+00
      4.605  0.1250E-01  0.1250E-01  0.1520E+00  0.1520E+00
      4.698  0.1143E-01  0.1143E-01  0.1531E+00  0.1531E+00
      4.790  0.1086E-01  0.1085E-01  0.1541E+00  0.1541E+00
      4.883  0.1090E-01  0.1090E-01  0.1551E+00  0.1551E+00
      4.975  0.1231E-01  0.1232E-01  0.1562E+00  0.1562E+00
      5.068  0.1483E-01  0.1483E-01  0.1575E+00  0.1575E+00
      5.160  0.1577E-01  0.1577E-01  0.1589E+00  0.1589E+00
      5.253  0.1028E-01  0.1028E-01  0.1602E+00  0.1602E+00
      5.345  0.6238E-02  0.6234E-02  0.1609E+00  0.1609E+00
      5.438  0.6080E-02  0.6080E-02  0.1614E+00  0.1614E+00
      5.530  0.8258E-02  0.8258E-02  0.1621E+00  0.1621E+00
      5.623  0.9937E-02  0.9937E-02  0.1629E+00  0.1629E+00
      5.715  0.1519E-01  0.1520E-01  0.1640E+00  0.1640E+00
      5.808  0.1924E-01  0.1924E-01  0.1657E+00  0.1657E+00
      5.901  0.1786E-01  0.1786E-01  0.1674E+00  0.1674E+00
      5.993  0.1595E-01  0.1595E-01  0.1689E+00  0.1689E+00
      6.086  0.1469E-01  0.1469E-01  0.1703E+00  0.1703E+00
      6.178  0.1434E-01  0.1434E-01  0.1717E+00  0.1717E+00
      6.271  0.1486E-01  0.1486E-01  0.1730E+00  0.1730E+00
      6.363  0.1602E-01  0.1602E-01  0.1745E+00  0.1745E+00
      6.456  0.1594E-01  0.1594E-01  0.1760E+00  0.1760E+00
      6.548  0.1482E-01  0.1482E-01  0.1774E+00  0.1774E+00
      6.641  0.1411E-01  0.1411E-01  0.1787E+00  0.1787E+00
      6.733  0.1506E-01  0.1506E-01  0.1800E+00  0.1800E+00
      6.826  0.1712E-01  0.1712E-01  0.1815E+00  0.1815E+00
      6.918  0.1925E-01  0.1925E-01  0.1832E+00  0.1832E+00
      7.011  0.1978E-01  0.1978E-01  0.1850E+00  0.1850E+00
      7.103  0.2088E-01  0.2088E-01  0.1869E+00  0.1869E+00
      7.196  0.1896E-01  0.1896E-01  0.1888E+00  0.1888E+00
      7.288  0.1646E-01  0.1645E-01  0.1904E+00  0.1904E+00
      7.381  0.1621E-01  0.1621E-01  0.1919E+00  0.1919E+00
      7.473  0.1808E-01  0.1809E-01  0.1934E+00  0.1934E+00
      7.566  0.1897E-01  0.1897E-01  0.1952E+00  0.1952E+00
      7.658  0.1667E-01  0.1668E-01  0.1968E+00  0.1968E+00
      7.751  0.1568E-01  0.1568E-01  0.1983E+00  0.1983E+00
      7.843  0.2070E-01  0.2071E-01  0.1999E+00  0.1999E+00
      7.936  0.2188E-01  0.2188E-01  0.2020E+00  0.2020E+00
      8.028  0.1690E-01  0.1690E-01  0.2038E+00  0.2038E+00
      8.121  0.1522E-01  0.1522E-01  0.2052E+00  0.2052E+00
      8.213  0.1488E-01  0.1487E-01  0.2066E+00  0.2066E+00
      8.306  0.1461E-01  0.1461E-01  0.2080E+00  0.2080E+00
      8.399  0.1595E-01  0.1595E-01  0.2094E+00  0.2094E+00
      8.491  0.1602E-01  0.1602E-01  0.2109E+00  0.2109E+00
      8.584  0.1689E-01  0.1689E-01  0.2124E+00  0.2124E+00
      8.676  0.1767E-01  0.1767E-01  0.2140E+00  0.2140E+00
      8.769  0.1835E-01  0.1835E-01  0.2157E+00  0.2157E+00
      8.861  0.1981E-01  0.1981E-01  0.2174E+00  0.2174E+00
      8.954  0.2208E-01  0.2208E-01  0.2194E+00  0.2194E+00
      9.046  0.2220E-01  0.2220E-01  0.2214E+00  0.2214E+00
      9.139  0.2169E-01  0.2169E-01  0.2234E+00  0.2234E+00
      9.231  0.2121E-01  0.2121E-01  0.2254E+00  0.2254E+00
      9.324  0.2120E-01  0.2120E-01  0.2274E+00  0.2274E+00
      9.416  0.2152E-01  0.2152E-01  0.2293E+00  0.2293E+00
      9.509  0.2295E-01  0.2295E-01  0.2314E+00  0.2314E+00
      9.601  0.2288E-01  0.2288E-01  0.2335E+00  0.2335E+00
      9.694  0.2070E-01  0.2070E-01  0.2355E+00  0.2355E+00
      9.786  0.2089E-01  0.2090E-01  0.2375E+00  0.2375E+00
      9.879  0.2274E-01  0.2274E-01  0.2396E+00  0.2396E+00
      9.971  0.2122E-01  0.2122E-01  0.2417E+00  0.2417E+00
     10.064  0.1645E-01  0.1645E-01  0.2434E+00  0.2434E+00
     10.156  0.1647E-01  0.1647E-01  0.2449E+00  0.2449E+00
     10.249  0.1809E-01  0.1809E-01  0.2465E+00  0.2465E+00
     10.341  0.1815E-01  0.1815E-01  0.2482E+00  0.2482E+00
     10.434  0.1782E-01  0.1782E-01  0.2499E+00  0.2499E+00
     10.526  0.1747E-01  0.1747E-01  0.2515E+00  0.2515E+00
     10.619  0.1877E-01  0.1877E-01  0.2532E+00  0.2532E+00
     10.712  0.2137E-01  0.2137E-01  0.2551E+00  0.2551E+00
     10.804  0.1945E-01  0.1945E-01  0.2569E+00  0.2569E+00
     10.897  0.1894E-01  0.1894E-01  0.2586E+00  0.2586E+00
     10.989  0.1955E-01  0.1955E-01  0.2604E+00  0.2604E+00
     11.082  0.2279E-01  0.2280E-01  0.2623E+00  0.2623E+00
     11.174  0.2538E-01  0.2538E-01  0.2647E+00  0.2647E+00
     11.267  0.2326E-01  0.2326E-01  0.2669E+00  0.2669E+00
     11.359  0.2310E-01  0.2310E-01  0.2690E+00  0.2691E+00
     11.452  0.2488E-01  0.2488E-01  0.2712E+00  0.2712E+00
     11.544  0.2396E-01  0.2396E-01  0.2735E+00  0.2735E+00
     11.637  0.2069E-01  0.2069E-01  0.2756E+00  0.2756E+00
     11.729  0.1774E-01  0.1774E-01  0.2774E+00  0.2774E+00
     11.822  0.1552E-01  0.1552E-01  0.2789E+00  0.2789E+00
     11.914  0.1406E-01  0.1406E-01  0.2803E+00  0.2803E+00
     12.007  0.1362E-01  0.1362E-01  0.2816E+00  0.2816E+00
     12.099  0.1227E-01  0.1226E-01  0.2828E+00  0.2828E+00
     12.192  0.1378E-01  0.1377E-01  0.2840E+00  0.2840E+00
     12.284  0.1556E-01  0.1556E-01  0.2853E+00  0.2853E+00
     12.377  0.1995E-01  0.1996E-01  0.2869E+00  0.2869E+00
     12.469  0.2486E-01  0.2486E-01  0.2891E+00  0.2891E+00
     12.562  0.2353E-01  0.2353E-01  0.2914E+00  0.2914E+00
     12.654  0.3107E-01  0.3108E-01  0.2937E+00  0.2937E+00
     12.747  0.3026E-01  0.3026E-01  0.2965E+00  0.2965E+00
     12.839  0.2496E-01  0.2496E-01  0.2992E+00  0.2992E+00
     12.932  0.2172E-01  0.2171E-01  0.3013E+00  0.3013E+00
     13.024  0.1927E-01  0.1927E-01  0.3031E+00  0.3031E+00
     13.117  0.1775E-01  0.1775E-01  0.3048E+00  0.3048E+00
     13.210  0.1900E-01  0.1900E-01  0.3065E+00  0.3065E+00
     13.302  0.1964E-01  0.1963E-01  0.3084E+00  0.3084E+00
     13.395  0.1976E-01  0.1975E-01  0.3102E+00  0.3102E+00
     13.487  0.2081E-01  0.2081E-01  0.3120E+00  0.3120E+00
     13.580  0.2295E-01  0.2295E-01  0.3140E+00  0.3140E+00
     13.672  0.2384E-01  0.2384E-01  0.3162E+00  0.3162E+00
     13.765  0.2015E-01  0.2015E-01  0.3183E+00  0.3183E+00
     13.857  0.1423E-01  0.1423E-01  0.3198E+00  0.3198E+00
     13.950  0.1174E-01  0.1173E-01  0.3210E+00  0.3210E+00
     14.042  0.8664E-02  0.8662E-02  0.3220E+00  0.3220E+00
     14.135  0.6041E-02  0.6039E-02  0.3226E+00  0.3226E+00
     14.227  0.3146E-02  0.3144E-02  0.3231E+00  0.3231E+00
     14.320  0.3339E-03  0.3311E-03  0.3232E+00  0.3232E+00
     14.412  0.0000E+00  0.0000E+00  0.3232E+00  0.3232E+00
     14.505  0.0000E+00  0.0000E+00  0.3232E+00  0.3232E+00
     14.597  0.0000E+00  0.0000E+00  0.3232E+00  0.3232E+00
     14.690  0.0000E+00  0.0000E+00  0.3232E+00  0.3232E+00
     14.782  0.0000E+00  0.0000E+00  0.3232E+00  0.3232E+00
     14.875  0.0000E+00  0.0000E+00  0.3232E+00  0.3232E+00
     14.967  0.0000E+00  0.0000E+00  0.3232E+00  0.3232E+00
     15.060  0.0000E+00  0.0000E+00  0.3232E+00  0.3232E+00
     15.152  0.0000E+00  0.0000E+00  0.3232E+00  0.3232E+00
     15.245  0.0000E+00  0.0000E+00  0.3232E+00  0.3232E+00
     15.337  0.0000E+00  0.0000E+00  0.3232E+00  0.3232E+00
     15.430  0.0000E+00  0.0000E+00  0.3232E+00  0.3232E+00
     15.522  0.0000E+00  0.0000E+00  0.3232E+00  0.3232E+00
     15.615  0.0000E+00  0.0000E+00  0.3232E+00  0.3232E+00
     15.61500896    -12.14068997  301     -7.58412940      1.00000000
    -12.141  0.0000E+00  0.0000E+00  0.0000E+00  0.0000E+00  0.0000E+00  0.0000E+00  0.0000E+00  0.0000E+00  0.0000E+00  0.0000E+00  0.0000E+00  0.0000E+00  0.0000E+00  0.0000E+00  0.0000E+00  0.0000E+00  0.0000E+00  0.0000E+00
    -12.048  0.0000E+00  0.0000E+00  0.0000E+00  0.0000E+00  0.0000E+00  0.0000E+00  0.0000E+00  0.0000E+00  0.0000E+00  0.0000E+00  0.0000E+00  0.0000E+00  0.0000E+00  0.0000E+00  0.0000E+00  0.0000E+00  0.0000E+00  0.0000E+00
    -11.956  0.0000E+00  0.0000E+00  0.0000E+00  0.0000E+00  0.0000E+00  0.0000E+00  0.0000E+00  0.0000E+00  0.0000E+00  0.0000E+00  0.0000E+00  0.0000E+00  0.0000E+00  0.0000E+00  0.0000E+00  0.0000E+00  0.0000E+00  0.0000E+00
    -11.863  0.0000E+00  0.0000E+00  0.0000E+00  0.0000E+00  0.0000E+00  0.0000E+00  0.0000E+00  0.0000E+00  0.0000E+00  0.0000E+00  0.0000E+00  0.0000E+00  0.0000E+00  0.0000E+00  0.0000E+00  0.0000E+00  0.0000E+00  0.0000E+00
    -11.771  0.0000E+00  0.0000E+00  0.0000E+00  0.0000E+00  0.0000E+00  0.0000E+00  0.0000E+00  0.0000E+00  0.0000E+00  0.0000E+00  0.0000E+00  0.0000E+00  0.0000E+00  0.0000E+00  0.0000E+00  0.0000E+00  0.0000E+00  0.0000E+00
    -11.678  0.0000E+00  0.0000E+00  0.0000E+00  0.0000E+00  0.0000E+00  0.0000E+00  0.0000E+00  0.0000E+00  0.0000E+00  0.0000E+00  0.0000E+00  0.0000E+00  0.0000E+00  0.0000E+00  0.0000E+00  0.0000E+00  0.0000E+00  0.0000E+00
    -11.586  0.0000E+00  0.0000E+00  0.0000E+00  0.0000E+00  0.0000E+00  0.0000E+00  0.0000E+00  0.0000E+00  0.0000E+00  0.0000E+00  0.0000E+00  0.0000E+00  0.0000E+00  0.0000E+00  0.0000E+00  0.0000E+00  0.0000E+00  0.0000E+00
    -11.493  0.0000E+00  0.0000E+00  0.0000E+00  0.0000E+00  0.0000E+00  0.0000E+00  0.0000E+00  0.0000E+00  0.0000E+00  0.0000E+00  0.0000E+00  0.0000E+00  0.0000E+00  0.0000E+00  0.0000E+00  0.0000E+00  0.0000E+00  0.0000E+00
    -11.401  0.0000E+00  0.0000E+00  0.0000E+00  0.0000E+00  0.0000E+00  0.0000E+00  0.0000E+00  0.0000E+00  0.0000E+00  0.0000E+00  0.0000E+00  0.0000E+00  0.0000E+00  0.0000E+00  0.0000E+00  0.0000E+00  0.0000E+00  0.0000E+00
    -11.308  0.0000E+00  0.0000E+00  0.0000E+00  0.0000E+00  0.0000E+00  0.0000E+00  0.0000E+00  0.0000E+00  0.0000E+00  0.0000E+00  0.0000E+00  0.0000E+00  0.0000E+00  0.0000E+00  0.0000E+00  0.0000E+00  0.0000E+00  0.0000E+00
    -11.216  0.0000E+00  0.0000E+00  0.0000E+00  0.0000E+00  0.0000E+00  0.0000E+00  0.0000E+00  0.0000E+00  0.0000E+00  0.0000E+00  0.0000E+00  0.0000E+00  0.0000E+00  0.0000E+00  0.0000E+00  0.0000E+00  0.0000E+00  0.0000E+00
    -11.123  0.0000E+00  0.0000E+00  0.0000E+00  0.0000E+00  0.0000E+00  0.0000E+00  0.0000E+00  0.0000E+00  0.0000E+00  0.0000E+00  0.0000E+00  0.0000E+00  0.0000E+00  0.0000E+00  0.0000E+00  0.0000E+00  0.0000E+00  0.0000E+00
    -11.030  0.0000E+00  0.0000E+00  0.0000E+00  0.0000E+00  0.0000E+00  0.0000E+00  0.0000E+00  0.0000E+00  0.0000E+00  0.0000E+00  0.0000E+00  0.0000E+00  0.0000E+00  0.0000E+00  0.0000E+00  0.0000E+00  0.0000E+00  0.0000E+00
    -10.938  0.0000E+00  0.0000E+00  0.0000E+00  0.0000E+00  0.0000E+00  0.0000E+00  0.0000E+00  0.0000E+00  0.0000E+00  0.0000E+00  0.0000E+00  0.0000E+00  0.0000E+00  0.0000E+00  0.0000E+00  0.0000E+00  0.0000E+00  0.0000E+00
    -10.845  0.3495E-03  0.3513E-03  0.9621E-05  0.9670E-05  0.1338E-05  0.1345E-05  0.1090E-05  0.1096E-05  0.0000E+00  0.0000E+00  0.0000E+00  0.0000E+00  0.0000E+00  0.0000E+00  0.0000E+00  0.0000E+00  0.0000E+00  0.0000E+00
    -10.753  0.4932E-02  0.4939E-02  0.1358E-03  0.1359E-03  0.1888E-04  0.1891E-04  0.1539E-04  0.1541E-04  0.0000E+00  0.0000E+00  0.0000E+00  0.0000E+00  0.0000E+00  0.0000E+00  0.0000E+00  0.0000E+00  0.0000E+00  0.0000E+00
    -10.660  0.1194E-01  0.1195E-01  0.3329E-03  0.3331E-03  0.4655E-04  0.4657E-04  0.3796E-04  0.3798E-04  0.0000E+00  0.0000E+00  0.0000E+00  0.0000E+00  0.0000E+00  0.0000E+00  0.0000E+00  0.0000E+00  0.0000E+00  0.0000E+00
    -10.568  0.1456E-01  0.1457E-01  0.4123E-03  0.4123E-03  0.5674E-04  0.5674E-04  0.4721E-04  0.4721E-04  0.0000E+00  0.0000E+00  0.0000E+00  0.0000E+00  0.0000E+00  0.0000E+00  0.0000E+00  0.0000E+00  0.0000E+00  0.0000E+00
    -10.475  0.1585E-01  0.1585E-01  0.4544E-03  0.4545E-03  0.6069E-04  0.6070E-04  0.5233E-04  0.5233E-04  0.0000E+00  0.0000E+00  0.0000E+00  0.0000E+00  0.0000E+00  0.0000E+00  0.0000E+00  0.0000E+00  0.0000E+00  0.0000E+00
    -10.383  0.1876E-01  0.1876E-01  0.5436E-03  0.5437E-03  0.7124E-04  0.7124E-04  0.6294E-04  0.6295E-04  0.0000E+00  0.0000E+00  0.0000E+00  0.0000E+00  0.0000E+00  0.0000E+00  0.0000E+00  0.0000E+00  0.0000E+00  0.0000E+00
    -10.290  0.2187E-01  0.2187E-01  0.6414E-03  0.6414E-03  0.8233E-04  0.8234E-04  0.7446E-04  0.7447E-04  0.0000E+00  0.0000E+00  0.0000E+00  0.0000E+00  0.0000E+00  0.0000E+00  0.0000E+00  0.0000E+00  0.0000E+00  0.0000E+00
    -10.198  0.2916E-01  0.2917E-01  0.8642E-03  0.8644E-03  0.1100E-03  0.1100E-03  0.1028E-03  0.1028E-03  0.0000E+00  0.0000E+00  0.0000E+00  0.0000E+00  0.0000E+00  0.0000E+00  0.0000E+00  0.0000E+00  0.0000E+00  0.0000E+00
    -10.105  0.3205E-01  0.3205E-01  0.9668E-03  0.9667E-03  0.1231E-03  0.1231E-03  0.1145E-03  0.1145E-03  0.0000E+00  0.0000E+00  0.0000E+00  0.0000E+00  0.0000E+00  0.0000E+00  0.0000E+00  0.0000E+00  0.0000E+00  0.0000E+00
    -10.013  0.3218E-01  0.3218E-01  0.9924E-03  0.9924E-03  0.1297E-03  0.1297E-03  0.1146E-03  0.1146E-03  0.0000E+00  0.0000E+00  0.0000E+00  0.0000E+00  0.0000E+00  0.0000E+00  0.0000E+00  0.0000E+00  0.0000E+00  0.0000E+00
     -9.920  0.3585E-01  0.3585E-01  0.1121E-02  0.1121E-02  0.1510E-03  0.1510E-03  0.1281E-03  0.1281E-03  0.0000E+00  0.0000E+00  0.0000E+00  0.0000E+00  0.0000E+00  0.0000E+00  0.0000E+00  0.0000E+00  0.0000E+00  0.0000E+00
     -9.828  0.3931E-01  0.3931E-01  0.1244E-02  0.1244E-02  0.1717E-03  0.1717E-03  0.1412E-03  0.1412E-03  0.0000E+00  0.0000E+00  0.0000E+00  0.0000E+00  0.0000E+00  0.0000E+00  0.0000E+00  0.0000E+00  0.0000E+00  0.0000E+00
     -9.735  0.4072E-01  0.4072E-01  0.1302E-02  0.1302E-02  0.1846E-03  0.1846E-03  0.1477E-03  0.1477E-03  0.0000E+00  0.0000E+00  0.0000E+00  0.0000E+00  0.0000E+00  0.0000E+00  0.0000E+00  0.0000E+00  0.0000E+00  0.0000E+00
     -9.643  0.4481E-01  0.4482E-01  0.1438E-02  0.1438E-02  0.2134E-03  0.2134E-03  0.1643E-03  0.1643E-03  0.0000E+00  0.0000E+00  0.0000E+00  0.0000E+00  0.0000E+00  0.0000E+00  0.0000E+00  0.0000E+00  0.0000E+00  0.0000E+00
     -9.550  0.6483E-01  0.6485E-01  0.2062E-02  0.2062E-02  0.3181E-03  0.3181E-03  0.2553E-03  0.2553E-03  0.0000E+00  0.0000E+00  0.0000E+00  0.0000E+00  0.0000E+00  0.0000E+00  0.0000E+00  0.0000E+00  0.0000E+00  0.0000E+00
     -9.458  0.7254E-01  0.7253E-01  0.2312E-02  0.2312E-02  0.3560E-03  0.3559E-03  0.2963E-03  0.2963E-03  0.0000E+00  0.0000E+00  0.0000E+00  0.0000E+00  0.0000E+00  0.0000E+00  0.0000E+00  0.0000E+00  0.0000E+00  0.0000E+00
     -9.365  0.6433E-01  0.6433E-01  0.2071E-02  0.2071E-02  0.3198E-03  0.3197E-03  0.2597E-03  0.2597E-03  0.0000E+00  0.0000E+00  0.0000E+00  0.0000E+00  0.0000E+00  0.0000E+00  0.0000E+00  0.0000E+00  0.0000E+00  0.0000E+00
     -9.273  0.6372E-01  0.6372E-01  0.2053E-02  0.2053E-02  0.3157E-03  0.3157E-03  0.2669E-03  0.2669E-03  0.0000E+00  0.0000E+00  0.0000E+00  0.0000E+00  0.0000E+00  0.0000E+00  0.0000E+00  0.0000E+00  0.0000E+00  0.0000E+00
     -9.180  0.6481E-01  0.6479E-01  0.2118E-02  0.2117E-02  0.3228E-03  0.3227E-03  0.2742E-03  0.2742E-03  0.0000E+00  0.0000E+00  0.0000E+00  0.0000E+00  0.0000E+00  0.0000E+00  0.0000E+00  0.0000E+00  0.0000E+00  0.0000E+00
     -9.088  0.4359E-01  0.4359E-01  0.1468E-02  0.1467E-02  0.2200E-03  0.2200E-03  0.1811E-03  0.1810E-03  0.0000E+00  0.0000E+00  0.0000E+00  0.0000E+00  0.0000E+00  0.0000E+00  0.0000E+00  0.0000E+00  0.0000E+00  0.0000E+00
     -8.995  0.5013E-01  0.5014E-01  0.1718E-02  0.1718E-02  0.2596E-03  0.2596E-03  0.2047E-03  0.2047E-03  0.0000E+00  0.0000E+00  0.0000E+00  0.0000E+00  0.0000E+00  0.0000E+00  0.0000E+00  0.0000E+00  0.0000E+00  0.0000E+00
     -8.903  0.6783E-01  0.6786E-01  0.2373E-02  0.2374E-02  0.3513E-03  0.3514E-03  0.2731E-03  0.2732E-03  0.0000E+00  0.0000E+00  0.0000E+00  0.0000E+00  0.0000E+00  0.0000E+00  0.0000E+00  0.0000E+00  0.0000E+00  0.0000E+00
     -8.810  0.1216E+00  0.1217E+00  0.4298E-02  0.4301E-02  0.6283E-03  0.6288E-03  0.4879E-03  0.4883E-03  0.0000E+00  0.0000E+00  0.0000E+00  0.0000E+00  0.0000E+00  0.0000E+00  0.0000E+00  0.0000E+00  0.0000E+00  0.0000E+00
     -8.717  0.1478E+00  0.1477E+00  0.5211E-02  0.5208E-02  0.7527E-03  0.7522E-03  0.6139E-03  0.6136E-03  0.0000E+00  0.0000E+00  0.0000E+00  0.0000E+00  0.0000E+00  0.0000E+00  0.0000E+00  0.0000E+00  0.0000E+00  0.0000E+00
     -8.625  0.1278E+00  0.1278E+00  0.4489E-02  0.4489E-02  0.6684E-03  0.6684E-03  0.5331E-03  0.5331E-03  0.0000E+00  0.0000E+00  0.0000E+00  0.0000E+00  0.0000E+00  0.0000E+00  0.0000E+00  0.0000E+00  0.0000E+00  0.0000E+00
     -8.532  0.1258E+00  0.1258E+00  0.4498E-02  0.4498E-02  0.6725E-03  0.6726E-03  0.5257E-03  0.5257E-03  0.0000E+00  0.0000E+00  0.0000E+00  0.0000E+00  0.0000E+00  0.0000E+00  0.0000E+00  0.0000E+00  0.0000E+00  0.0000E+00
     -8.440  0.1171E+00  0.1172E+00  0.4291E-02  0.4295E-02  0.6173E-03  0.6179E-03  0.5036E-03  0.5041E-03  0.0000E+00  0.0000E+00  0.0000E+00  0.0000E+00  0.0000E+00  0.0000E+00  0.0000E+00  0.0000E+00  0.0000E+00  0.0000E+00
     -8.347  0.1769E+00  0.1770E+00  0.6519E-02  0.6519E-02  0.9182E-03  0.9183E-03  0.7527E-03  0.7528E-03  0.0000E+00  0.0000E+00  0.0000E+00  0.0000E+00  0.0000E+00  0.0000E+00  0.0000E+00  0.0000E+00  0.0000E+00  0.0000E+00
     -8.255  0.1986E+00  0.1986E+00  0.7430E-02  0.7430E-02  0.1022E-02  0.1022E-02  0.8320E-03  0.8320E-03  0.0000E+00  0.0000E+00  0.0000E+00  0.0000E+00  0.0000E+00  0.0000E+00  0.0000E+00  0.0000E+00  0.0000E+00  0.0000E+00
     -8.162  0.1915E+00  0.1915E+00  0.7229E-02  0.7227E-02  0.9640E-03  0.9637E-03  0.7945E-03  0.7943E-03  0.0000E+00  0.0000E+00  0.0000E+00  0.0000E+00  0.0000E+00  0.0000E+00  0.0000E+00  0.0000E+00  0.0000E+00  0.0000E+00
     -8.070  0.2129E+00  0.2129E+00  0.8020E-02  0.8019E-02  0.1058E-02  0.1057E-02  0.8994E-03  0.8993E-03  0.0000E+00  0.0000E+00  0.0000E+00  0.0000E+00  0.0000E+00  0.0000E+00  0.0000E+00  0.0000E+00  0.0000E+00  0.0000E+00
     -7.977  0.2148E+00  0.2148E+00  0.8084E-02  0.8083E-02  0.1080E-02  0.1080E-02  0.9321E-03  0.9319E-03  0.0000E+00  0.0000E+00  0.0000E+00  0.0000E+00  0.0000E+00  0.0000E+00  0.0000E+00  0.0000E+00  0.0000E+00  0.0000E+00
     -7.885  0.2451E+00  0.2450E+00  0.9386E-02  0.9381E-02  0.1278E-02  0.1278E-02  0.1073E-02  0.1072E-02  0.0000E+00  0.0000E+00  0.0000E+00  0.0000E+00  0.0000E+00  0.0000E+00  0.0000E+00  0.0000E+00  0.0000E+00  0.0000E+00
     -7.792  0.2995E+00  0.2996E+00  0.1162E-01  0.1162E-01  0.1567E-02  0.1567E-02  0.1351E-02  0.1352E-02  0.0000E+00  0.0000E+00  0.0000E+00  0.0000E+00  0.0000E+00  0.0000E+00  0.0000E+00  0.0000E+00  0.0000E+00  0.0000E+00
     -7.700  0.2695E+00  0.2691E+00  0.1067E-01  0.1065E-01  0.1365E-02  0.1362E-02  0.1106E-02  0.1105E-02  0.0000E+00  0.0000E+00  0.0000E+00  0.0000E+00  0.0000E+00  0.0000E+00  0.0000E+00  0.0000E+00  0.0000E+00  0.0000E+00
     -7.607  0.0000E+00  0.0000E+00  0.0000E+00  0.0000E+00  0.0000E+00  0.0000E+00  0.0000E+00  0.0000E+00  0.0000E+00  0.0000E+00  0.0000E+00  0.0000E+00  0.0000E+00  0.0000E+00  0.0000E+00  0.0000E+00  0.0000E+00  0.0000E+00
     -7.515  0.0000E+00  0.0000E+00  0.0000E+00  0.0000E+00  0.0000E+00  0.0000E+00  0.0000E+00  0.0000E+00  0.0000E+00  0.0000E+00  0.0000E+00  0.0000E+00  0.0000E+00  0.0000E+00  0.0000E+00  0.0000E+00  0.0000E+00  0.0000E+00