   16   16   99    2
  0.5723452E+01  0.4396277E-09  0.4113663E-09  0.5064160E-09  0.5000000E-15
  1.000000000000000E-004
  CAR 
 unknown system                          
     16     62     32
 
  0.3742002E-15  0.3742002E-15  0.3742002E-15  0.8333333E-02
    1      -10.878980    -10.879067   1.000000   1.000000
    2       -8.649282     -8.649373   1.000000   1.000000
    3       -8.613161     -8.613247   1.000000   1.000000
    4       -8.524833     -8.524928   1.000000   1.000000
    5       -8.401867     -8.401951   1.000000   1.000000
    6       -7.732581     -7.732645   1.000000   1.000000
    7       -7.688180     -7.688255   1.000000   1.000000
    8       -7.612683     -7.612755   1.000000   1.000000
    9        1.141554      1.141544   0.000000   0.000000
   10        1.808843      1.808864   0.000000   0.000000
   11        2.367099      2.367181   0.000000   0.000000
   12        3.361741      3.361820   0.000000   0.000000
   13        3.920823      3.920592   0.000000   0.000000
   14        4.010805      4.010593   0.000000   0.000000
   15        4.433829      4.433720   0.000000   0.000000
   16        5.212503      5.212280   0.000000   0.000000
   17        5.774241      5.774197   0.000000   0.000000
   18        6.187009      6.186877   0.000000   0.000000
   19        7.153848      7.153660   0.000000   0.000000
   20        7.416774      7.416565   0.000000   0.000000
   21        7.637891      7.637891   0.000000   0.000000
   22        8.395390      8.395633   0.000000   0.000000
   23        8.524916      8.524930   0.000000   0.000000
   24        9.164421      9.164255   0.000000   0.000000
   25       10.092131     10.091977   0.000000   0.000000
   26       10.550276     10.550058   0.000000   0.000000
   27       11.309346     11.309092   0.000000   0.000000
   28       11.590609     11.590423   0.000000   0.000000
   29       12.022142     12.022215   0.000000   0.000000
   30       12.345079     12.345412   0.000000   0.000000
   31       13.012903     13.013671   0.000000   0.000000
   32       13.282554     13.282420   0.000000   0.000000
 
  0.2000000E+00  0.3773159E-15  0.3747003E-15  0.1666667E-01
    1      -10.725786    -10.725873   1.000000   1.000000
    2       -8.916068     -8.916160   1.000000   1.000000
    3       -8.603466     -8.603557   1.000000   1.000000
    4       -8.570726     -8.570814   1.000000   1.000000
    5       -8.323143     -8.323229   1.000000   1.000000
    6       -7.719268     -7.719340   1.000000   1.000000
    7       -7.693849     -7.693916   1.000000   1.000000
    8       -7.649866     -7.649938   1.000000   1.000000
    9        1.339077      1.339055   0.000000   0.000000
   10        2.003379      2.003380   0.000000   0.000000
   11        2.335841      2.335864   0.000000   0.000000
   12        2.775288      2.775394   0.000000   0.000000
   13        3.677340      3.677166   0.000000   0.000000
   14        4.301391      4.301208   0.000000   0.000000
   15        4.651107      4.650929   0.000000   0.000000
   16        5.107773      5.107571   0.000000   0.000000
   17        5.898569      5.898528   0.000000   0.000000
   18        6.339203      6.339073   0.000000   0.000000
   19        6.708197      6.708125   0.000000   0.000000
   20        7.744258      7.744411   0.000000   0.000000
   21        7.934572      7.934416   0.000000   0.000000
   22        8.109051      8.109013   0.000000   0.000000
   23        9.138445      9.138406   0.000000   0.000000
   24        9.761731      9.761567   0.000000   0.000000
   25        9.980735      9.980706   0.000000   0.000000
   26       10.123327     10.123310   0.000000   0.000000
   27       11.009112     11.008917   0.000000   0.000000
   28       11.363537     11.363331   0.000000   0.000000
   29       12.330904     12.330949   0.000000   0.000000
   30       12.989507     12.989468   0.000000   0.000000
   31       13.099398     13.099321   0.000000   0.000000
   32       13.822823     13.822750   0.000000   0.000000
 
  0.4000000E+00  0.3752153E-15  0.3729655E-15  0.1666667E-01
    1      -10.285358    -10.285447   1.000000   1.000000
    2       -9.626578     -9.626666   1.000000   1.000000
    3       -8.537965     -8.538061   1.000000   1.000000
    4       -8.493863     -8.493954   1.000000   1.000000
    5       -8.091773     -8.091855   1.000000   1.000000
    6       -7.826182     -7.826257   1.000000   1.000000
    7       -7.764473     -7.764541   1.000000   1.000000
    8       -7.732216     -7.732282   1.000000   1.000000
    9        1.617595      1.617541   0.000000   0.000000
   10        1.869532      1.869472   0.000000   0.000000
   11        2.283336      2.283457   0.000000   0.000000
   12        2.895196      2.895138   0.000000   0.000000
   13        3.623433      3.623438   0.000000   0.000000
   14        4.326365      4.326190   0.000000   0.000000
   15        4.805765      4.805603   0.000000   0.000000
   16        4.945240      4.945065   0.000000   0.000000
   17        5.564416      5.564310   0.000000   0.000000
   18        6.549941      6.549897   0.000000   0.000000
   19        6.933967      6.933798   0.000000   0.000000
   20        7.357842      7.357841   0.000000   0.000000
   21        7.895259      7.895431   0.000000   0.000000
   22        8.348196      8.348185   0.000000   0.000000
   23        8.657415      8.657345   0.000000   0.000000
   24        9.805283      9.805126   0.000000   0.000000
   25       11.132888     11.132710   0.000000   0.000000
   26       11.742992     11.742879   0.000000   0.000000
   27       11.903465     11.903381   0.000000   0.000000
   28       12.341833     12.341750   0.000000   0.000000
   29       12.768165     12.768137   0.000000   0.000000
   30       13.056643     13.056511   0.000000   0.000000
   31       13.254959     13.254858   0.000000   0.000000
   32       13.386631     13.386584   0.000000   0.000000
 
  0.3735076E-15  0.1666667E+00  0.3747003E-15  0.1666667E-01
    1      -10.756040    -10.756127   1.000000   1.000000
    2       -8.660376     -8.660465   1.000000   1.000000
    3       -8.580998     -8.581089   1.000000   1.000000
    4       -8.550180     -8.550266   1.000000   1.000000
    5       -8.448635     -8.448722   1.000000   1.000000
    6       -7.779497     -7.779565   1.000000   1.000000
    7       -7.747158     -7.747233   1.000000   1.000000
    8       -7.680594     -7.680667   1.000000   1.000000
    9        1.520969      1.520954   0.000000   0.000000
   10        1.732568      1.732555   0.000000   0.000000
   11        2.416814      2.416878   0.000000   0.000000
   12        3.207678      3.207628   0.000000   0.000000
   13        3.358169      3.358039   0.000000   0.000000
   14        3.596440      3.596320   0.000000   0.000000
   15        4.027590      4.027464   0.000000   0.000000
   16        5.540174      5.540102   0.000000   0.000000
   17        6.216715      6.216606   0.000000   0.000000
   18        6.592239      6.592074   0.000000   0.000000
   19        7.181925      7.181766   0.000000   0.000000
   20        7.539528      7.539384   0.000000   0.000000
   21        7.952536      7.952520   0.000000   0.000000
   22        8.032110      8.032162   0.000000   0.000000
   23        8.967937      8.968094   0.000000   0.000000
   24        9.501825      9.501751   0.000000   0.000000
   25        9.587124      9.587103   0.000000   0.000000
   26       10.707807     10.707679   0.000000   0.000000
   27       11.722977     11.722754   0.000000   0.000000
   28       11.900213     11.900017   0.000000   0.000000
   29       12.332825     12.332877   0.000000   0.000000
   30       12.525158     12.525045   0.000000   0.000000
   31       12.910012     12.909919   0.000000   0.000000
   32       13.824509     13.824553   0.000000   0.000000
 
  0.2000000E+00  0.1666667E+00  0.3729655E-15  0.1666667E-01
    1      -10.604000    -10.604087   1.000000   1.000000
    2       -8.841092     -8.841183   1.000000   1.000000
    3       -8.570522     -8.570611   1.000000   1.000000
    4       -8.526727     -8.526811   1.000000   1.000000
    5       -8.505622     -8.505710   1.000000   1.000000
    6       -7.785778     -7.785851   1.000000   1.000000
    7       -7.764810     -7.764882   1.000000   1.000000
    8       -7.711173     -7.711245   1.000000   1.000000
    9        1.672597      1.672565   0.000000   0.000000
   10        1.969037      1.969009   0.000000   0.000000
   11        2.179679      2.179676   0.000000   0.000000
   12        2.624234      2.624287   0.000000   0.000000
   13        3.454646      3.454449   0.000000   0.000000
   14        3.865970      3.865873   0.000000   0.000000
   15        4.154025      4.153969   0.000000   0.000000
   16        5.486095      5.485936   0.000000   0.000000
   17        6.336840      6.336690   0.000000   0.000000
   18        6.537622      6.537577   0.000000   0.000000
   19        7.335589      7.335489   0.000000   0.000000
   20        7.579750      7.579886   0.000000   0.000000
   21        7.873866      7.873772   0.000000   0.000000
   22        8.535620      8.535433   0.000000   0.000000
   23        9.399104      9.398983   0.000000   0.000000
   24        9.812328      9.812467   0.000000   0.000000
   25       10.333735     10.333668   0.000000   0.000000
   26       10.487221     10.487244   0.000000   0.000000
   27       10.654877     10.654799   0.000000   0.000000
   28       11.313334     11.313159   0.000000   0.000000
   29       12.549117     12.548999   0.000000   0.000000
   30       12.672517     12.672485   0.000000   0.000000
   31       13.076637     13.076498   0.000000   0.000000
   32       13.594830     13.594707   0.000000   0.000000
 
  0.4000000E+00  0.1666667E+00  0.3712308E-15  0.1666667E-01
    1      -10.170175    -10.170263   1.000000   1.000000
    2       -9.527837     -9.527924   1.000000   1.000000
    3       -8.484512     -8.484607   1.000000   1.000000
    4       -8.439209     -8.439298   1.000000   1.000000
    5       -8.288814     -8.288896   1.000000   1.000000
    6       -7.968667     -7.968744   1.000000   1.000000
    7       -7.813439     -7.813510   1.000000   1.000000
    8       -7.775610     -7.775676   1.000000   1.000000
    9        1.543975      1.543907   0.000000   0.000000
   10        2.023850      2.023816   0.000000   0.000000
   11        2.061970      2.061983   0.000000   0.000000
   12        3.059620      3.059595   0.000000   0.000000
   13        3.323304      3.323186   0.000000   0.000000
   14        3.954781      3.954765   0.000000   0.000000
   15        4.326319      4.326263   0.000000   0.000000
   16        5.206069      5.206008   0.000000   0.000000
   17        5.938317      5.938172   0.000000   0.000000
   18        6.662488      6.662467   0.000000   0.000000
   19        7.312729      7.312540   0.000000   0.000000
   20        7.761138      7.760964   0.000000   0.000000
   21        8.641375      8.641411   0.000000   0.000000
   22        8.707477      8.707483   0.000000   0.000000
   23        9.261330      9.261408   0.000000   0.000000
   24       10.057660     10.057496   0.000000   0.000000
   25       10.821252     10.821191   0.000000   0.000000
   26       11.653830     11.653668   0.000000   0.000000
   27       11.838574     11.838517   0.000000   0.000000
   28       12.228301     12.228300   0.000000   0.000000
   29       12.391573     12.391527   0.000000   0.000000
   30       12.789260     12.789184   0.000000   0.000000
   31       13.145740     13.145587   0.000000   0.000000
   32       13.361317     13.361226   0.000000   0.000000
 
 -0.4000000E+00  0.1666667E+00  0.3712308E-15  0.1666667E-01
    1      -10.173494    -10.173582   1.000000   1.000000
    2       -9.525917     -9.526005   1.000000   1.000000
    3       -8.483764     -8.483859   1.000000   1.000000
    4       -8.442017     -8.442105   1.000000   1.000000
    5       -8.283565     -8.283648   1.000000   1.000000
    6       -7.972941     -7.973018   1.000000   1.000000
    7       -7.809059     -7.809130   1.000000   1.000000
    8       -7.779862     -7.779928   1.000000   1.000000
    9        1.560256      1.560182   0.000000   0.000000
   10        1.930445      1.930448   0.000000   0.000000
   11        2.257271      2.257221   0.000000   0.000000
   12        2.799712      2.799717   0.000000   0.000000
   13        3.567278      3.567237   0.000000   0.000000
   14        3.689833      3.689691   0.000000   0.000000
   15        4.476566      4.476555   0.000000   0.000000
   16        5.343186      5.343121   0.000000   0.000000
   17        5.677124      5.677050   0.000000   0.000000
   18        6.884652      6.884557   0.000000   0.000000
   19        7.093436      7.093283   0.000000   0.000000
   20        7.729529      7.729374   0.000000   0.000000
   21        8.620121      8.620196   0.000000   0.000000
   22        8.871580      8.871572   0.000000   0.000000
   23        9.310152      9.310175   0.000000   0.000000
   24       10.057523     10.057348   0.000000   0.000000
   25       11.272548     11.272354   0.000000   0.000000
   26       11.333315     11.333259   0.000000   0.000000
   27       11.902199     11.902166   0.000000   0.000000
   28       12.295841     12.295710   0.000000   0.000000
   29       12.431976     12.431898   0.000000   0.000000
   30       12.947980     12.947975   0.000000   0.000000
   31       13.022292     13.022220   0.000000   0.000000
   32       13.367978     13.367898   0.000000   0.000000
 
 -0.2000000E+00  0.1666667E+00  0.3729655E-15  0.1666667E-01
    1      -10.605667    -10.605754   1.000000   1.000000
    2       -8.840603     -8.840694   1.000000   1.000000
    3       -8.569950     -8.570038   1.000000   1.000000
    4       -8.522541     -8.522625   1.000000   1.000000
    5       -8.504853     -8.504941   1.000000   1.000000
    6       -7.779675     -7.779746   1.000000   1.000000
    7       -7.769280     -7.769353   1.000000   1.000000
    8       -7.712983     -7.713055   1.000000   1.000000
    9        1.701404      1.701370   0.000000   0.000000
   10        1.986123      1.986092   0.000000   0.000000
   11        2.162446      2.162422   0.000000   0.000000
   12        2.633556      2.633604   0.000000   0.000000
   13        3.372223      3.372137   0.000000   0.000000
   14        3.897730      3.897583   0.000000   0.000000
   15        4.110627      4.110529   0.000000   0.000000
   16        5.527588      5.527381   0.000000   0.000000
   17        6.142028      6.141964   0.000000   0.000000
   18        6.492168      6.492131   0.000000   0.000000
   19        7.372762      7.372744   0.000000   0.000000
   20        7.535839      7.535926   0.000000   0.000000
   21        8.013769      8.013642   0.000000   0.000000
   22        8.927147      8.926971   0.000000   0.000000
   23        9.309946      9.309826   0.000000   0.000000
   24        9.627929      9.627931   0.000000   0.000000
   25       10.309539     10.309514   0.000000   0.000000
   26       10.616827     10.616783   0.000000   0.000000
   27       10.904591     10.904529   0.000000   0.000000
   28       11.325081     11.324915   0.000000   0.000000
   29       12.621855     12.621856   0.000000   0.000000
   30       12.724871     12.724783   0.000000   0.000000
   31       12.972313     12.972218   0.000000   0.000000
   32       13.455580     13.455432   0.000000   0.000000
 
  0.3755676E-15  0.3333333E+00  0.3747003E-15  0.1666667E-01
    1      -10.399691    -10.399778   1.000000   1.000000
    2       -9.213187     -9.213274   1.000000   1.000000
    3       -8.406653     -8.406741   1.000000   1.000000
    4       -8.377911     -8.377993   1.000000   1.000000
    5       -8.303142     -8.303228   1.000000   1.000000
    6       -7.922793     -7.922869   1.000000   1.000000
    7       -7.902142     -7.902216   1.000000   1.000000
    8       -7.862382     -7.862458   1.000000   1.000000
    9        1.613507      1.613444   0.000000   0.000000
   10        2.260003      2.259889   0.000000   0.000000
   11        2.495460      2.495478   0.000000   0.000000
   12        2.788795      2.788678   0.000000   0.000000
   13        2.869680      2.869619   0.000000   0.000000
   14        3.107425      3.107351   0.000000   0.000000
   15        3.791098      3.791063   0.000000   0.000000
   16        5.545467      5.545331   0.000000   0.000000
   17        6.276630      6.276705   0.000000   0.000000
   18        6.379766      6.379796   0.000000   0.000000
   19        7.019160      7.019188   0.000000   0.000000
   20        7.921066      7.921137   0.000000   0.000000
   21        8.194249      8.194234   0.000000   0.000000
   22        8.807286      8.807100   0.000000   0.000000
   23        9.220544      9.220431   0.000000   0.000000
   24       10.191513     10.191336   0.000000   0.000000
   25       10.790431     10.790689   0.000000   0.000000
   26       11.119967     11.119802   0.000000   0.000000
   27       11.597345     11.597201   0.000000   0.000000
   28       12.361715     12.361496   0.000000   0.000000
   29       12.897370     12.897292   0.000000   0.000000
   30       13.314742     13.314705   0.000000   0.000000
   31       13.615369     13.615145   0.000000   0.000000
   32       13.990043     13.989924   0.000000   0.000000
 
  0.2000000E+00  0.3333333E+00  0.3677614E-15  0.1666667E-01
    1      -10.253894    -10.253980   1.000000   1.000000
    2       -9.098737     -9.098824   1.000000   1.000000
    3       -8.624361     -8.624447   1.000000   1.000000
    4       -8.375413     -8.375500   1.000000   1.000000
    5       -8.347881     -8.347963   1.000000   1.000000
    6       -8.006445     -8.006522   1.000000   1.000000
    7       -7.924703     -7.924781   1.000000   1.000000
    8       -7.874700     -7.874774   1.000000   1.000000
    9        1.927376      1.927272   0.000000   0.000000
   10        2.033959      2.033918   0.000000   0.000000
   11        2.322167      2.322127   0.000000   0.000000
   12        2.492940      2.492907   0.000000   0.000000
   13        2.792729      2.792590   0.000000   0.000000
   14        3.160998      3.160932   0.000000   0.000000
   15        3.937545      3.937576   0.000000   0.000000
   16        5.680058      5.680047   0.000000   0.000000
   17        6.634729      6.634661   0.000000   0.000000
   18        6.971689      6.971752   0.000000   0.000000
   19        7.253065      7.253031   0.000000   0.000000
   20        8.131838      8.131743   0.000000   0.000000
   21        8.568993      8.569043   0.000000   0.000000
   22        9.039685      9.039561   0.000000   0.000000
   23        9.487189      9.487113   0.000000   0.000000
   24        9.974406      9.974220   0.000000   0.000000
   25       10.891242     10.891330   0.000000   0.000000
   26       11.181394     11.181248   0.000000   0.000000
   27       11.524069     11.524092   0.000000   0.000000
   28       11.754571     11.754404   0.000000   0.000000
   29       12.362214     12.362140   0.000000   0.000000
   30       12.848566     12.848450   0.000000   0.000000
   31       13.540074     13.539919   0.000000   0.000000
   32       13.809972     13.809890   0.000000   0.000000
 
  0.4000000E+00  0.3333333E+00  0.3677614E-15  0.1666667E-01
    1       -9.841073     -9.841160   1.000000   1.000000
    2       -9.245130     -9.245217   1.000000   1.000000
    3       -8.776551     -8.776635   1.000000   1.000000
    4       -8.362760     -8.362843   1.000000   1.000000
    5       -8.327658     -8.327744   1.000000   1.000000
    6       -8.283322     -8.283407   1.000000   1.000000
    7       -7.944100     -7.944177   1.000000   1.000000
    8       -7.901519     -7.901590   1.000000   1.000000
    9        1.504817      1.504717   0.000000   0.000000
   10        1.851300      1.851288   0.000000   0.000000
   11        2.229544      2.229432   0.000000   0.000000
   12        2.599199      2.599081   0.000000   0.000000
   13        3.033597      3.033576   0.000000   0.000000
   14        3.779538      3.779574   0.000000   0.000000
   15        3.883887      3.883878   0.000000   0.000000
   16        5.162112      5.162207   0.000000   0.000000
   17        6.956149      6.956032   0.000000   0.000000
   18        7.300341      7.300258   0.000000   0.000000
   19        8.112100      8.111994   0.000000   0.000000
   20        8.655222      8.655060   0.000000   0.000000
   21        9.273644      9.273517   0.000000   0.000000
   22        9.557225      9.557050   0.000000   0.000000
   23       10.282206     10.282295   0.000000   0.000000
   24       10.536889     10.536869   0.000000   0.000000
   25       10.692817     10.693024   0.000000   0.000000
   26       11.111575     11.111484   0.000000   0.000000
   27       11.391219     11.391071   0.000000   0.000000
   28       11.987739     11.987579   0.000000   0.000000
   29       12.495160     12.495149   0.000000   0.000000
   30       12.732704     12.732657   0.000000   0.000000
   31       12.995745     12.995622   0.000000   0.000000
   32       13.089904     13.089768   0.000000   0.000000
 
 -0.4000000E+00  0.3333333E+00  0.3764350E-15  0.1666667E-01
    1       -9.845992     -9.846079   1.000000   1.000000
    2       -9.241158     -9.241245   1.000000   1.000000
    3       -8.768720     -8.768803   1.000000   1.000000
    4       -8.360434     -8.360518   1.000000   1.000000
    5       -8.326079     -8.326167   1.000000   1.000000
    6       -8.293536     -8.293619   1.000000   1.000000
    7       -7.939105     -7.939182   1.000000   1.000000
    8       -7.905120     -7.905191   1.000000   1.000000
    9        1.522467      1.522360   0.000000   0.000000
   10        1.828295      1.828282   0.000000   0.000000
   11        2.205125      2.204992   0.000000   0.000000
   12        2.691153      2.691079   0.000000   0.000000
   13        3.155567      3.155519   0.000000   0.000000
   14        3.393497      3.393508   0.000000   0.000000
   15        4.034350      4.034374   0.000000   0.000000
   16        5.225881      5.226000   0.000000   0.000000
   17        6.599124      6.599000   0.000000   0.000000
   18        7.829492      7.829403   0.000000   0.000000
   19        7.939265      7.939156   0.000000   0.000000
   20        8.326809      8.326687   0.000000   0.000000
   21        9.520881      9.520796   0.000000   0.000000
   22        9.811498      9.811321   0.000000   0.000000
   23       10.304881     10.304854   0.000000   0.000000
   24       10.503737     10.503816   0.000000   0.000000
   25       10.750689     10.750691   0.000000   0.000000
   26       11.096252     11.096231   0.000000   0.000000
   27       11.812226     11.812119   0.000000   0.000000
   28       11.973112     11.972951   0.000000   0.000000
   29       12.343678     12.343580   0.000000   0.000000
   30       12.535772     12.535654   0.000000   0.000000
   31       12.888153     12.888131   0.000000   0.000000
   32       13.086148     13.086090   0.000000   0.000000
 
 -0.2000000E+00  0.3333333E+00  0.3747003E-15  0.1666667E-01
    1      -10.256880    -10.256967   1.000000   1.000000
    2       -9.096619     -9.096706   1.000000   1.000000
    3       -8.619870     -8.619956   1.000000   1.000000
    4       -8.373412     -8.373500   1.000000   1.000000
    5       -8.348645     -8.348728   1.000000   1.000000
    6       -8.010125     -8.010201   1.000000   1.000000
    7       -7.920959     -7.921036   1.000000   1.000000
    8       -7.877036     -7.877110   1.000000   1.000000
    9        1.920120      1.920008   0.000000   0.000000
   10        2.023458      2.023379   0.000000   0.000000
   11        2.219693      2.219666   0.000000   0.000000
   12        2.612493      2.612418   0.000000   0.000000
   13        2.947920      2.947885   0.000000   0.000000
   14        3.226069      3.226002   0.000000   0.000000
   15        3.641351      3.641344   0.000000   0.000000
   16        5.675725      5.675615   0.000000   0.000000
   17        6.320264      6.320355   0.000000   0.000000
   18        6.877171      6.877267   0.000000   0.000000
   19        7.793231      7.793139   0.000000   0.000000
   20        7.932756      7.932692   0.000000   0.000000
   21        8.872664      8.872762   0.000000   0.000000
   22        9.083627      9.083460   0.000000   0.000000
   23        9.496722      9.496598   0.000000   0.000000
   24       10.046419     10.046240   0.000000   0.000000
   25       10.796465     10.796296   0.000000   0.000000
   26       11.133702     11.133804   0.000000   0.000000
   27       11.585509     11.585443   0.000000   0.000000
   28       11.804231     11.804077   0.000000   0.000000
   29       12.752692     12.752625   0.000000   0.000000
   30       12.901337     12.901213   0.000000   0.000000
   31       13.145789     13.145647   0.000000   0.000000
   32       13.861765     13.861772   0.000000   0.000000
 
  0.3748087E-15  0.5000000E+00  0.3747003E-15  0.8333333E-02
    1       -9.871063     -9.871151   1.000000   1.000000
    2       -9.837137     -9.837222   1.000000   1.000000
    3       -8.210061     -8.210145   1.000000   1.000000
    4       -8.184886     -8.184968   1.000000   1.000000
    5       -8.117679     -8.117759   1.000000   1.000000
    6       -8.112731     -8.112812   1.000000   1.000000
    7       -8.088254     -8.088335   1.000000   1.000000
    8       -8.053276     -8.053352   1.000000   1.000000
    9        1.724519      1.724404   0.000000   0.000000
   10        2.009447      2.009354   0.000000   0.000000
   11        2.566432      2.566347   0.000000   0.000000
   12        2.664681      2.664647   0.000000   0.000000
   13        2.890167      2.890114   0.000000   0.000000
   14        2.928766      2.928646   0.000000   0.000000
   15        4.532282      4.532259   0.000000   0.000000
   16        5.038889      5.038904   0.000000   0.000000
   17        5.762591      5.762577   0.000000   0.000000
   18        6.409944      6.409914   0.000000   0.000000
   19        6.871069      6.871192   0.000000   0.000000
   20        7.111034      7.111240   0.000000   0.000000
   21        9.225774      9.225707   0.000000   0.000000
   22        9.591327      9.591302   0.000000   0.000000
   23       10.005802     10.005649   0.000000   0.000000
   24       10.349483     10.349308   0.000000   0.000000
   25       11.201240     11.201070   0.000000   0.000000
   26       11.439461     11.439321   0.000000   0.000000
   27       12.222275     12.222225   0.000000   0.000000
   28       12.618949     12.618897   0.000000   0.000000
   29       13.020270     13.020266   0.000000   0.000000
   30       13.251727     13.251540   0.000000   0.000000
   31       13.334433     13.334247   0.000000   0.000000
   32       13.637979     13.637981   0.000000   0.000000
 
  0.2000000E+00  0.5000000E+00  0.3747003E-15  0.1666667E-01
    1       -9.737296     -9.737384   1.000000   1.000000
    2       -9.705219     -9.705304   1.000000   1.000000
    3       -8.325729     -8.325811   1.000000   1.000000
    4       -8.324282     -8.324363   1.000000   1.000000
    5       -8.178369     -8.178452   1.000000   1.000000
    6       -8.162846     -8.162928   1.000000   1.000000
    7       -8.111885     -8.111964   1.000000   1.000000
    8       -8.053041     -8.053118   1.000000   1.000000
    9        1.942561      1.942425   0.000000   0.000000
   10        2.153197      2.153093   0.000000   0.000000
   11        2.302708      2.302644   0.000000   0.000000
   12        2.403969      2.403895   0.000000   0.000000
   13        2.602335      2.602271   0.000000   0.000000
   14        2.843280      2.843252   0.000000   0.000000
   15        4.520326      4.520352   0.000000   0.000000
   16        4.958467      4.958554   0.000000   0.000000
   17        6.536148      6.536062   0.000000   0.000000
   18        7.188058      7.187996   0.000000   0.000000
   19        7.550309      7.550421   0.000000   0.000000
   20        7.818908      7.819088   0.000000   0.000000
   21        9.197022      9.196935   0.000000   0.000000
   22        9.591353      9.591322   0.000000   0.000000
   23        9.905030      9.904870   0.000000   0.000000
   24       10.261693     10.261496   0.000000   0.000000
   25       10.978262     10.978092   0.000000   0.000000
   26       11.524609     11.524481   0.000000   0.000000
   27       12.070717     12.070638   0.000000   0.000000
   28       12.535784     12.535663   0.000000   0.000000
   29       12.694407     12.694226   0.000000   0.000000
   30       12.857420     12.857234   0.000000   0.000000
   31       13.253083     13.253106   0.000000   0.000000
   32       13.490816     13.490834   0.000000   0.000000
 
  0.4000000E+00  0.5000000E+00  0.3747003E-15  0.1666667E-01
    1       -9.360341     -9.360428   1.000000   1.000000
    2       -9.334888     -9.334974   1.000000   1.000000
    3       -8.826149     -8.826233   1.000000   1.000000
    4       -8.807108     -8.807189   1.000000   1.000000
    5       -8.154072     -8.154155   1.000000   1.000000
    6       -8.144166     -8.144247   1.000000   1.000000
    7       -8.104548     -8.104629   1.000000   1.000000
    8       -8.048223     -8.048301   1.000000   1.000000
    9        1.617127      1.617002   0.000000   0.000000
   10        1.846873      1.846772   0.000000   0.000000
   11        2.021059      2.020983   0.000000   0.000000
   12        2.231912      2.231871   0.000000   0.000000
   13        3.195474      3.195431   0.000000   0.000000
   14        3.434227      3.434201   0.000000   0.000000
   15        4.258213      4.258255   0.000000   0.000000
   16        4.696469      4.696585   0.000000   0.000000