Automatically generated mesh
      62
Reciprocal lattice
    0.00000000000000    0.00000000000000    0.00000000000000             1
    0.20000000000000    0.00000000000000    0.00000000000000             2
    0.40000000000000    0.00000000000000    0.00000000000000             2
    0.00000000000000    0.16666666666667    0.00000000000000             2
    0.20000000000000    0.16666666666667    0.00000000000000             2
    0.40000000000000    0.16666666666667    0.00000000000000             2
   -0.40000000000000    0.16666666666667    0.00000000000000             2
   -0.20000000000000    0.16666666666667    0.00000000000000             2
    0.00000000000000    0.33333333333333    0.00000000000000             2
    0.20000000000000    0.33333333333333    0.00000000000000             2
    0.40000000000000    0.33333333333333    0.00000000000000             2
   -0.40000000000000    0.33333333333333    0.00000000000000             2
   -0.20000000000000    0.33333333333333    0.00000000000000             2
    0.00000000000000    0.50000000000000    0.00000000000000             1
    0.20000000000000    0.50000000000000    0.00000000000000             2
    0.40000000000000    0.50000000000000    0.00000000000000             2
    0.00000000000000    0.00000000000000    0.25000000000000             2
    0.20000000000000    0.00000000000000    0.25000000000000             2
    0.40000000000000    0.00000000000000    0.25000000000000             2
   -0.40000000000000    0.00000000000000    0.25000000000000             2
   -0.20000000000000    0.00000000000000    0.25000000000000             2
    0.00000000000000    0.16666666666667    0.25000000000000             2
    0.20000000000000    0.16666666666667    0.25000000000000             2
    0.40000000000000    0.16666666666667    0.25000000000000             2
   -0.40000000000000    0.16666666666667    0.25000000000000             2
   -0.20000000000000    0.16666666666667    0.25000000000000             2
    0.00000000000000    0.33333333333333    0.25000000000000             2
    0.20000000000000    0.33333333333333    0.25000000000000             2
    0.40000000000000    0.33333333333333    0.25000000000000             2
   -0.40000000000000    0.33333333333333    0.25000000000000             2
   -0.20000000000000    0.33333333333333    0.25000000000000             2
    0.00000000000000    0.50000000000000    0.25000000000000             2
    0.20000000000000    0.50000000000000    0.25000000000000             2
    0.40000000000000    0.50000000000000    0.25000000000000             2
   -0.40000000000000    0.50000000000000    0.25000000000000             2
   -0.20000000000000    0.50000000000000    0.25000000000000             2
    0.00000000000000   -0.33333333333333    0.25000000000000             2
    0.20000000000000   -0.33333333333333    0.25000000000000             2
    0.40000000000000   -0.33333333333333    0.25000000000000             2
   -0.40000000000000   -0.33333333333333    0.25000000000000             2
   -0.20000000000000   -0.33333333333333    0.25000000000000             2
    0.00000000000000   -0.16666666666667    0.25000000000000             2
    0.20000000000000   -0.16666666666667    0.25000000000000             2
    0.40000000000000   -0.16666666666667    0.25000000000000             2
   -0.40000000000000   -0.16666666666667    0.25000000000000             2
   -0.20000000000000   -0.16666666666667    0.25000000000000             2
    0.00000000000000    0.00000000000000    0.50000000000000             1
    0.20000000000000    0.00000000000000    0.50000000000000             2
    0.40000000000000    0.00000000000000    0.50000000000000             2
    0.00000000000000    0.16666666666667    0.50000000000000             2
    0.20000000000000    0.16666666666667    0.50000000000000             2
    0.40000000000000    0.16666666666667    0.50000000000000             2
   -0.40000000000000    0.16666666666667    0.50000000000000             2
   -0.20000000000000    0.16666666666667    0.50000000000000             2
    0.00000000000000    0.33333333333333    0.50000000000000             2
    0.20000000000000    0.33333333333333    0.50000000000000             2
    0.40000000000000    0.33333333333333    0.50000000000000             2
   -0.40000000000000    0.33333333333333    0.50000000000000             2
   -0.20000000000000    0.33333333333333    0.50000000000000             2
    0.00000000000000    0.50000000000000    0.50000000000000             1
    0.20000000000000    0.50000000000000    0.50000000000000             2
    0.40000000000000    0.50000000000000    0.50000000000000             2
Tetrahedra
       360    0.00138888888889
         2         2         4         5        22
         2         1         2         4        22
         2         1         2        17        22
         2         2         5        22        23
         2         2        18        22        23
         2         2        17        18        22
         2         3         5         6        23
         2         2         3         5        23
         2         2         3        18        23
         2         3         6        23        24
         2         3        19        23        24
         2         3        18        19        23
         2         3         6         7        24
         2         3         3         6        24
         2         3         3        19        24
         2         3         7        24        25
         2         3        20        24        25
         2         3        19        20        24
         2         2         7         8        25
         2         2         3         7        25
         2         2         3        20        25
         2         2         8        25        26
         2         2        21        25        26
         2         2        20        21        25
         2         1         4         8        26
         2         1         2         8        26
         2         1         2        21        26
         2         1         4        22        26
         2         1        17        22        26
         2         1        17        21        26
         2         5         9        10        27
         2         4         5         9        27
         2         4         5        22        27
         2         5        10        27        28
         2         5        23        27        28
         2         5        22        23        27
         2         6        10        11        28
         2         5         6        10        28
         2         5         6        23        28
         2         6        11        28        29
         2         6        24        28        29
         2         6        23        24        28
         2         7        11        12        29
         2         6         7        11        29
         2         6         7        24        29
         2         7        12        29        30
         2         7        25        29        30
         2         7        24        25        29
         2         8        12        13        30
         2         7         8        12        30
         2         7         8        25        30
         2         8        13        30        31
         2         8        26        30        31
         2         8        25        26        30
         2         4         9        13        31
         2         4         8        13        31
         2         4         8        26        31
         2         4         9        27        31
         2         4        22        27        31
         2         4        22        26        31
         2        10        14        15        32
         2         9        10        14        32
         2         9        10        27        32
         2        10        15        32        33
         2        10        28        32        33
         2        10        27        28        32
         2        11        15        16        33
         2        10        11        15        33
         2        10        11        28        33
         2        11        16        33        34
         2        11        29        33        34
         2        11        28        29        33
         2        12        16        16        34
         2        11        12        16        34
         2        11        12        29        34
         2        12        16        34        35
         2        12        30        34        35
         2        12        29        30        34
         2        13        15        16        35
         2        12        13        16        35
         2        12        13        30        35
         2        13        15        35        36
         2        13        31        35        36
         2        13        30        31        35
         2         9        14        15        36
         2         9        13        15        36
         2         9        13        31        36
         2         9        14        32        36
         2         9        27        32        36
         2         9        27        31        36
         2         9        13        15        37
         2         9        14        15        37
         2        14        15        32        37
         2        13        15        37        38
         2        15        33        37        38
         2        15        32        33        37
         2        12        13        16        38
         2        13        15        16        38
         2        15        16        33        38
         2        12        16        38        39
         2        16        34        38        39
         2        16        33        34        38
         2        11        12        16        39
         2        12        16        16        39
         2        16        16        34        39
         2        11        16        39        40
         2        16        35        39        40
         2        16        34        35        39
         2        10        11        15        40
         2        11        15        16        40
         2        15        16        35        40
         2        10        15        40        41
         2        15        36        40        41
         2        15        35        36        40
         2         9        10        14        41
         2        10        14        15        41
         2        14        15        36        41
         2         9        14        37        41
         2        14        32        37        41
         2        14        32        36        41
         2         4         8        13        42
         2         4         9        13        42
         2         9        13        37        42
         2         8        13        42        43
         2        13        38        42        43
         2        13        37        38        42
         2         7         8        12        43
         2         8        12        13        43
         2        12        13        38        43
         2         7        12        43        44
         2        12        39        43        44
         2        12        38        39        43
         2         6         7        11        44
         2         7        11        12        44
         2        11        12        39        44
         2         6        11        44        45
         2        11        40        44        45
         2        11        39        40        44
         2         5         6        10        45
         2         6        10        11        45
         2        10        11        40        45
         2         5        10        45        46
         2        10        41        45        46
         2        10        40        41        45
         2         4         5         9        46
         2         5         9        10        46
         2         9        10        41        46
         2         4         9        42        46
         2         9        37        42        46
         2         9        37        41        46
         2         1         2         8        17
         2         1         4         8        17
         2         4         8        17        42
         2         2         8        17        18
         2         8        17        18        43
         2         8        17        42        43
         2         2         3         7        18
         2         2         7         8        18
         2         7         8        18        43
         2         3         7        18        19
         2         7        18        19        44
         2         7        18        43        44
         2         3         3         6        19
         2         3         6         7        19
         2         6         7        19        44
         2         3         6        19        20
         2         6        19        20        45
         2         6        19        44        45
         2         2         3         5        20
         2         3         5         6        20
         2         5         6        20        45
         2         2         5        20        21
         2         5        20        21        46
         2         5        20        45        46
         2         1         2         4        21
         2         2         4         5        21
         2         4         5        21        46
         2         1         4        17        21
         2         4        17        21        42
         2         4        21        42        46
         2        18        22        23        50
         2        17        18        22        50
         2        17        18        47        50
         2        18        23        50        51
         2        18        48        50        51
         2        18        47        48        50
         2        19        23        24        51
         2        18        19        23        51
         2        18        19        48        51
         2        19        24        51        52
         2        19        49        51        52
         2        19        48        49        51
         2        20        24        25        52
         2        19        20        24        52
         2        19        20        49        52
         2        20        25        52        53
         2        20        49        52        53
         2        20        49        49        52
         2        21        25        26        53
         2        20        21        25        53
         2        20        21        49        53
         2        21        26        53        54
         2        21        48        53        54
         2        21        48        49        53
         2        17        22        26        54
         2        17        21        26        54
         2        17        21        48        54
         2        17        22        50        54
         2        17        47        50        54
         2        17        47        48        54
         2        23        27        28        55
         2        22        23        27        55
         2        22        23        50        55
         2        23        28        55        56
         2        23        51        55        56
         2        23        50        51        55
         2        24        28        29        56
         2        23        24        28        56
         2        23        24        51        56
         2        24        29        56        57
         2        24        52        56        57
         2        24        51        52        56
         2        25        29        30        57
         2        24        25        29        57
         2        24        25        52        57
         2        25        30        57        58
         2        25        53        57        58
         2        25        52        53        57
         2        26        30        31        58
         2        25        26        30        58
         2        25        26        53        58
         2        26        31        58        59
         2        26        54        58        59
         2        26        53        54        58
         2        22        27        31        59
         2        22        26        31        59
         2        22        26        54        59
         2        22        27        55        59
         2        22        50        55        59
         2        22        50        54        59
         2        28        32        33        60
         2        27        28        32        60
         2        27        28        55        60
         2        28        33        60        61
         2        28        56        60        61
         2        28        55        56        60
         2        29        33        34        61
         2        28        29        33        61
         2        28        29        56        61
         2        29        34        61        62
         2        29        57        61        62
         2        29        56        57        61
         2        30        34        35        62
         2        29        30        34        62
         2        29        30        57        62
         2        30        35        62        62
         2        30        58        62        62
         2        30        57        58        62
         2        31        35        36        62
         2        30        31        35        62
         2        30        31        58        62
         2        31        36        61        62
         2        31        59        61        62
         2        31        58        59        62
         2        27        32        36        61
         2        27        31        36        61
         2        27        31        59        61
         2        27        32        60        61
         2        27        55        60        61
         2        27        55        59        61
         2        33        37        38        55
         2        32        33        37        55
         2        32        33        55        60
         2        33        38        55        59
         2        33        55        59        61
         2        33        55        60        61
         2        34        38        39        59
         2        33        34        38        59
         2        33        34        59        61
         2        34        39        58        59
         2        34        58        59        62
         2        34        59        61        62
         2        35        39        40        58
         2        34        35        39        58
         2        34        35        58        62
         2        35        40        57        58
         2        35        57        58        62
         2        35        58        62        62
         2        36        40        41        57
         2        35        36        40        57
         2        35        36        57        62
         2        36        41        56        57
         2        36        56        57        61
         2        36        57        61        62
         2        32        37        41        56
         2        32        36        41        56
         2        32        36        56        61
         2        32        37        55        56
         2        32        55        56        60
         2        32        56        60        61
         2        38        42        43        50
         2        37        38        42        50
         2        37        38        50        55
         2        38        43        50        54
         2        38        50        54        59
         2        38        50        55        59
         2        39        43        44        54
         2        38        39        43        54
         2        38        39        54        59
         2        39        44        53        54
         2        39        53        54        58
         2        39        54        58        59
         2        40        44        45        53
         2        39        40        44        53
         2        39        40        53        58
         2        40        45        52        53
         2        40        52        53        57
         2        40        53        57        58
         2        41        45        46        52
         2        40        41        45        52
         2        40        41        52        57
         2        41        46        51        52
         2        41        51        52        56
         2        41        52        56        57
         2        37        42        46        51
         2        37        41        46        51
         2        37        41        51        56
         2        37        42        50        51
         2        37        50        51        55
         2        37        51        55        56
         2        17        18        43        47
         2        17        42        43        47
         2        42        43        47        50
         2        18        43        47        48
         2        43        47        48        54
         2        43        47        50        54
         2        18        19        44        48
         2        18        43        44        48
         2        43        44        48        54
         2        19        44        48        49
         2        44        48        49        53
         2        44        48        53        54
         2        19        20        45        49
         2        19        44        45        49
         2        44        45        49        53
         2        20        45        49        49
         2        45        49        49        52
         2        45        49        52        53
         2        20        21        46        49
         2        20        45        46        49
         2        45        46        49        52
         2        21        46        48        49
         2        46        48        49        51
         2        46        49        51        52
         2        17        21        42        48
         2        21        42        46        48
         2        42        46        48        51
         2        17        42        47        48
         2        42        47        48        50
         2        42        48        50        51
