 running on   32 total cores
 distrk:  each k-point on   32 cores,    1 groups
 distr:  one band on    8 cores,    4 groups
 using from now: INCAR     
 vasp.5.4.4.18Apr17-6-g9f103f2a35 (build Nov 01 2019 12:17:22) complex          
  
 POSCAR found type information on POSCAR  H 
 POSCAR found :  1 types and      15 ions
 LDA part: xc-table for Pade appr. of Perdew
 generate k-points for:   15    9    5
 POSCAR, INCAR and KPOINTS ok, starting setup
 FFT: planning ...
 WAVECAR not read
 entering main loop
       N       E                     dE             d eps       ncg     rms          rms(c)
DAV:   1    -0.182203814418E+02   -0.18220E+02   -0.37631E+03 10832   0.412E+02
DAV:   2    -0.492800011403E+02   -0.31060E+02   -0.29965E+02 14984   0.978E+01
DAV:   3    -0.504510209021E+02   -0.11710E+01   -0.11680E+01 12768   0.188E+01
DAV:   4    -0.504536764361E+02   -0.26555E-02   -0.26553E-02 14448   0.110E+00
DAV:   5    -0.504536878576E+02   -0.11421E-04   -0.11421E-04 11952   0.625E-02    0.112E+01
DAV:   6    -0.488441244209E+02    0.16096E+01   -0.46153E-01 11848   0.378E+00    0.638E+00
DAV:   7    -0.480694074595E+02    0.77472E+00   -0.11799E+00 13216   0.628E+00    0.580E-01
DAV:   8    -0.480872620493E+02   -0.17855E-01   -0.52275E-02 11648   0.143E+00    0.367E-01
DAV:   9    -0.480847709642E+02    0.24911E-02   -0.40967E-03 14520   0.424E-01    0.475E-02
DAV:  10    -0.480848295981E+02   -0.58634E-04   -0.25185E-04 12496   0.988E-02
   1 F= -.48084830E+02 E0= -.48084434E+02  d E =-.480848E+02
 curvature:   0.00 expect dE= 0.000E+00 dE for cont linesearch  0.000E+00
 trial: gam= 0.00000 g(F)=  0.496E-02 g(S)=  0.191E-02 ort = 0.000E+00 (trialstep = 0.100E+01)
 search vector abs. value=  0.687E-02
 bond charge predicted
       N       E                     dE             d eps       ncg     rms          rms(c)
DAV:   1    -0.480828642426E+02    0.19067E-02   -0.13473E-01 13488   0.243E+00    0.179E-01
DAV:   2    -0.480826714386E+02    0.19280E-03   -0.22304E-03 12016   0.306E-01    0.109E-01
DAV:   3    -0.480825311430E+02    0.14030E-03   -0.40635E-04 14640   0.137E-01    0.857E-03
DAV:   4    -0.480825360292E+02   -0.48862E-05   -0.57569E-05  5696   0.513E-02
   2 F= -.48082536E+02 E0= -.48082147E+02  d E =0.229357E-02
 trial-energy change:    0.002294  1 .order    0.002367   -0.006870    0.011604
 step:   0.3719(harm=  0.3719)  dis= 0.00171  next Energy=   -48.086107 (dE=-0.128E-02)
 bond charge predicted
       N       E                     dE             d eps       ncg     rms          rms(c)
DAV:   1    -0.480863755613E+02   -0.38444E-02   -0.51915E-02 13448   0.150E+00    0.120E-01
DAV:   2    -0.480862678962E+02    0.10767E-03   -0.84995E-04 12024   0.187E-01    0.725E-02
DAV:   3    -0.480862033243E+02    0.64572E-04   -0.18195E-04 12392   0.904E-02
   3 F= -.48086203E+02 E0= -.48085811E+02  d E =-.137373E-02
 curvature:  -0.19 expect dE=-0.386E-03 dE for cont linesearch -0.125E-06
 trial: gam= 0.31224 g(F)=  0.944E-03 g(S)=  0.113E-02 ort =-0.681E-04 (trialstep = 0.874E+00)
 search vector abs. value=  0.270E-02
 reached required accuracy - stopping structural energy minimisation
