       N       E                     dE             d eps       ncg     rms          rms(c)
DAV:   1     0.171095625628E+03    0.17110E+03   -0.13708E+04 16408   0.711E+02
DAV:   2    -0.442586872496E+02   -0.21535E+03   -0.20910E+03 20680   0.276E+02
DAV:   3    -0.586878742128E+02   -0.14429E+02   -0.14354E+02 25600   0.552E+01
DAV:   4    -0.595250749458E+02   -0.83720E+00   -0.83479E+00 27000   0.114E+01
DAV:   5    -0.595430821364E+02   -0.18007E-01   -0.18004E-01 25216   0.153E+00    0.397E+01
DAV:   6    -0.556865818773E+02    0.38565E+01   -0.10260E+01 24400   0.179E+01    0.174E+01
DAV:   7    -0.550207246688E+02    0.66586E+00   -0.25621E+00 23520   0.736E+00    0.102E+01
DAV:   8    -0.549735633947E+02    0.47161E-01   -0.71755E-01 26504   0.403E+00    0.211E+00
DAV:   9    -0.549624183866E+02    0.11145E-01   -0.91374E-02 21232   0.142E+00    0.454E-01
DAV:  10    -0.549628417147E+02   -0.42333E-03   -0.11583E-02 21184   0.462E-01    0.228E-01
DAV:  11    -0.549630410436E+02   -0.19933E-03   -0.10778E-03 23248   0.189E-01    0.141E-01
DAV:  12    -0.549633173119E+02   -0.27627E-03   -0.32523E-04 18136   0.901E-02    0.633E-02
DAV:  13    -0.549633192841E+02   -0.19722E-05   -0.51412E-05 14456   0.449E-02
   1 F= -.54963319E+02 E0= -.54963274E+02  d E =-.549633E+02
       N       E                     dE             d eps       ncg     rms          rms(c)
DAV:   1    -0.549658599117E+02   -0.25426E-02   -0.93303E-02 16776   0.208E+00    0.369E-01
DAV:   2    -0.549654787858E+02    0.38113E-03   -0.10671E-02 22760   0.623E-01    0.135E-01
DAV:   3    -0.549651924208E+02    0.28636E-03   -0.73399E-04 22880   0.158E-01    0.762E-02
DAV:   4    -0.549651016873E+02    0.90733E-04   -0.25752E-04 17896   0.940E-02
   2 F= -.54965102E+02 E0= -.54965060E+02  d E =-.178240E-02
       N       E                     dE             d eps       ncg     rms          rms(c)
DAV:   1    -0.549666649498E+02   -0.14725E-02   -0.11968E-01 16392   0.237E+00    0.410E-01
DAV:   2    -0.549660572930E+02    0.60766E-03   -0.13485E-02 22672   0.704E-01    0.147E-01
DAV:   3    -0.549656745995E+02    0.38269E-03   -0.94319E-04 23656   0.178E-01    0.928E-02
DAV:   4    -0.549655695323E+02    0.10507E-03   -0.41933E-04 22432   0.111E-01    0.932E-02
DAV:   5    -0.549655802693E+02   -0.10737E-04   -0.39307E-05 11240   0.357E-02
   3 F= -.54965580E+02 E0= -.54965543E+02  d E =-.226099E-02
       N       E                     dE             d eps       ncg     rms          rms(c)
DAV:   1    -0.549666020607E+02   -0.10325E-02   -0.29851E-02 16504   0.117E+00    0.167E-01
DAV:   2    -0.549665145578E+02    0.87503E-04   -0.30961E-03 21608   0.326E-01    0.709E-02
DAV:   3    -0.549664413962E+02    0.73162E-04   -0.16315E-04 14528   0.772E-02
   4 F= -.54966441E+02 E0= -.54966405E+02  d E =-.861127E-03
       N       E                     dE             d eps       ncg     rms          rms(c)
DAV:   1    -0.549688654636E+02   -0.23509E-02   -0.26867E-01 16648   0.350E+00    0.484E-01
DAV:   2    -0.549681679978E+02    0.69747E-03   -0.27797E-02 21736   0.975E-01    0.214E-01
DAV:   3    -0.549675453393E+02    0.62266E-03   -0.16140E-03 23400   0.230E-01    0.119E-01
DAV:   4    -0.549673341263E+02    0.21121E-03   -0.66449E-04 26144   0.147E-01    0.105E-01
DAV:   5    -0.549673481473E+02   -0.14021E-04   -0.51717E-05 12400   0.396E-02
   5 F= -.54967348E+02 E0= -.54967315E+02  d E =-.176788E-02
       N       E                     dE             d eps       ncg     rms          rms(c)
DAV:   1    -0.549678410457E+02   -0.50692E-03   -0.19321E-02 18288   0.101E+00    0.993E-02
DAV:   2    -0.549679882325E+02   -0.14719E-03   -0.21875E-03 19600   0.253E-01    0.434E-02
DAV:   3    -0.549679753624E+02    0.12870E-04   -0.54256E-05 13088   0.449E-02
   6 F= -.54967975E+02 E0= -.54967941E+02  d E =-.627215E-03
       N       E                     dE             d eps       ncg     rms          rms(c)
DAV:   1    -0.549677865865E+02    0.20165E-03   -0.82951E-02 18288   0.209E+00    0.205E-01
DAV:   2    -0.549684082432E+02   -0.62166E-03   -0.92916E-03 19312   0.520E-01    0.891E-02
DAV:   3    -0.549683628601E+02    0.45383E-04   -0.26020E-04 20800   0.873E-02
   7 F= -.54968363E+02 E0= -.54968324E+02  d E =-.101471E-02
       N       E                     dE             d eps       ncg     rms          rms(c)
DAV:   1    -0.549687470003E+02   -0.33876E-03   -0.10168E-02 16424   0.658E-01    0.109E-01
DAV:   2    -0.549687237511E+02    0.23249E-04   -0.87741E-04 22296   0.191E-01
   8 F= -.54968724E+02 E0= -.54968683E+02  d E =-.360891E-03
       N       E                     dE             d eps       ncg     rms          rms(c)
DAV:   1    -0.549695513418E+02   -0.80434E-03   -0.95755E-02 16256   0.201E+00    0.326E-01
DAV:   2    -0.549692751591E+02    0.27618E-03   -0.84715E-03 22104   0.594E-01    0.118E-01
DAV:   3    -0.549690790916E+02    0.19607E-03   -0.65618E-04 22984   0.137E-01    0.927E-02
DAV:   4    -0.549690380936E+02    0.40998E-04   -0.20534E-04 18168   0.773E-02
   9 F= -.54969038E+02 E0= -.54968995E+02  d E =-.675233E-03
