   20   20   99    2
  0.7301094E+01  0.4664581E-09  0.6078061E-09  0.5987302E-09  0.5000000E-15
  1.000000000000000E-004
  CAR 
 unknown system                          
     39     42     48
 
  0.3742002E-15  0.3742002E-15  0.3742002E-15  0.1250000E-01
    1      -35.794643    -35.794643   1.000000   1.000000
    2      -30.917825    -30.917825   1.000000   1.000000
    3      -30.808787    -30.808787   1.000000   1.000000
    4      -30.566977    -30.566977   1.000000   1.000000
    5      -17.921147    -17.921147   1.000000   1.000000
    6      -17.798323    -17.798323   1.000000   1.000000
    7      -17.716526    -17.716526   1.000000   1.000000
    8       -9.756204     -9.756204   1.000000   1.000000
    9       -8.130228     -8.130228   1.000000   1.000000
   10       -7.778259     -7.778259   1.000000   1.000000
   11       -7.087980     -7.087980   1.000000   1.000000
   12       -6.934139     -6.934139   1.000000   1.000000
   13       -6.249732     -6.249732   1.000000   1.000000
   14       -5.152642     -5.152642   1.000000   1.000000
   15       -3.255291     -3.255291   1.000000   1.000000
   16       -3.107422     -3.107422   1.000000   1.000000
   17       -3.034049     -3.034049   1.000000   1.000000
   18       -2.761587     -2.761587   1.000000   1.000000
   19       -2.402378     -2.402378   1.000000   1.000000
   20        0.237221      0.237221   0.000000   0.000000
   21        2.328053      2.328053   0.000000   0.000000
   22        2.829594      2.829594   0.000000   0.000000
   23        3.090421      3.090421   0.000000   0.000000
   24        3.254503      3.254503   0.000000   0.000000
   25        3.437657      3.437657   0.000000   0.000000
   26        3.609248      3.609248   0.000000   0.000000
   27        4.132809      4.132809   0.000000   0.000000
   28        4.471883      4.471883   0.000000   0.000000
   29        4.622850      4.622850   0.000000   0.000000
   30        4.848118      4.848118   0.000000   0.000000
   31        5.181198      5.181198   0.000000   0.000000
   32        5.727626      5.727626   0.000000   0.000000
   33        6.179692      6.179692   0.000000   0.000000
   34        6.694785      6.694785   0.000000   0.000000
   35        6.855815      6.855815   0.000000   0.000000
   36        6.920906      6.920906   0.000000   0.000000
   37        7.384195      7.384195   0.000000   0.000000
   38        7.989142      7.989142   0.000000   0.000000
   39        8.541902      8.541902   0.000000   0.000000
   40        8.938468      8.938468   0.000000   0.000000
   41        9.302840      9.302840   0.000000   0.000000
   42        9.636948      9.636948   0.000000   0.000000
   43       10.199496     10.199496   0.000000   0.000000
   44       10.862068     10.862068   0.000000   0.000000
   45       11.226091     11.226091   0.000000   0.000000
   46       11.427622     11.427622   0.000000   0.000000
   47       12.034295     12.034295   0.000000   0.000000
   48       12.399926     12.399926   0.000000   0.000000
 
  0.2000000E+00  0.3755676E-15  0.4163336E-15  0.2500000E-01
    1      -35.794506    -35.794506   1.000000   1.000000
    2      -30.917966    -30.917966   1.000000   1.000000
    3      -30.808798    -30.808798   1.000000   1.000000
    4      -30.567414    -30.567414   1.000000   1.000000
    5      -17.920091    -17.920091   1.000000   1.000000
    6      -17.807072    -17.807072   1.000000   1.000000
    7      -17.716520    -17.716520   1.000000   1.000000
    8       -9.626535     -9.626535   1.000000   1.000000
    9       -8.216539     -8.216539   1.000000   1.000000
   10       -7.742105     -7.742105   1.000000   1.000000
   11       -7.134964     -7.134964   1.000000   1.000000
   12       -6.944228     -6.944228   1.000000   1.000000
   13       -6.280733     -6.280733   1.000000   1.000000
   14       -5.081703     -5.081703   1.000000   1.000000
   15       -3.318052     -3.318052   1.000000   1.000000
   16       -3.180241     -3.180241   1.000000   1.000000
   17       -2.990741     -2.990741   1.000000   1.000000
   18       -2.643071     -2.643071   1.000000   1.000000
   19       -2.503175     -2.503175   1.000000   1.000000
   20        0.019070      0.019070   0.129931   0.129931
   21        2.218073      2.218073   0.000000   0.000000
   22        2.859718      2.859718   0.000000   0.000000
   23        2.971585      2.971585   0.000000   0.000000
   24        3.149062      3.149062   0.000000   0.000000
   25        3.272116      3.272116   0.000000   0.000000
   26        3.792889      3.792889   0.000000   0.000000
   27        4.231149      4.231149   0.000000   0.000000
   28        4.474483      4.474483   0.000000   0.000000
   29        4.569377      4.569377   0.000000   0.000000
   30        5.226796      5.226796   0.000000   0.000000
   31        5.450060      5.450060   0.000000   0.000000
   32        5.930201      5.930201   0.000000   0.000000
   33        6.240093      6.240093   0.000000   0.000000
   34        6.585580      6.585580   0.000000   0.000000
   35        6.906728      6.906728   0.000000   0.000000
   36        7.281901      7.281900   0.000000   0.000000
   37        7.600407      7.600407   0.000000   0.000000
   38        7.872849      7.872849   0.000000   0.000000
   39        8.339338      8.339338   0.000000   0.000000
   40        8.573313      8.573313   0.000000   0.000000
   41        9.062218      9.062218   0.000000   0.000000
   42        9.846808      9.846808   0.000000   0.000000
   43       10.311352     10.311352   0.000000   0.000000
   44       10.954033     10.954033   0.000000   0.000000
   45       11.147421     11.147421   0.000000   0.000000
   46       11.465412     11.465412   0.000000   0.000000
   47       12.007557     12.007557   0.000000   0.000000
   48       12.433460     12.433460   0.000000   0.000000
 
  0.4000000E+00  0.3963843E-15  0.3885781E-15  0.2500000E-01
    1      -35.794283    -35.794283   1.000000   1.000000
    2      -30.918192    -30.918192   1.000000   1.000000
    3      -30.808816    -30.808816   1.000000   1.000000
    4      -30.568117    -30.568117   1.000000   1.000000
    5      -17.918412    -17.918412   1.000000   1.000000
    6      -17.821303    -17.821303   1.000000   1.000000
    7      -17.716292    -17.716292   1.000000   1.000000
    8       -9.355025     -9.355025   1.000000   1.000000
    9       -8.403563     -8.403563   1.000000   1.000000
   10       -7.701684     -7.701684   1.000000   1.000000
   11       -7.242296     -7.242296   1.000000   1.000000
   12       -6.971579     -6.971579   1.000000   1.000000
   13       -6.284691     -6.284691   1.000000   1.000000
   14       -4.899323     -4.899323   1.000000   1.000000
   15       -3.532397     -3.532397   1.000000   1.000000
   16       -3.135687     -3.135687   1.000000   1.000000
   17       -3.050253     -3.050253   1.000000   1.000000
   18       -2.697331     -2.697331   1.000000   1.000000
   19       -2.377721     -2.377721   1.000000   1.000000
   20       -0.327876     -0.327876   1.037727   1.037727
   21        2.043353      2.043353   0.000000   0.000000
   22        2.560384      2.560384   0.000000   0.000000
   23        2.790614      2.790614   0.000000   0.000000
   24        3.106373      3.106373   0.000000   0.000000
   25        3.394299      3.394299   0.000000   0.000000
   26        3.848398      3.848398   0.000000   0.000000
   27        4.458178      4.458178   0.000000   0.000000
   28        4.648001      4.648001   0.000000   0.000000
   29        4.857760      4.857760   0.000000   0.000000
   30        5.486138      5.486138   0.000000   0.000000
   31        5.757930      5.757930   0.000000   0.000000
   32        6.064006      6.064006   0.000000   0.000000
   33        6.269777      6.269777   0.000000   0.000000
   34        6.622451      6.622451   0.000000   0.000000
   35        7.034554      7.034554   0.000000   0.000000
   36        7.424524      7.424524   0.000000   0.000000
   37        7.725565      7.725565   0.000000   0.000000
   38        8.013877      8.013877   0.000000   0.000000
   39        8.244361      8.244361   0.000000   0.000000
   40        8.552467      8.552467   0.000000   0.000000
   41        9.089620      9.089620   0.000000   0.000000
   42        9.834997      9.834997   0.000000   0.000000
   43       10.175195     10.175195   0.000000   0.000000
   44       10.815935     10.815935   0.000000   0.000000
   45       11.303896     11.303896   0.000000   0.000000
   46       11.561680     11.561680   0.000000   0.000000
   47       11.884672     11.884672   0.000000   0.000000
   48       12.394548     12.394548   0.000000   0.000000
 
  0.3726945E-15  0.2500000E+00  0.3608225E-15  0.2500000E-01
    1      -35.794642    -35.794642   1.000000   1.000000
    2      -30.917832    -30.917832   1.000000   1.000000
    3      -30.808787    -30.808787   1.000000   1.000000
    4      -30.566981    -30.566981   1.000000   1.000000
    5      -17.921860    -17.921860   1.000000   1.000000
    6      -17.798310    -17.798310   1.000000   1.000000
    7      -17.716581    -17.716581   1.000000   1.000000
    8       -9.661466     -9.661466   1.000000   1.000000
    9       -8.302476     -8.302476   1.000000   1.000000
   10       -7.796100     -7.796100   1.000000   1.000000
   11       -7.041291     -7.041291   1.000000   1.000000
   12       -6.941225     -6.941225   1.000000   1.000000
   13       -6.253434     -6.253434   1.000000   1.000000
   14       -5.126707     -5.126707   1.000000   1.000000
   15       -3.218218     -3.218218   1.000000   1.000000
   16       -3.062068     -3.062068   1.000000   1.000000
   17       -3.003209     -3.003209   1.000000   1.000000
   18       -2.750383     -2.750383   1.000000   1.000000
   19       -2.437301     -2.437301   1.000000   1.000000
   20        0.262322      0.262322   0.000000   0.000000
   21        2.263042      2.263042   0.000000   0.000000
   22        2.570301      2.570301   0.000000   0.000000
   23        2.943750      2.943750   0.000000   0.000000
   24        3.183805      3.183805   0.000000   0.000000
   25        3.683299      3.683299   0.000000   0.000000
   26        3.883203      3.883203   0.000000   0.000000
   27        4.157118      4.157118   0.000000   0.000000
   28        4.477331      4.477331   0.000000   0.000000
   29        4.649718      4.649718   0.000000   0.000000
   30        4.851088      4.851088   0.000000   0.000000
   31        5.405311      5.405311   0.000000   0.000000
   32        5.703444      5.703444   0.000000   0.000000
   33        5.994176      5.994176   0.000000   0.000000
   34        6.400823      6.400823   0.000000   0.000000
   35        6.588605      6.588605   0.000000   0.000000
   36        7.054298      7.054298   0.000000   0.000000
   37        7.445391      7.445391   0.000000   0.000000
   38        8.104265      8.104265   0.000000   0.000000
   39        8.493365      8.493365   0.000000   0.000000
   40        8.931381      8.931381   0.000000   0.000000
   41        9.326982      9.326982   0.000000   0.000000
   42        9.726905      9.726905   0.000000   0.000000
   43       10.074341     10.074341   0.000000   0.000000
   44       10.908816     10.908816   0.000000   0.000000
   45       11.127737     11.127737   0.000000   0.000000
   46       11.593839     11.593839   0.000000   0.000000
   47       11.979410     11.979410   0.000000   0.000000
   48       12.413154     12.413154   0.000000   0.000000
 
  0.2000000E+00  0.2500000E+00  0.3885781E-15  0.2500000E-01
    1      -35.794504    -35.794504   1.000000   1.000000
    2      -30.917969    -30.917969   1.000000   1.000000
    3      -30.808797    -30.808797   1.000000   1.000000
    4      -30.567415    -30.567415   1.000000   1.000000
    5      -17.920628    -17.920628   1.000000   1.000000
    6      -17.807035    -17.807035   1.000000   1.000000
    7      -17.716589    -17.716589   1.000000   1.000000
    8       -9.547408     -9.547408   1.000000   1.000000
    9       -8.344784     -8.344784   1.000000   1.000000
   10       -7.754335     -7.754335   1.000000   1.000000
   11       -7.106204     -7.106204   1.000000   1.000000
   12       -6.954396     -6.954396   1.000000   1.000000
   13       -6.291856     -6.291856   1.000000   1.000000
   14       -5.055295     -5.055295   1.000000   1.000000
   15       -3.326230     -3.326230   1.000000   1.000000
   16       -3.085025     -3.085025   1.000000   1.000000
   17       -2.983037     -2.983037   1.000000   1.000000
   18       -2.640683     -2.640683   1.000000   1.000000
   19       -2.505830     -2.505830   1.000000   1.000000
   20        0.045255      0.045255   0.103088   0.103088
   21        2.150929      2.150929   0.000000   0.000000
   22        2.498952      2.498952   0.000000   0.000000
   23        3.000291      3.000291   0.000000   0.000000
   24        3.149206      3.149206   0.000000   0.000000
   25        3.440711      3.440711   0.000000   0.000000
   26        3.769838      3.769838   0.000000   0.000000
   27        4.183101      4.183101   0.000000   0.000000
   28        4.419109      4.419109   0.000000   0.000000
   29        4.800703      4.800703   0.000000   0.000000
   30        5.238018      5.238018   0.000000   0.000000
   31        5.507987      5.507987   0.000000   0.000000
   32        6.020957      6.020957   0.000000   0.000000
   33        6.088548      6.088548   0.000000   0.000000
   34        6.444458      6.444458   0.000000   0.000000
   35        6.764972      6.764972   0.000000   0.000000
   36        7.157817      7.157817   0.000000   0.000000
   37        7.673164      7.673164   0.000000   0.000000
   38        8.123960      8.123960   0.000000   0.000000
   39        8.621879      8.621879   0.000000   0.000000
   40        8.874503      8.874503   0.000000   0.000000
   41        9.206438      9.206438   0.000000   0.000000
   42        9.870185      9.870185   0.000000   0.000000
   43       10.169974     10.169974   0.000000   0.000000
   44       10.662395     10.662395   0.000000   0.000000
   45       10.847328     10.847328   0.000000   0.000000
   46       11.517808     11.517808   0.000000   0.000000
   47       11.856784     11.856784   0.000000   0.000000
   48       12.249073     12.249073   0.000000   0.000000
 
  0.4000000E+00  0.2500000E+00  0.4996004E-15  0.2500000E-01
    1      -35.794283    -35.794283   1.000000   1.000000
    2      -30.918200    -30.918200   1.000000   1.000000
    3      -30.808815    -30.808815   1.000000   1.000000
    4      -30.568122    -30.568122   1.000000   1.000000
    5      -17.918830    -17.918830   1.000000   1.000000
    6      -17.821235    -17.821235   1.000000   1.000000
    7      -17.716347    -17.716347   1.000000   1.000000
    8       -9.313262     -9.313262   1.000000   1.000000
    9       -8.446615     -8.446615   1.000000   1.000000
   10       -7.686427     -7.686427   1.000000   1.000000
   11       -7.234136     -7.234136   1.000000   1.000000
   12       -6.998483     -6.998483   1.000000   1.000000
   13       -6.312551     -6.312551   1.000000   1.000000
   14       -4.907724     -4.907724   1.000000   1.000000
   15       -3.566807     -3.566807   1.000000   1.000000
   16       -3.086584     -3.086584   1.000000   1.000000
   17       -3.004072     -3.004072   1.000000   1.000000
   18       -2.693129     -2.693129   1.000000   1.000000
   19       -2.368693     -2.368693   1.000000   1.000000
   20       -0.303318     -0.303318   1.004649   1.004649
   21        2.049276      2.049276   0.000000   0.000000
   22        2.432711      2.432711   0.000000   0.000000
   23        2.806648      2.806648   0.000000   0.000000
   24        3.173471      3.173471   0.000000   0.000000
   25        3.285447      3.285447   0.000000   0.000000
   26        3.874749      3.874749   0.000000   0.000000
   27        4.450349      4.450349   0.000000   0.000000
   28        4.631368      4.631368   0.000000   0.000000
   29        5.230490      5.230490   0.000000   0.000000
   30        5.307910      5.307910   0.000000   0.000000
   31        5.597627      5.597627   0.000000   0.000000
   32        6.031082      6.031082   0.000000   0.000000
   33        6.262159      6.262159   0.000000   0.000000
   34        6.444340      6.444340   0.000000   0.000000
   35        6.923845      6.923845   0.000000   0.000000
   36        7.368779      7.368779   0.000000   0.000000
   37        7.795063      7.795063   0.000000   0.000000
   38        8.064537      8.064537   0.000000   0.000000
   39        8.429164      8.429164   0.000000   0.000000
   40        8.646458      8.646458   0.000000   0.000000
   41        9.216528      9.216528   0.000000   0.000000
   42       10.083355     10.083355   0.000000   0.000000
   43       10.565698     10.565698   0.000000   0.000000
   44       10.810686     10.810686   0.000000   0.000000
   45       11.175453     11.175453   0.000000   0.000000
   46       11.519372     11.519372   0.000000   0.000000
   47       11.957098     11.957098   0.000000   0.000000
   48       12.128664     12.128663   0.000000   0.000000
 
 -0.4000000E+00  0.2500000E+00  0.4232725E-15  0.2500000E-01
    1      -35.794281    -35.794281   1.000000   1.000000
    2      -30.918199    -30.918199   1.000000   1.000000
    3      -30.808815    -30.808815   1.000000   1.000000
    4      -30.568120    -30.568120   1.000000   1.000000
    5      -17.918928    -17.918928   1.000000   1.000000
    6      -17.821201    -17.821201   1.000000   1.000000
    7      -17.716342    -17.716342   1.000000   1.000000
    8       -9.322223     -9.322223   1.000000   1.000000
    9       -8.398971     -8.398971   1.000000   1.000000
   10       -7.720684     -7.720684   1.000000   1.000000
   11       -7.239323     -7.239323   1.000000   1.000000
   12       -7.007072     -7.007072   1.000000   1.000000
   13       -6.294726     -6.294726   1.000000   1.000000
   14       -4.937711     -4.937711   1.000000   1.000000
   15       -3.531627     -3.531627   1.000000   1.000000
   16       -3.103053     -3.103053   1.000000   1.000000
   17       -3.006271     -3.006271   1.000000   1.000000
   18       -2.728741     -2.728741   1.000000   1.000000
   19       -2.348521     -2.348521   1.000000   1.000000
   20       -0.332290     -0.332290   1.042838   1.042838
   21        2.118638      2.118638   0.000000   0.000000
   22        2.439271      2.439271   0.000000   0.000000
   23        3.016421      3.016421   0.000000   0.000000
   24        3.150798      3.150798   0.000000   0.000000
   25        3.306754      3.306754   0.000000   0.000000
   26        3.918124      3.918124   0.000000   0.000000
   27        4.412342      4.412342   0.000000   0.000000
   28        4.851384      4.851384   0.000000   0.000000
   29        5.003131      5.003131   0.000000   0.000000
   30        5.328323      5.328323   0.000000   0.000000
   31        5.505889      5.505889   0.000000   0.000000
   32        5.874995      5.874995   0.000000   0.000000
   33        6.002724      6.002724   0.000000   0.000000
   34        6.477473      6.477473   0.000000   0.000000
   35        6.914818      6.914818   0.000000   0.000000
   36        7.293010      7.293010   0.000000   0.000000
   37        7.782964      7.782964   0.000000   0.000000
   38        8.156370      8.156370   0.000000   0.000000
   39        8.470031      8.470031   0.000000   0.000000
   40        8.864167      8.864167   0.000000   0.000000
   41        9.226765      9.226765   0.000000   0.000000
   42        9.917827      9.917827   0.000000   0.000000
   43       10.211487     10.211487   0.000000   0.000000
   44       10.425178     10.425178   0.000000   0.000000
   45       11.110586     11.110586   0.000000   0.000000
   46       11.742599     11.742599   0.000000   0.000000
   47       11.934472     11.934472   0.000000   0.000000
   48       12.470083     12.470083   0.000000   0.000000
 
 -0.2000000E+00  0.2500000E+00  0.3781697E-15  0.2500000E-01
    1      -35.794503    -35.794503   1.000000   1.000000
    2      -30.917975    -30.917975   1.000000   1.000000
    3      -30.808797    -30.808797   1.000000   1.000000
    4      -30.567415    -30.567415   1.000000   1.000000
    5      -17.920786    -17.920786   1.000000   1.000000
    6      -17.807012    -17.807012   1.000000   1.000000
    7      -17.716578    -17.716578   1.000000   1.000000
    8       -9.549253     -9.549253   1.000000   1.000000
    9       -8.301942     -8.301942   1.000000   1.000000
   10       -7.788032     -7.788032   1.000000   1.000000
   11       -7.121317     -7.121317   1.000000   1.000000
   12       -6.946194     -6.946194   1.000000   1.000000
   13       -6.281838     -6.281838   1.000000   1.000000
   14       -5.085178     -5.085178   1.000000   1.000000
   15       -3.303897     -3.303897   1.000000   1.000000
   16       -3.107122     -3.107122   1.000000   1.000000
   17       -2.974552     -2.974552   1.000000   1.000000
   18       -2.678331     -2.678331   1.000000   1.000000
   19       -2.504259     -2.504259   1.000000   1.000000
   20        0.019658      0.019658   0.135591   0.135591
   21        2.262724      2.262724   0.000000   0.000000
   22        2.670643      2.670643   0.000000   0.000000
   23        2.899189      2.899189   0.000000   0.000000
   24        3.310201      3.310201   0.000000   0.000000
   25        3.484101      3.484101   0.000000   0.000000
   26        3.774805      3.774805   0.000000   0.000000
   27        4.329742      4.329742   0.000000   0.000000
   28        4.572987      4.572987   0.000000   0.000000
   29        4.695949      4.695949   0.000000   0.000000
   30        5.086834      5.086834   0.000000   0.000000
   31        5.531900      5.531900   0.000000   0.000000
   32        5.789441      5.789441   0.000000   0.000000
   33        5.881558      5.881558   0.000000   0.000000
   34        6.416699      6.416699   0.000000   0.000000
   35        6.804370      6.804370   0.000000   0.000000
   36        7.227572      7.227572   0.000000   0.000000
   37        7.447925      7.447925   0.000000   0.000000
   38        8.127760      8.127760   0.000000   0.000000
   39        8.195784      8.195784   0.000000   0.000000
   40        8.588412      8.588412   0.000000   0.000000
   41        9.224810      9.224810   0.000000   0.000000
   42        9.607848      9.607848   0.000000   0.000000
   43       10.167027     10.167027   0.000000   0.000000
   44       10.953830     10.953830   0.000000   0.000000
   45       11.439361     11.439361   0.000000   0.000000
   46       11.500707     11.500707   0.000000   0.000000
   47       12.407365     12.407365   0.000000   0.000000
   48       12.557016     12.557016   0.000000   0.000000
 
  0.3729655E-15  0.5000000E+00  0.4440892E-15  0.1250000E-01
    1      -35.794638    -35.794638   1.000000   1.000000
    2      -30.917835    -30.917835   1.000000   1.000000
    3      -30.808780    -30.808780   1.000000   1.000000
    4      -30.566977    -30.566977   1.000000   1.000000
    5      -17.922554    -17.922554   1.000000   1.000000
    6      -17.798285    -17.798285   1.000000   1.000000
    7      -17.716635    -17.716635   1.000000   1.000000
    8       -9.541595     -9.541595   1.000000   1.000000
    9       -8.494146     -8.494146   1.000000   1.000000
   10       -7.806554     -7.806554   1.000000   1.000000
   11       -7.004880     -7.004880   1.000000   1.000000
   12       -6.947028     -6.947028   1.000000   1.000000
   13       -6.256270     -6.256270   1.000000   1.000000
   14       -5.100502     -5.100502   1.000000   1.000000
   15       -3.190963     -3.190963   1.000000   1.000000
   16       -3.052224     -3.052224   1.000000   1.000000
   17       -2.932532     -2.932532   1.000000   1.000000
   18       -2.735402     -2.735402   1.000000   1.000000
   19       -2.471104     -2.471104   1.000000   1.000000
   20        0.283377      0.283377   0.000000   0.000000
   21        2.193992      2.193992   0.000000   0.000000
   22        2.525787      2.525787   0.000000   0.000000
   23        2.789089      2.789089   0.000000   0.000000
   24        3.304804      3.304804   0.000000   0.000000
   25        3.546988      3.546988   0.000000   0.000000
   26        3.837947      3.837947   0.000000   0.000000
   27        4.102829      4.102829   0.000000   0.000000
   28        4.623665      4.623665   0.000000   0.000000
   29        4.915315      4.915315   0.000000   0.000000
   30        5.160386      5.160386   0.000000   0.000000
   31        5.195076      5.195076   0.000000   0.000000
   32        5.814986      5.814986   0.000000   0.000000
   33        5.962341      5.962341   0.000000   0.000000
   34        6.140500      6.140500   0.000000   0.000000
   35        6.621450      6.621450   0.000000   0.000000
   36        6.825897      6.825897   0.000000   0.000000
   37        7.468349      7.468349   0.000000   0.000000
   38        8.025978      8.025978   0.000000   0.000000
   39        8.373299      8.373299   0.000000   0.000000
   40        8.925523      8.925523   0.000000   0.000000
   41        9.619047      9.619047   0.000000   0.000000
   42        9.809552      9.809552   0.000000   0.000000
   43       10.232901     10.232901   0.000000   0.000000
   44       10.582062     10.582062   0.000000   0.000000
   45       11.088588     11.088588   0.000000   0.000000
   46       11.208345     11.208345   0.000000   0.000000
   47       12.130159     12.130159   0.000000   0.000000
   48       12.816980     12.816978   0.000000   0.000000
 
  0.2000000E+00  0.5000000E+00  0.3885781E-15  0.2500000E-01
    1      -35.794501    -35.794501   1.000000   1.000000
    2      -30.917975    -30.917975   1.000000   1.000000
    3      -30.808796    -30.808796   1.000000   1.000000
    4      -30.567414    -30.567414   1.000000   1.000000
    5      -17.921316    -17.921316   1.000000   1.000000
    6      -17.806980    -17.806980   1.000000   1.000000
    7      -17.716640    -17.716640   1.000000   1.000000
    8       -9.453295     -9.453295   1.000000   1.000000
    9       -8.451138     -8.451138   1.000000   1.000000
   10       -7.793086     -7.793086   1.000000   1.000000
   11       -7.095973     -7.095973   1.000000   1.000000
   12       -6.953703     -6.953703   1.000000   1.000000
   13       -6.292039     -6.292039   1.000000   1.000000
   14       -5.059507     -5.059507   1.000000   1.000000
   15       -3.307554     -3.307554   1.000000   1.000000
   16       -3.046270     -3.046270   1.000000   1.000000
   17       -2.946476     -2.946476   1.000000   1.000000
   18       -2.667466     -2.667466   1.000000   1.000000
   19       -2.506173     -2.506173   1.000000   1.000000
   20        0.037282      0.037282   0.119608   0.119608
   21        2.249129      2.249129   0.000000   0.000000
   22        2.457368      2.457368   0.000000   0.000000
   23        2.918604      2.918604   0.000000   0.000000
   24        3.154772      3.154772   0.000000   0.000000
   25        3.591982      3.591982   0.000000   0.000000
   26        3.774840      3.774840   0.000000   0.000000
   27        4.280375      4.280375   0.000000   0.000000
   28        4.526181      4.526181   0.000000   0.000000
   29        4.929803      4.929803   0.000000   0.000000
   30        4.982379      4.982379   0.000000   0.000000
   31        5.339766      5.339766   0.000000   0.000000
   32        5.792821      5.792821   0.000000   0.000000
   33        6.225083      6.225083   0.000000   0.000000
   34        6.533275      6.533275   0.000000   0.000000
   35        6.640539      6.640539   0.000000   0.000000
   36        7.254054      7.254054   0.000000   0.000000
   37        7.297167      7.297167   0.000000   0.000000
   38        8.131686      8.131686   0.000000   0.000000
   39        8.496318      8.496318   0.000000   0.000000
   40        8.737612      8.737612   0.000000   0.000000
   41        9.230502      9.230502   0.000000   0.000000
   42        9.835702      9.835702   0.000000   0.000000
   43       10.204389     10.204389   0.000000   0.000000
   44       10.703495     10.703495   0.000000   0.000000
   45       11.104806     11.104806   0.000000   0.000000
   46       11.491945     11.491945   0.000000   0.000000
   47       11.995606     11.995606   0.000000   0.000000
   48       12.490018     12.490018   0.000000   0.000000
 
  0.4000000E+00  0.5000000E+00  0.4996004E-15  0.2500000E-01
    1      -35.794281    -35.794281   1.000000   1.000000
    2      -30.918211    -30.918211   1.000000   1.000000
    3      -30.808816    -30.808816   1.000000   1.000000
    4      -30.568124    -30.568124   1.000000   1.000000
    5      -17.919344    -17.919344   1.000000   1.000000
    6      -17.821133    -17.821133   1.000000   1.000000
    7      -17.716410    -17.716410   1.000000   1.000000
    8       -9.277383     -9.277383   1.000000   1.000000
    9       -8.447458     -8.447458   1.000000   1.000000
   10       -7.705213     -7.705213   1.000000   1.000000
   11       -7.228264     -7.228264   1.000000   1.000000
   12       -7.032478     -7.032478   1.000000   1.000000
   13       -6.323145     -6.323145   1.000000   1.000000
   14       -4.951090     -4.951090   1.000000   1.000000
   15       -3.558123     -3.558123   1.000000   1.000000
   16       -3.058769     -3.058769   1.000000   1.000000
   17       -2.937895     -2.937895   1.000000   1.000000
   18       -2.741047     -2.741047   1.000000   1.000000
   19       -2.347783     -2.347783   1.000000   1.000000
   20       -0.310920     -0.310920   1.014928   1.014928
   21        2.149504      2.149504   0.000000   0.000000