unknown system                          
           1
     3.068666   -0.035602   -0.013899
     1.047554    6.859038   -0.129265
     0.711742    0.146089   10.021910
   Sr   Nb   H 
   2   1   7
Direct configuration=     1
   0.89812600  0.28588100  0.39940500
   0.83865600  0.99763500  0.59411400
   0.57550400  0.52166300  0.85195200
   0.92556000  0.56673100  0.30705500
   0.03349600  0.63738100  0.28331900
   0.44461300  0.05409900  0.75583400
   0.26301500  0.26149200  0.05779300
   0.99192200  0.19492800  0.18485800
   0.60592000  0.15362500  0.93464100
   0.22639600  0.90870700  0.95463200
unknown system                          
           1
     3.131491   -0.024163   -0.025164
     1.092823    6.726854   -0.280707
     0.686992   -0.071804    9.900964
   Sr   Nb   H 
   2   1   7
Direct configuration=     2
   0.89648145  0.29210362  0.39473647
   0.86265141  0.98493893  0.60134517
   0.57081880  0.51925585  0.85474061
   0.89266664  0.55133535  0.31205231
   0.06578699  0.65805818  0.27593341
   0.42303099  0.05649799  0.75854592
   0.26711723  0.25618165  0.05671124
   0.00473830  0.19846287  0.17981060
   0.58940341  0.16469450  0.93737126
   0.23051278  0.90061307  0.95235602
unknown system                          
           1
     3.106085   -0.028789   -0.020609
     1.074517    6.780308   -0.219466
     0.697000    0.016309    9.949874
   Sr   Nb   H 
   2   1   7
Direct configuration=     3
   0.89718389  0.28959782  0.39661010
   0.85302997  0.99009639  0.59845360
   0.57265914  0.52020848  0.85361547
   0.90556497  0.55759491  0.31011706
   0.05317434  0.64965166  0.27881365
   0.43161779  0.05545771  0.75742860
   0.26543494  0.25838861  0.05718662
  -0.00031994  0.19708068  0.18185054
   0.59606914  0.16008215  0.93618892
   0.22879375  0.90398359  0.95333844
unknown system                          
           1
     3.152260   -0.034276   -0.022038
     1.076139    6.601991   -0.343253
     0.700090   -0.170638    9.809581
   Sr   Nb   H 
   2   1   7
Direct configuration=     4
   0.89597699  0.29350499  0.39326001
   0.87692975  0.97770879  0.60557332
   0.56702089  0.51827009  0.85666316
   0.90128140  0.56286503  0.30816285
   0.05640028  0.65159903  0.27782092
   0.40988827  0.05813954  0.75987708
   0.27040302  0.25258895  0.05594839
   0.01343414  0.20062990  0.17615344
   0.57818613  0.17222877  0.93941946
   0.23368713  0.89460692  0.95072436
unknown system                          
           1
     3.290784   -0.050739   -0.026327
     1.081005    6.067039   -0.714616
     0.709361   -0.731478    9.388705
   Sr   Nb   H 
   2   1   7
Direct configuration=     5
   0.89240204  0.30525585  0.38321455
   0.94773305  0.94019766  0.62676523
   0.55030410  0.51254522  0.86586474
   0.88850261  0.57892928  0.30242308
   0.06590067  0.65752264  0.27487772
   0.34546622  0.06656562  0.76743465
   0.28536059  0.23462000  0.05194335
   0.05418512  0.21110996  0.15895109
   0.52473344  0.20990012  0.94974523
   0.24862015  0.86549566  0.94238335
unknown system                          
           1
     3.567832   -0.083663   -0.034903
     1.090738    4.997135   -1.457343
     0.727901   -1.853160    8.546951
   Sr   Nb   H 
   2   1   7
Direct configuration=     6
   0.88549935  0.32896029  0.36316543
   0.08445139  0.86267629  0.66794235
   0.51793804  0.50175475  0.88467789
   0.86322035  0.61286891  0.29182670
   0.08385736  0.66994380  0.26924549
   0.22075033  0.08616746  0.78405595
   0.31587756  0.19460887  0.04185803
   0.13289324  0.23084186  0.12376907
   0.41828761  0.29405490  0.97492585
   0.28043275  0.80026486  0.92213623
unknown system                          
           1
     3.379107   -0.061235   -0.029061
     1.084108    5.725952   -0.951399
     0.715271   -1.089072    9.120352
   Sr   Nb   H 
   2   1   7
Direct configuration=     7
   0.88996039  0.31240205  0.37669840
  -0.00366997  0.92096063  0.64257988
   0.53895246  0.50761129  0.87100218
   0.88073171  0.58581446  0.29709428
   0.07306751  0.66026370  0.27251053
   0.30173608  0.06670295  0.76948502
   0.29295307  0.23074935  0.05325863
   0.08216468  0.22020092  0.14936275
   0.49331719  0.21746348  0.94790003
   0.25399488  0.85997317  0.94371129
unknown system                          
           1
     3.449862   -0.058867    0.017558
     1.093847    5.547457   -1.022586
     0.852290   -1.209481    9.022577
   Sr   Nb   H 
   2   1   7
Direct configuration=     8
   0.88664375  0.30910698  0.37875897
  -0.00327710  0.89661484  0.64505384
   0.52433323  0.50623219  0.87440691
   0.88511855  0.60831737  0.29053222
   0.06516970  0.65624350  0.27402251
   0.30338796  0.08259670  0.77968433
   0.29474566  0.22379636  0.05330450
   0.10974399  0.22237491  0.13513091
   0.47204228  0.23932961  0.95566499
   0.26529998  0.83752954  0.93704382
unknown system                          
           1
     3.483162   -0.057753    0.039499
     1.098431    5.463450   -1.056089
     0.916776   -1.266151    8.976560
   Sr   Nb   H 
   2   1   7
Direct configuration=     9
   0.88508857  0.30752876  0.37973197
  -0.00296323  0.88478826  0.64609744
   0.51751048  0.50561168  0.87606023
   0.88712446  0.61919614  0.28751601
   0.06151740  0.65430982  0.27474126
   0.30378229  0.09045016  0.78463462
   0.29562721  0.22040984  0.05328313
   0.12280505  0.22324851  0.12828413
   0.46185845  0.25008274  0.95954473
   0.27085732  0.82651608  0.93370947
unknown system                          
           1
     3.581401   -0.047688    0.072025
     1.134604    5.388515   -1.101046
     1.021625   -1.337986    8.974867
   Sr   Nb   H 
   2   1   7
Direct configuration=    10
   0.88273616  0.29860163  0.38236997
  -0.01388594  0.86491702  0.64833667
   0.50899303  0.49269036  0.87263978
   0.85314224  0.63391094  0.28427458
   0.09248904  0.65711918  0.27355193
   0.31480877  0.11353949  0.79481611
   0.29229961  0.21803233  0.05626191
   0.14170713  0.22205839  0.11788457
   0.45532238  0.26913718  0.96439703
   0.27559558  0.81213547  0.92907044
unknown system                          
           1
     3.560363   -0.049843    0.065060
     1.126858    5.404562   -1.091419
     0.999172   -1.322602    8.975230
   Sr   Nb   H 
   2   1   7
Direct configuration=    11
   0.88321390  0.30053380  0.38181542
  -0.01166231  0.86922478  0.64787725
   0.51069858  0.49550473  0.87338640
   0.86026460  0.63069827  0.28492039
   0.08602647  0.65653182  0.27382808
   0.31266611  0.10849591  0.79260525
   0.29300725  0.21853855  0.05562354
   0.13768161  0.22235968  0.12013349
   0.45679151  0.26497512  0.96332165
   0.27452028  0.81527934  0.93009154
unknown system                          
           1
     3.597307   -0.054341    0.062825
     1.133238    5.426240   -1.120235
     1.003918   -1.363577    9.034622
   Sr   Nb   H 
   2   1   7
Direct configuration=    12
   0.88348344  0.29148756  0.38187131
  -0.01976055  0.86429035  0.65144423
   0.51219157  0.47779773  0.86450283
   0.85396878  0.64105246  0.28298207
   0.09054527  0.65504480  0.27446488
   0.32095040  0.12539079  0.79690165
   0.29957280  0.21875960  0.05465264
   0.12831431  0.21994471  0.12304654
   0.46359354  0.27284344  0.96428441
   0.27034844  0.81553055  0.92945245
unknown system                          
           1
     3.640542   -0.059605    0.060209
     1.140705    5.451610   -1.153959
     1.009472   -1.411531    9.104129
   Sr   Nb   H 
   2   1   7
Direct configuration=    13
   0.88381141  0.28093632  0.38190695
  -0.02913510  0.85855215  0.65557433
   0.51396827  0.45708188  0.85410960
   0.84666453  0.65311010  0.28075748
   0.09577878  0.65331920  0.27520319
   0.33050439  0.14513622  0.80195985
   0.30717615  0.21901691  0.05352696
   0.11746716  0.21713943  0.12642338
   0.47145356  0.28203480  0.96543366
   0.26551884  0.81581499  0.92870760
unknown system                          
           1
     3.639161   -0.065187    0.060798
     1.132635    5.479091   -1.181710
     1.011240   -1.457469    9.148461
   Sr   Nb   H 
   2   1   7
Direct configuration=    14
   0.88403203  0.27107647  0.38131405
  -0.03491000  0.85701979  0.66127605
   0.51140475  0.44794216  0.84255791
   0.85259602  0.66258595  0.27923029
   0.08810110  0.65166264  0.27650835
   0.33713174  0.16104584  0.80434388
   0.30237025  0.22086586  0.05704110
   0.11800450  0.21396732  0.12559476
   0.48051686  0.28412701  0.96943663
   0.26396075  0.81184896  0.92629999
unknown system                          
           1
     3.638304   -0.068652    0.061163
     1.127626    5.496146   -1.198932
     1.012338   -1.485980    9.175974
   Sr   Nb   H 
   2   1   7
Direct configuration=    15
   0.88415194  0.26498126  0.38093250
  -0.03850280  0.85609513  0.66479826
   0.50980949  0.44224029  0.83540264
   0.85629585  0.66843818  0.27830087
   0.08333173  0.65064001  0.27731233
   0.34127086  0.17089190  0.80584222
   0.29938718  0.22202127  0.05921614
   0.11833318  0.21200377  0.12507769
   0.48614140  0.28544388  0.97191484
   0.26298917  0.80938629  0.92480550
unknown system                          
           1
     3.627850   -0.060869    0.062795
     1.135869    5.520111   -1.187742
     1.011233   -1.482440    9.128262
   Sr   Nb   H 
   2   1   7
Direct configuration=    16
   0.88378312  0.26198689  0.38087753
  -0.03767470  0.85873159  0.66873342
   0.50854868  0.45109012  0.83424353
   0.86103276  0.66931525  0.27834877
   0.07832206  0.65088677  0.27766680
   0.33656313  0.16646774  0.80388813
   0.29104501  0.22337034  0.06277781
   0.12431892  0.21080406  0.12281769
   0.49244660  0.28561815  0.97234310
   0.26482242  0.80387107  0.92190621
unknown system                          
           1
     3.620270   -0.055226    0.063977
     1.141846    5.537487   -1.179629
     1.010432   -1.479873    9.093668
   Sr   Nb   H 
   2   1   7
Direct configuration=    17
   0.88351535  0.25982666  0.38084159
  -0.03707673  0.86063527  0.67159811
   0.50763103  0.45747644  0.83338708
   0.86447898  0.66994306  0.27838115
   0.07467677  0.65107038  0.27792629
   0.33314073  0.16327942  0.80247103
   0.28497159  0.22435472  0.06537461
   0.12867650  0.20993073  0.12117019
   0.49703358  0.28573737  0.97265324
   0.26616019  0.79988794  0.91979972
unknown system                          
           1
     3.619198   -0.049952    0.059027
     1.151169    5.558661   -1.160259
     0.997177   -1.466525    9.012757
   Sr   Nb   H 
   2   1   7
Direct configuration=    18
   0.88283739  0.25614437  0.38110354
  -0.03602738  0.86504547  0.67774427
   0.50487012  0.46184039  0.83195903
   0.86027194  0.67163078  0.27848608
   0.07867610  0.65046708  0.27823313
   0.32774517  0.16053501  0.79976546
   0.28359751  0.22683078  0.06679614
   0.12543967  0.20726379  0.12203396
   0.50834782  0.28793464  0.97149499
   0.26744966  0.79444970  0.91598641
unknown system                          
           1
     3.617227   -0.040257    0.049929
     1.168306    5.597584   -1.124654
     0.972812   -1.441988    8.864027
   Sr   Nb   H 
   2   1   7
Direct configuration=    19
   0.88159378  0.24940728  0.38160729
  -0.03408717  0.87311365  0.68912215
   0.49978660  0.46983011  0.82928632
   0.85253422  0.67472549  0.27866882
   0.08603197  0.64935699  0.27880848
   0.31781867  0.15552144  0.79475692
   0.28107196  0.23136367  0.06941908
   0.11949091  0.20238855  0.12364674
   0.52915066  0.29193815  0.96934492
   0.26981640  0.78449667  0.90894228
unknown system                          
           1
     3.611205   -0.043015    0.046618
     1.163014    5.621479   -1.097551
     0.965740   -1.424556    8.765041
   Sr   Nb   H 
   2   1   7
Direct configuration=    20
   0.88035488  0.24632371  0.38262237
  -0.03441251  0.87771770  0.69579994
   0.49844799  0.46471829  0.82636785
   0.85392575  0.67571268  0.27888406
   0.08448316  0.64938439  0.27920453
   0.31413890  0.15631000  0.79207687
   0.27908316  0.23374256  0.07113904
   0.11728167  0.19961174  0.12371874
   0.54190352  0.29468898  0.96780283
   0.26800149  0.78393196  0.90598677
unknown system                          
           1
     3.593140   -0.051290    0.036685
     1.147138    5.693161   -1.016243
     0.944521   -1.372260    8.468085
   Sr   Nb   H 
   2   1   7
Direct configuration=    21
   0.87659192  0.23711780  0.38573506
  -0.03535222  0.89145273  0.71600662
   0.49437180  0.44946187  0.81756969
   0.85811761  0.67866135  0.27952780
   0.07982962  0.64946300  0.28040368
   0.30310229  0.15865870  0.78393232
   0.27313320  0.24083734  0.07632754
   0.11061033  0.19132025  0.12396554
   0.58025242  0.30292346  0.96311049
   0.26255103  0.78224549  0.89702427
unknown system                          
           1
     3.599611   -0.068226    0.047426
     1.119970    5.739873   -1.013401
     0.978214   -1.401557    8.406639
   Sr   Nb   H 
   2   1   7
Direct configuration=    22
   0.87342330  0.23511187  0.38945002
  -0.04324120  0.89535228  0.72269226
   0.48630675  0.44378348  0.81123464
   0.85990844  0.67966765  0.27993870
   0.07787741  0.64961832  0.28093581
   0.30372993  0.16380626  0.78104045
   0.26518508  0.24187884  0.08007076
   0.11558341  0.18932861  0.12052319
   0.59883401  0.30325617  0.96324209
   0.26560088  0.78033851  0.89447508
unknown system                          
           1
     3.603243   -0.077730    0.053454
     1.104724    5.766086   -1.011807
     0.997120   -1.417998    8.372158
   Sr   Nb   H 
   2   1   7
Direct configuration=    23
   0.87160888  0.23400532  0.39155513
  -0.04768626  0.89753644  0.72647594
   0.48180706  0.44058671  0.80765912
   0.86091377  0.68023194  0.28016945
   0.07678132  0.64970388  0.28123779
   0.30413404  0.16666042  0.77939990
   0.26071274  0.24246100  0.08219197
   0.11838229  0.18821440  0.11857452
   0.60923747  0.30346991  0.96330648
   0.26731669  0.77927199  0.89303269
unknown system                          
           1
     3.643525   -0.096234    0.065693
     1.086135    5.840718   -1.045502
     1.042349   -1.498228    8.366044
   Sr   Nb   H 
   2   1   7
Direct configuration=    24
   0.86822775  0.23377265  0.39648413
  -0.06278387  0.90037959  0.73065680
   0.47088804  0.43970521  0.80258226
   0.86031879  0.68116411  0.28058891
   0.07726514  0.64972242  0.28168063
   0.30735790  0.17026456  0.77691468
   0.26335276  0.24669079  0.08307154
   0.11415474  0.18250316  0.11679405
   0.62708994  0.30289286  0.96280307
   0.27733681  0.77504666  0.89202692
unknown system                          
           1
     3.659692   -0.103661    0.070605
     1.078674    5.870671   -1.059025
     1.060501   -1.530428    8.363591
   Sr   Nb   H 
   2   1   7
Direct configuration=    25
   0.86685134  0.23370465  0.39846873
  -0.06879312  0.90151422  0.73234823
   0.46658907  0.43931501  0.80054299
   0.86008282  0.68153547  0.28075887
   0.07745404  0.64973281  0.28185865
   0.30866568  0.17168309  0.77591687
   0.26440746  0.24837585  0.08342856
   0.11247181  0.18022384  0.11607370
   0.63417364  0.30268063  0.96259253
   0.28130526  0.77337644  0.89161387
unknown system                          
           1
     3.697414   -0.125746    0.079823
     1.054385    5.946919   -1.086320
     1.099932   -1.603284    8.349950
   Sr   Nb   H 
   2   1   7
Direct configuration=    26
   0.86475209  0.23484829  0.40325651
  -0.08529522  0.90381673  0.73569617
   0.45861445  0.44183771  0.79912247
   0.86495875  0.68126503  0.28119428
   0.07254447  0.65076932  0.28210758
   0.31052404  0.16940069  0.77354524
   0.26090299  0.24838536  0.08523657
   0.11640471  0.17847336  0.11241683
   0.64642989  0.30365025  0.95978556
   0.29337185  0.76969525  0.89124180
unknown system                          
           1
     3.724015   -0.141319    0.086323
     1.037257    6.000687   -1.105568
     1.127738   -1.654660    8.340331
   Sr   Nb   H 
   2   1   7
Direct configuration=    27
   0.86324388  0.23568340  0.40664650
  -0.09682494  0.90541222  0.73807436
   0.45308515  0.44356337  0.79812332
   0.86835281  0.68109204  0.28150013
   0.06912471  0.65148206  0.28228684
   0.31183039  0.16779369  0.77186376
   0.25843936  0.24840015  0.08651733
   0.11917540  0.17723009  0.10982567
   0.65501466  0.30432899  0.95779552
   0.30176659  0.76715598  0.89096957
unknown system                          
           1
     3.756009   -0.164367    0.077218
     1.014226    6.062704   -1.111647
     1.126755   -1.691249    8.302985
   Sr   Nb   H 
   2   1   7
Direct configuration=    28
   0.86377898  0.23760124  0.41030842
  -0.11058107  0.90728490  0.74203576
   0.44860341  0.44258702  0.79971270
   0.86478450  0.68165227  0.28176582
   0.07291404  0.65134301  0.28234865
   0.31295828  0.16193495  0.76955641
   0.25737167  0.24853280  0.08750440
   0.12146424  0.17527439  0.10689779
   0.66098273  0.30805355  0.95247051
   0.31093122  0.76787788  0.89100253
unknown system                          
           1
     3.791451   -0.189899    0.067133
     0.988714    6.131404   -1.118382
     1.125667   -1.731782    8.261614
   Sr   Nb   H 
   2   1   7
Direct configuration=    29
   0.86437120  0.23973687  0.41438692
  -0.12566156  0.90931002  0.74642053
   0.44367307  0.44150974  0.80147531
   0.86087628  0.68225290  0.28205449
   0.07706762  0.65120787  0.28242486
   0.31414479  0.15549679  0.76699307
   0.25619848  0.24868169  0.08860174
   0.12396546  0.17311588  0.10364238
   0.66758475  0.31211983  0.94654748
   0.32098790  0.76871040  0.89105622
unknown system                          
           1
     3.798782   -0.203694    0.055148
     0.973048    6.155321   -1.118175
     1.107953   -1.743585    8.232520
   Sr   Nb   H 
   2   1   7
Direct configuration=    30
   0.86563995  0.24109906  0.41643767
  -0.13316451  0.91021867  0.74920180
   0.43993478  0.44062749  0.80301538
   0.86371159  0.68174813  0.28222587
   0.07443296  0.65193287  0.28248714
   0.31509098  0.15145923  0.76543819
   0.25664525  0.24931957  0.08902603
   0.12428606  0.17135692  0.10204162
   0.67038560  0.31476501  0.94282488
   0.32624536  0.76961504  0.89090442
unknown system                          
           1
     3.818544   -0.240877    0.022842
     0.930819    6.219792   -1.117618
     1.060203   -1.775402    8.154096
   Sr   Nb   H 
   2   1   7
Direct configuration=    31
   0.86908358  0.24478305  0.42199150
  -0.15329220  0.91262817  0.75668978
   0.42988839  0.43824472  0.80716597
   0.87132432  0.68041452  0.28270450
   0.06736421  0.65386123  0.28264150
   0.31756451  0.14061162  0.76124146
   0.25785796  0.25103914  0.09017544
   0.12511074  0.16662274  0.09771408
   0.67792217  0.32185633  0.93276054
   0.34038432  0.77208048  0.89051823
unknown system                          
           1
     3.816511   -0.265223    0.005549
     0.895407    6.214413   -1.120690
     1.033601   -1.784790    8.127150
   Sr   Nb   H 
   2   1   7
Direct configuration=    32
   0.87193115  0.24670473  0.42430340
  -0.15936332  0.91323039  0.76029666
   0.42099069  0.43853993  0.80811393
   0.87197674  0.68002465  0.28287599
   0.06702105  0.65438344  0.28272970
   0.31923661  0.13610462  0.75933726
   0.25670331  0.25068027  0.09059475
   0.12714815  0.16584106  0.09608026
   0.68211479  0.32400303  0.92925904
   0.34544884  0.77262988  0.89001202
unknown system                          
           1
     3.810412   -0.338263   -0.046328
     0.789171    6.198278   -1.129905
     0.953795   -1.812956    8.046311
   Sr   Nb   H 
   2   1   7
Direct configuration=    33
   0.88055021  0.25253704  0.43129169
  -0.17747944  0.91498505  0.77110787
   0.39435548  0.43931045  0.81089486
   0.87392387  0.67886398  0.28339710
   0.06600810  0.65594823  0.28299334
   0.32409705  0.12257200  0.75360976
   0.25324109  0.24958955  0.09184711
   0.13320569  0.16350747  0.09117628
   0.69467701  0.33048135  0.91875419
   0.36062894  0.77434688  0.88853080
unknown system                          
           1
     3.810289   -0.356362   -0.060570
     0.763105    6.189699   -1.134898
     0.931392   -1.821011    8.030273
   Sr   Nb   H 
   2   1   7
Direct configuration=    34
   0.88304873  0.25414750  0.43316331
  -0.18053530  0.91540275  0.77373749
   0.38635207  0.43952650  0.81093225
   0.87279774  0.67867627  0.28350834
   0.06737580  0.65620387  0.28309450
   0.32520761  0.11939995  0.75211974
   0.25419599  0.25066525  0.09211210
   0.13282968  0.16165110  0.09011651
   0.69857868  0.33192708  0.91649532
   0.36335700  0.77454173  0.88832344
unknown system                          
           1
     3.809979   -0.402159   -0.096606
     0.697149    6.167992   -1.147531
     0.874706   -1.841391    7.989692
   Sr   Nb   H 
   2   1   7
Direct configuration=    35
   0.88941129  0.25826374  0.43792843
  -0.18821932  0.91644971  0.78039049
   0.36612956  0.44000323  0.81098180
   0.86995016  0.67819095  0.28378361
   0.07083751  0.65686481  0.28335952
   0.32794619  0.11135869  0.74833932
   0.25662938  0.25340266  0.09279228
   0.13183730  0.15693493  0.08742198
   0.70843403  0.33561440  0.91079200
   0.37025191  0.77505887  0.88781357
unknown system                          
           1
     3.805150   -0.404325   -0.102368
     0.693038    6.155004   -1.150943
     0.862519   -1.841418    7.988189
   Sr   Nb   H 
   2   1   7
Direct configuration=    36
   0.89027493  0.25868325  0.43844752
  -0.18636821  0.91685037  0.78077995
   0.36319838  0.43946883  0.81035327
   0.87065642  0.67786310  0.28376132
   0.07016468  0.65714593  0.28346681
   0.32793271  0.11114862  0.74785070
   0.25689211  0.25375474  0.09270366
   0.13168662  0.15651100  0.08753811
   0.71025875  0.33624107  0.91047171
   0.36851162  0.77447510  0.88822994
unknown system                          
           1
     3.790663   -0.410822   -0.119655
     0.680704    6.116042   -1.161178
     0.825958   -1.841499    7.983678
   Sr   Nb   H 
   2   1   7
Direct configuration=    37
   0.89287374  0.25994693  0.44000831
  -0.18080536  0.91805924  0.78195421
   0.35438981  0.43785545  0.80845866
   0.87277654  0.67687861  0.28369545
   0.06814564  0.65799003  0.28378776
   0.32788740  0.11051645  0.74638389
   0.25768074  0.25481393  0.09243922
   0.13123462  0.15523597  0.08788523
   0.71573609  0.33812887  0.90951657
   0.36328877  0.77271651  0.88947369
unknown system                          
           1
     3.761690   -0.423815   -0.154230
     0.656036    6.038117   -1.181647
     0.752836   -1.841663    7.974656
   Sr   Nb   H 
   2   1   7
Direct configuration=    38
   0.89811925  0.26250566  0.44315142
  -0.16962185  0.92051879  0.78433819
   0.33668137  0.43456674  0.80461462
   0.87702506  0.67490391  0.28356959
   0.06410422  0.65968280  0.28442404
   0.32776738  0.10924025  0.74344465
   0.25926076  0.25695021  0.09191883
   0.13033074  0.15266641  0.08857181
   0.72671041  0.34195191  0.90764097
   0.35283066  0.76915531  0.89192888
unknown system                          
           1
     3.757516   -0.425411   -0.158785
     0.653028    6.028581   -1.183496
     0.743263   -1.840496    7.974834
   Sr   Nb   H 
   2   1   7
Direct configuration=    39
   0.89883700  0.26277785  0.44350207
  -0.16801058  0.92082228  0.78467940
   0.33426212  0.43395548  0.80408033
   0.87616830  0.67471247  0.28353605
   0.06497787  0.65982441  0.28453322
   0.32778245  0.10897643  0.74296742
   0.25905515  0.25692992  0.09176413
   0.13063395  0.15264277  0.08880325
   0.72837011  0.34271891  0.90736111
   0.35113162  0.76878149  0.89237602
unknown system                          
           1
     3.744994   -0.430198   -0.172451
     0.644002    5.999973   -1.189042
     0.714545   -1.836996    7.975367
   Sr   Nb   H 
   2   1   7
Direct configuration=    40
   0.90099516  0.26359700  0.44455589
  -0.16316953  0.92173690  0.78570674
   0.32699314  0.43211461  0.80247164
   0.87359525  0.67413578  0.28343342
   0.06760214  0.66025136  0.28486274
   0.32782376  0.10818360  0.74153532
   0.25843658  0.25686863  0.09129957
   0.13154614  0.15257219  0.08949817
   0.73335241  0.34502661  0.90652600
   0.34603295  0.76765532  0.89371351
unknown system                          
           1
     3.719950   -0.439772   -0.199783
     0.625952    5.942757   -1.200135
     0.657110   -1.829997    7.976434
   Sr   Nb   H 
   2   1   7
Direct configuration=    41
   0.90534118  0.26525094  0.44667489
  -0.15344353  0.92359140  0.78778386
   0.31238710  0.42838997  0.79921913
   0.86843238  0.67296800  0.28321603
   0.07287086  0.66111824  0.28553369
   0.32788278  0.10658966  0.73866862
   0.25718886  0.25674340  0.09036769
   0.13338586  0.15243320  0.09089159
   0.74333653  0.34968257  0.90488264
   0.33582599  0.76537462  0.89636485
unknown system                          
           1
     3.710830   -0.439038   -0.202070
     0.626788    5.945985   -1.198668
     0.651031   -1.826738    7.984114
   Sr   Nb   H 
   2   1   7
Direct configuration=    42
   0.90566505  0.26503632  0.44643303
  -0.15304016  0.92350604  0.78818558
   0.31072677  0.42791372  0.79917059
   0.86811666  0.67266958  0.28316928
   0.07316934  0.66136867  0.28569997
   0.32838262  0.10555719  0.73789289
   0.25630625  0.25630267  0.08998445
   0.13435978  0.15286419  0.09151056
   0.74537574  0.35120915  0.90439287
   0.33414595  0.76571449  0.89716378
unknown system                          
           1
     3.683468   -0.436835   -0.208932
     0.629297    5.955667   -1.194269
     0.632795   -1.816963    8.007154
   Sr   Nb   H 
   2   1   7
Direct configuration=    43
   0.90663759  0.26439352  0.44570873
  -0.15182481  0.92324943  0.78939004
   0.30573383  0.42648516  0.79902366
   0.86716706  0.67177483  0.28302906
   0.07406784  0.66211927  0.28619840
   0.32988137  0.10246366  0.73556950
   0.25365004  0.25498170  0.08883527
   0.13729197  0.15415547  0.09336630
   0.75150466  0.35578806  0.90292607
   0.32909846  0.76673090  0.89955598
unknown system                          
           1
     3.628744   -0.432430   -0.222655
     0.634315    5.975030   -1.185470
     0.596322   -1.797413    8.053234
   Sr   Nb   H 
   2   1   7
Direct configuration=    44
   0.90858840  0.26311445  0.44426780
  -0.14936257  0.92273324  0.79179478
   0.29567542  0.42362913  0.79872192
   0.86525301  0.66998840  0.28274885
   0.07588319  0.66361639  0.28719298
   0.33287450  0.09629976  0.73094539
   0.24828677  0.25234705  0.08654018
   0.14321940  0.15672810  0.09707087
   0.76383107  0.36494085  0.90000741
   0.31895881  0.76874461  0.90431283
unknown system                          
           1
     3.617302   -0.429173   -0.223818
     0.639555    5.987542   -1.185371
     0.591630   -1.796069    8.073161
   Sr   Nb   H 
   2   1   7
Direct configuration=    45
   0.90853373  0.26256858  0.44366911
  -0.15025120  0.92229433  0.79235371
   0.29447305  0.42336065  0.79898886
   0.86546004  0.66953801  0.28269733
   0.07561042  0.66400611  0.28744560
   0.33382820  0.09496894  0.72976339
   0.24845672  0.25321350  0.08573219
   0.14315967  0.15586222  0.09827711
   0.76696763  0.36723174  0.89916963
   0.31696974  0.76909792  0.90550607
unknown system                          
           1
     3.582975   -0.419403   -0.227307
     0.655274    6.025076   -1.185075
     0.577554   -1.792038    8.132943
   Sr   Nb   H 
   2   1   7
Direct configuration=    46
   0.90836748  0.26093626  0.44187820
  -0.15292114  0.92097984  0.79402622
   0.29085676  0.42255729  0.79978724
   0.86608416  0.66818990  0.28254378
   0.07478978  0.66517218  0.28820096
   0.33669570  0.09098782  0.72622844
   0.24896113  0.25580886  0.08331351
   0.14298920  0.15326743  0.10188757
   0.77639573  0.37408848  0.89666194
   0.31098920  0.77015393  0.90907515
unknown system                          
           1
     3.579014   -0.417979   -0.224313
     0.656288    6.028716   -1.186506
     0.584002   -1.792414    8.149424
   Sr   Nb   H 
   2   1   7
Direct configuration=    47
   0.90758199  0.26041646  0.44138908
  -0.15540268  0.92049356  0.79453523
   0.29226637  0.42271311  0.80019172
   0.86560425  0.66790003  0.28248800
   0.07515986  0.66542658  0.28842025
   0.33720589  0.09083263  0.72535979
   0.24780324  0.25537407  0.08264143
   0.14417752  0.15368677  0.10277816
   0.77842754  0.37558193  0.89594313
   0.31038402  0.76971686  0.90985621
unknown system                          
           1
     3.567133   -0.413710   -0.215330
     0.659329    6.039636   -1.190800
     0.603347   -1.793545    8.198867
   Sr   Nb   H 
   2   1   7
Direct configuration=    48
   0.90522489  0.25885962  0.43992562
  -0.16285810  0.91903649  0.79606163
   0.29649864  0.42317837  0.80140101
   0.86416316  0.66703146  0.28232147
   0.07627042  0.66618859  0.28907636
   0.33874188  0.09036866  0.72275884
   0.24432827  0.25407271  0.08063073
   0.14774304  0.15494131  0.10544297
   0.78453239  0.38005946  0.89378948
   0.30856342  0.76840533  0.91219490
unknown system                          
           1
     3.543369   -0.405170   -0.197363
     0.665412    6.061476   -1.199387
     0.642035   -1.795806    8.297753
   Sr   Nb   H 
   2   1   7
Direct configuration=    49
   0.90050680  0.25576098  0.43702197
  -0.17783406  0.91613317  0.79911067
   0.30498408  0.42409576  0.80379487
   0.86127272  0.66530031  0.28199334
   0.07849361  0.66770555  0.29037806
   0.34184629  0.08945031  0.71758669
   0.23737029  0.25148809  0.07664224
   0.15487764  0.15742972  0.11073102
   0.79679884  0.38899763  0.88949850
   0.30489179  0.76578047  0.91684564
unknown system                          
           1
     3.545925   -0.407355   -0.188496
     0.657285    6.046426   -1.202023
     0.664590   -1.797021    8.304180
   Sr   Nb   H 
   2   1   7
Direct configuration=    50
   0.89803854  0.25533062  0.43795573
  -0.18147732  0.91555885  0.80045142
   0.31038585  0.42365364  0.80249501