 running on   16 total cores
 distrk:  each k-point on   16 cores,    1 groups
 distr:  one band on    1 cores,   16 groups
 using from now: INCAR     
 vasp.5.4.4.18Apr17-6-g9f103f2a35 (build Nov 01 2019 12:17:22) complex          
  
 POSCAR found type information on POSCAR  Sr Nb H 
 POSCAR found :  3 types and      10 ions

 ----------------------------------------------------------------------------- 
|                                                                             |
|           W    W    AA    RRRRR   N    N  II  N    N   GGGG   !!!           |
|           W    W   A  A   R    R  NN   N  II  NN   N  G    G  !!!           |
|           W    W  A    A  R    R  N N  N  II  N N  N  G       !!!           |
|           W WW W  AAAAAA  RRRRR   N  N N  II  N  N N  G  GGG   !            |
|           WW  WW  A    A  R   R   N   NN  II  N   NN  G    G                |
|           W    W  A    A  R    R  N    N  II  N    N   GGGG   !!!           |
|                                                                             |
|      For optimal performance we recommend to set                            |
|        NCORE= 4 - approx SQRT( number of cores)                             |
|      NCORE specifies how many cores store one orbital (NPAR=cpu/NCORE).     |
|      This setting can  greatly improve the performance of VASP for DFT.     |
|      The default,   NCORE=1            might be grossly inefficient         |
|      on modern multi-core architectures or massively parallel machines.     |
|      Do your own testing !!!!                                               |
|      Unfortunately you need to use the default for GW and RPA calculations. |
|      (for HF NCORE is supported but not extensively tested yet)             |
|                                                                             |
 ----------------------------------------------------------------------------- 

 LDA part: xc-table for Pade appr. of Perdew
 POSCAR, INCAR and KPOINTS ok, starting setup
 FFT: planning ...
 WAVECAR not read
 entering main loop
       N       E                     dE             d eps       ncg     rms          rms(c)
DAV:   1     0.138377120990E+03    0.13838E+03   -0.13425E+04  9088   0.819E+02
DAV:   2    -0.318711428078E+02   -0.17025E+03   -0.15875E+03 10544   0.234E+02
DAV:   3    -0.403056008360E+02   -0.84345E+01   -0.83586E+01 17328   0.465E+01
DAV:   4    -0.403635445666E+02   -0.57944E-01   -0.57942E-01  9376   0.317E+00
DAV:   5    -0.403643152470E+02   -0.77068E-03   -0.77102E-03 14272   0.379E-01    0.361E+01
RMM:   6    -0.406306692644E+02   -0.26635E+00   -0.38943E+00  9808   0.832E+00    0.156E+01
RMM:   7    -0.401033906926E+02    0.52728E+00   -0.75285E-01  9953   0.467E+00    0.738E+00
RMM:   8    -0.400815911589E+02    0.21800E-01   -0.15315E-01  9432   0.255E+00    0.358E+00
RMM:   9    -0.400872517581E+02   -0.56606E-02   -0.39735E-02  9451   0.140E+00    0.152E+00
RMM:  10    -0.400915164365E+02   -0.42647E-02   -0.12115E-02  9003   0.733E-01    0.934E-01
RMM:  11    -0.400928136293E+02   -0.12972E-02   -0.21909E-03  8372   0.385E-01    0.210E-01
RMM:  12    -0.400934227410E+02   -0.60911E-03   -0.81895E-04  7558   0.172E-01    0.149E-01
RMM:  13    -0.400939189151E+02   -0.49617E-03   -0.42835E-04  7102   0.136E-01
   1 F= -.40093919E+02 E0= -.40093919E+02  d E =-.400939E+02  mag=    -0.0016
 curvature:   0.00 expect dE= 0.000E+00 dE for cont linesearch  0.000E+00
 trial: gam= 0.00000 g(F)=  0.855E-02 g(S)=  0.552E-01 ort = 0.000E+00 (trialstep = 0.100E+01)
 search vector abs. value=  0.638E-01
 bond charge predicted
       N       E                     dE             d eps       ncg     rms          rms(c)
DAV:   1    -0.402785765931E+02   -0.18515E+00   -0.27858E+00 12656   0.110E+01    0.427E+00
RMM:   2    -0.401640330937E+02    0.11454E+00   -0.27658E-01  9556   0.287E+00    0.980E-01
RMM:   3    -0.401430187429E+02    0.21014E-01   -0.23650E-02  9736   0.126E+00    0.928E-01
RMM:   4    -0.401392180822E+02    0.38007E-02   -0.75535E-03  9409   0.612E-01    0.840E-01
RMM:   5    -0.401388356058E+02    0.38248E-03   -0.36681E-03  9072   0.437E-01
   2 F= -.40138836E+02 E0= -.40138836E+02  d E =-.449167E-01  mag=    -0.0000
 trial-energy change:   -0.044917  1 .order   -0.051957   -0.063794   -0.040120
 step:   2.6947(harm=  2.6947)  dis= 0.01912  next Energy=   -40.179871 (dE=-0.860E-01)
 bond charge predicted
       N       E                     dE             d eps       ncg     rms          rms(c)
DAV:   1    -0.405331133504E+02   -0.39390E+00   -0.77768E+00  9184   0.183E+01    0.705E+00
RMM:   2    -0.402101261259E+02    0.32299E+00   -0.76771E-01  9434   0.480E+00    0.170E+00
RMM:   3    -0.401452855591E+02    0.64841E-01   -0.65811E-02  9698   0.207E+00    0.159E+00
RMM:   4    -0.401353804647E+02    0.99051E-02   -0.21301E-02  9907   0.988E-01    0.155E+00
RMM:   5    -0.401347130079E+02    0.66746E-03   -0.12151E-02 10509   0.728E-01    0.529E-01
RMM:   6    -0.401351151682E+02   -0.40216E-03   -0.13217E-02 10097   0.456E-01    0.141E-01
RMM:   7    -0.401354646350E+02   -0.34947E-03   -0.29934E-03  9017   0.372E-01
   3 F= -.40135465E+02 E0= -.40135465E+02  d E =-.415457E-01  mag=    -0.0000
 curvature:  -1.35 expect dE=-0.108E+00 dE for cont linesearch -0.185E-01
 ZBRENT: interpolating
 opt :   1.9749  next Energy=   -40.146125 (dE=-0.522E-01)
 bond charge predicted
       N       E                     dE             d eps       ncg     rms          rms(c)
DAV:   1    -0.402262587756E+02   -0.91144E-01   -0.14482E+00 13424   0.766E+00    0.288E+00
RMM:   2    -0.401626950633E+02    0.63564E-01   -0.13694E-01  9481   0.204E+00    0.749E-01
RMM:   3    -0.401515396667E+02    0.11155E-01   -0.14064E-02  9824   0.936E-01    0.574E-01
RMM:   4    -0.401488574736E+02    0.26822E-02   -0.65554E-03  9359   0.489E-01    0.507E-01
RMM:   5    -0.401488713461E+02   -0.13873E-04   -0.24289E-03  8659   0.331E-01
   4 F= -.40148871E+02 E0= -.40148871E+02  d E =-.549524E-01  mag=     0.0000
 curvature:  -0.78 expect dE=-0.278E-01 dE for cont linesearch -0.252E-02
 trial: gam= 0.00000 g(F)=  0.336E-01 g(S)=  0.226E-02 ort =-0.144E-01 (trialstep = 0.119E+01)
 search vector abs. value=  0.359E-01
 bond charge predicted
       N       E                     dE             d eps       ncg     rms          rms(c)
DAV:   1    -0.401477054620E+02    0.11520E-02   -0.12476E+00  9600   0.615E+00    0.113E+00
RMM:   2    -0.401473206244E+02    0.38484E-03   -0.57531E-02  9366   0.117E+00    0.866E-01
RMM:   3    -0.401455359054E+02    0.17847E-02   -0.72122E-03  9464   0.918E-01    0.359E-01
RMM:   4    -0.401456293073E+02   -0.93402E-04   -0.88361E-04  7570   0.170E-01
   5 F= -.40145629E+02 E0= -.40145629E+02  d E =0.324204E-02  mag=    -0.0000
 trial-energy change:    0.003242  1 .order    0.000106   -0.042862    0.043075
 step:   0.5314(harm=  0.5960)  dis= 0.00858  next Energy=   -40.158126 (dE=-0.925E-02)
 bond charge predicted
       N       E                     dE             d eps       ncg     rms          rms(c)
DAV:   1    -0.401583494915E+02   -0.12814E-01   -0.38227E-01  9312   0.342E+00    0.712E-01
RMM:   2    -0.401585365697E+02   -0.18708E-03   -0.18951E-02  9316   0.659E-01    0.519E-01
RMM:   3    -0.401579056525E+02    0.63092E-03   -0.17529E-03  8177   0.483E-01    0.176E-01
RMM:   4    -0.401579286497E+02   -0.22997E-04   -0.21313E-04  6183   0.117E-01
   6 F= -.40157929E+02 E0= -.40157929E+02  d E =-.905730E-02  mag=    -0.0000
 curvature:  -0.29 expect dE=-0.301E-02 dE for cont linesearch -0.872E-08
 trial: gam= 0.28416 g(F)=  0.911E-02 g(S)=  0.112E-02 ort = 0.326E-04 (trialstep = 0.106E+01)
 search vector abs. value=  0.131E-01
 bond charge predicted
       N       E                     dE             d eps       ncg     rms          rms(c)
DAV:   1    -0.401671724433E+02   -0.92668E-02   -0.30405E-01  9152   0.333E+00    0.422E-01
RMM:   2    -0.401665075365E+02    0.66491E-03   -0.15063E-02  9556   0.619E-01    0.202E-01
RMM:   3    -0.401661695684E+02    0.33797E-03   -0.89183E-04  7183   0.376E-01
   7 F= -.40166170E+02 E0= -.40166170E+02  d E =-.824092E-02  mag=    -0.0000
 trial-energy change:   -0.008241  1 .order   -0.008422   -0.010871   -0.005973
 step:   2.3577(harm=  2.3577)  dis= 0.02177  next Energy=   -40.169993 (dE=-0.121E-01)
 bond charge predicted
       N       E                     dE             d eps       ncg     rms          rms(c)
DAV:   1    -0.401709711957E+02   -0.44637E-02   -0.45173E-01  9856   0.407E+00    0.627E-01
RMM:   2    -0.401693771513E+02    0.15940E-02   -0.23396E-02  9556   0.771E-01    0.339E-01
RMM:   3    -0.401687506135E+02    0.62654E-03   -0.15437E-03  7981   0.482E-01    0.377E-01
RMM:   4    -0.401686261276E+02    0.12449E-03   -0.46754E-04  6608   0.134E-01
   8 F= -.40168626E+02 E0= -.40168626E+02  d E =-.106975E-01  mag=    -0.0000
 curvature:  -1.51 expect dE=-0.148E-01 dE for cont linesearch -0.105E-03
 trial: gam= 1.03100 g(F)=  0.332E-02 g(S)=  0.646E-02 ort =-0.954E-03 (trialstep = 0.797E+00)
 search vector abs. value=  0.218E-01
 bond charge predicted
       N       E                     dE             d eps       ncg     rms          rms(c)
DAV:   1    -0.401867032851E+02   -0.17953E-01   -0.35920E-01 10848   0.358E+00    0.108E+00
RMM:   2    -0.401754187020E+02    0.11285E-01   -0.26758E-02  9470   0.962E-01    0.358E-01
RMM:   3    -0.401737442343E+02    0.16745E-02   -0.23281E-03  8646   0.437E-01    0.249E-01
RMM:   4    -0.401734299870E+02    0.31425E-03   -0.98915E-04  7429   0.232E-01
   9 F= -.40173430E+02 E0= -.40173430E+02  d E =-.480386E-02  mag=     0.0000
 ZBRENT: can't locate minimum, use default step
 trial-energy change:   -0.004804  1 .order   -0.006295   -0.007016   -0.005575
 step:   3.1875(harm=  3.8788)  dis= 0.02287  next Energy=   -40.185701 (dE=-0.171E-01)
 bond charge predicted
       N       E                     dE             d eps       ncg     rms          rms(c)
DAV:   1    -0.402965461060E+02   -0.12280E+00   -0.32420E+00  9200   0.108E+01    0.337E+00
RMM:   2    -0.401914267914E+02    0.10512E+00   -0.24478E-01  9408   0.294E+00    0.109E+00
RMM:   3    -0.401749012256E+02    0.16526E-01   -0.24402E-02  9668   0.138E+00    0.848E-01
RMM:   4    -0.401723119510E+02    0.25893E-02   -0.10353E-02  9451   0.604E-01    0.863E-01
RMM:   5    -0.401729146227E+02   -0.60267E-03   -0.65609E-03  9521   0.454E-01    0.391E-01
RMM:   6    -0.401731709352E+02   -0.25631E-03   -0.35854E-03  9374   0.249E-01
  10 F= -.40173171E+02 E0= -.40173171E+02  d E =-.454481E-02  mag=    -0.0000
 curvature:  -4.56 expect dE=-0.102E+00 dE for cont linesearch -0.261E-02
 trial: gam= 0.00000 g(F)=  0.200E-01 g(S)=  0.232E-02 ort =-0.353E-02 (trialstep = 0.125E+01)
 search vector abs. value=  0.223E-01
 reached required accuracy - stopping structural energy minimisation
