       N       E                     dE             d eps       ncg     rms          rms(c)
DAV:   1     0.222265825660E+03    0.22227E+03   -0.15726E+04 16952   0.738E+02
DAV:   2    -0.653579335243E+02   -0.28762E+03   -0.27352E+03 20616   0.319E+02
DAV:   3    -0.821000998752E+02   -0.16742E+02   -0.16566E+02 24960   0.675E+01
DAV:   4    -0.829262814099E+02   -0.82618E+00   -0.82373E+00 27392   0.126E+01
DAV:   5    -0.829407820231E+02   -0.14501E-01   -0.14496E-01 24904   0.139E+00    0.478E+01
DAV:   6    -0.785159877311E+02    0.44248E+01   -0.99454E+00 24816   0.220E+01    0.178E+01
DAV:   7    -0.778162344940E+02    0.69975E+00   -0.19601E+00 21224   0.718E+00    0.916E+00
DAV:   8    -0.777668354708E+02    0.49399E-01   -0.46541E-01 26544   0.321E+00    0.234E+00
DAV:   9    -0.777688571883E+02   -0.20217E-02   -0.29073E-02 22792   0.847E-01    0.139E+00
DAV:  10    -0.777687549724E+02    0.10222E-03   -0.14579E-02 22304   0.671E-01    0.191E-01
DAV:  11    -0.777690333126E+02   -0.27834E-03   -0.23332E-03 21888   0.304E-01    0.163E-01
DAV:  12    -0.777691093135E+02   -0.76001E-04   -0.16172E-04 13392   0.861E-02
   1 F= -.77769109E+02 E0= -.77768996E+02  d E =-.777691E+02
       N       E                     dE             d eps       ncg     rms          rms(c)
DAV:   1    -0.777696493705E+02   -0.61606E-03   -0.22789E-02 17692   0.105E+00    0.952E-02
DAV:   2    -0.777698261289E+02   -0.17676E-03   -0.23540E-03 18344   0.281E-01    0.404E-02
DAV:   3    -0.777698209971E+02    0.51318E-05   -0.50526E-05 14336   0.499E-02
   2 F= -.77769821E+02 E0= -.77769710E+02  d E =-.711684E-03
       N       E                     dE             d eps       ncg     rms          rms(c)
DAV:   1    -0.777693993126E+02    0.42682E-03   -0.13317E-01 16988   0.254E+00    0.199E-01
DAV:   2    -0.777703865067E+02   -0.98719E-03   -0.13656E-02 18696   0.680E-01    0.852E-02
DAV:   3    -0.777703533071E+02    0.33200E-04   -0.32722E-04 19428   0.114E-01
   3 F= -.77770353E+02 E0= -.77770245E+02  d E =-.124399E-02
       N       E                     dE             d eps       ncg     rms          rms(c)
DAV:   1    -0.777704957856E+02   -0.10928E-03   -0.13723E-03 17676   0.239E-01    0.290E-02
DAV:   2    -0.777705006118E+02   -0.48262E-05   -0.10483E-04 10904   0.668E-02
   4 F= -.77770501E+02 E0= -.77770393E+02  d E =-.147305E-03
       N       E                     dE             d eps       ncg     rms          rms(c)
DAV:   1    -0.777709598899E+02   -0.46410E-03   -0.13263E-02 16860   0.686E-01    0.666E-02
DAV:   2    -0.777709925868E+02   -0.32697E-04   -0.87178E-04 20312   0.180E-01
   5 F= -.77770993E+02 E0= -.77770885E+02  d E =-.639280E-03
