Automatically generated mesh
      38
Reciprocal lattice
    0.00000000000000    0.00000000000000    0.00000000000000             1
    0.20000000000000    0.00000000000000    0.00000000000000             2
    0.40000000000000    0.00000000000000    0.00000000000000             2
    0.00000000000000    0.33333333333333    0.00000000000000             2
    0.20000000000000    0.33333333333333    0.00000000000000             2
    0.40000000000000    0.33333333333333    0.00000000000000             2
   -0.40000000000000    0.33333333333333    0.00000000000000             2
   -0.20000000000000    0.33333333333333    0.00000000000000             2
    0.00000000000000    0.00000000000000    0.20000000000000             2
    0.20000000000000    0.00000000000000    0.20000000000000             2
    0.40000000000000    0.00000000000000    0.20000000000000             2
   -0.40000000000000    0.00000000000000    0.20000000000000             2
   -0.20000000000000    0.00000000000000    0.20000000000000             2
    0.00000000000000    0.33333333333333    0.20000000000000             2
    0.20000000000000    0.33333333333333    0.20000000000000             2
    0.40000000000000    0.33333333333333    0.20000000000000             2
   -0.40000000000000    0.33333333333333    0.20000000000000             2
   -0.20000000000000    0.33333333333333    0.20000000000000             2
    0.00000000000000   -0.33333333333333    0.20000000000000             2
    0.20000000000000   -0.33333333333333    0.20000000000000             2
    0.40000000000000   -0.33333333333333    0.20000000000000             2
   -0.40000000000000   -0.33333333333333    0.20000000000000             2
   -0.20000000000000   -0.33333333333333    0.20000000000000             2
    0.00000000000000    0.00000000000000    0.40000000000000             2
    0.20000000000000    0.00000000000000    0.40000000000000             2
    0.40000000000000    0.00000000000000    0.40000000000000             2
   -0.40000000000000    0.00000000000000    0.40000000000000             2
   -0.20000000000000    0.00000000000000    0.40000000000000             2
    0.00000000000000    0.33333333333333    0.40000000000000             2
    0.20000000000000    0.33333333333333    0.40000000000000             2
    0.40000000000000    0.33333333333333    0.40000000000000             2
   -0.40000000000000    0.33333333333333    0.40000000000000             2
   -0.20000000000000    0.33333333333333    0.40000000000000             2
    0.00000000000000   -0.33333333333333    0.40000000000000             2
    0.20000000000000   -0.33333333333333    0.40000000000000             2
    0.40000000000000   -0.33333333333333    0.40000000000000             2
   -0.40000000000000   -0.33333333333333    0.40000000000000             2
   -0.20000000000000   -0.33333333333333    0.40000000000000             2
Tetrahedra
       222    0.00222222222222
         2         1         4         5        15
         2         1         2         5        15
         2         1         2        10        15
         2         1         4        14        15
         2         1         9        14        15
         2         1         9        10        15
         2         2         5         6        16
         2         2         3         6        16
         2         2         3        11        16
         2         2         5        15        16
         2         2        10        15        16
         2         2        10        11        16
         2         3         6         7        17
         2         3         3         7        17
         2         3         3        12        17
         2         3         6        16        17
         2         3        11        16        17
         2         3        11        12        17
         2         3         7         8        18
         2         2         3         8        18
         2         2         3        13        18
         2         3         7        17        18
         2         3        12        17        18
         2         3        12        13        18
         2         2         4         8        14
         2         1         2         4        14
         2         1         2         9        14
         2         2         8        14        18
         2         2        13        14        18
         2         2         9        13        14
         2         4         4         8        20
         2         4         5         8        20
         2         4         5        15        20
         2         4         4        19        20
         2         4        14        19        20
         2         4        14        15        20
         2         5         7         8        21
         2         5         6         7        21
         2         5         6        16        21
         2         5         8        20        21
         2         5        15        20        21
         2         5        15        16        21
         4         6         6         7        22
         2         6         7        17        22
         2         6         7        21        22
         2         6        16        21        22
         2         6        16        17        22
         2         5         6         7        23
         2         5         7         8        23
         2         7         8        18        23
         2         6         7        22        23
         2         7        17        22        23
         2         7        17        18        23
         2         4         5         8        19
         2         4         4         8        19
         2         4         8        14        19
         2         5         8        19        23
         2         8        18        19        23
         2         8        14        18        19
         2         1         2         4        10
         2         2         4         8        10
         2         4         8        10        20
         2         1         4         9        10
         2         4         9        10        19
         2         4        10        19        20
         2         2         3         8        11
         2         3         7         8        11
         2         7         8        11        21
         2         2         8        10        11
         2         8        10        11        20
         2         8        11        20        21
         2         3         3         7        12
         2         3         6         7        12
         2         6         7        12        22
         2         3         7        11        12
         2         7        11        12        21
         2         7        12        21        22
         2         2         3         6        13
         2         2         5         6        13
         2         5         6        13        23
         2         3         6        12        13
         2         6        12        13        22
         2         6        13        22        23
         2         1         2         5         9
         2         1         4         5         9
         2         4         5         9        19
         2         2         5         9        13
         2         5         9        13        23
         2         5         9        19        23
         2         9        14        15        30
         2         9        10        15        30
         2         9        10        25        30
         2         9        14        29        30
         2         9        24        29        30
         2         9        24        25        30
         2        10        15        16        31
         2        10        11        16        31
         2        10        11        26        31
         2        10        15        30        31
         2        10        25        30        31
         2        10        25        26        31
         2        11        16        17        32
         2        11        12        17        32
         2        11        12        27        32
         2        11        16        31        32
         2        11        26        31        32
         2        11        26        27        32
         2        12        17        18        33
         2        12        13        18        33
         2        12        13        28        33
         2        12        17        32        33
         2        12        27        32        33
         2        12        27        28        33
         2        13        14        18        29
         2         9        13        14        29
         2         9        13        24        29
         2        13        18        29        33
         2        13        28        29        33
         2        13        24        28        29
         2        14        19        20        35
         2        14        15        20        35
         2        14        15        30        35
         2        14        19        34        35
         2        14        29        34        35
         2        14        29        30        35
         2        15        20        21        36
         2        15        16        21        36
         2        15        16        31        36
         2        15        20        35        36
         2        15        30        35        36
         2        15        30        31        36
         2        16        21        22        37
         2        16        17        22        37
         2        16        17        32        37
         2        16        21        36        37
         2        16        31        36        37
         2        16        31        32        37
         2        17        22        23        38
         2        17        18        23        38
         2        17        18        33        38
         2        17        22        37        38
         2        17        32        37        38
         2        17        32        33        38
         2        18        19        23        34
         2        14        18        19        34
         2        14        18        29        34
         2        18        23        34        38
         2        18        33        34        38
         2        18        29        33        34
         2         9        10        19        25
         2        10        19        20        25
         2        19        20        25        35
         2         9        19        24        25
         2        19        24        25        34
         2        19        25        34        35
         2        10        11        20        26
         2        11        20        21        26
         2        20        21        26        36
         2        10        20        25        26
         2        20        25        26        35
         2        20        26        35        36
         2        11        12        21        27
         2        12        21        22        27
         2        21        22        27        37
         2        11        21        26        27
         2        21        26        27        36
         2        21        27        36        37
         2        12        13        22        28
         2        13        22        23        28
         2        22        23        28        38
         2        12        22        27        28
         2        22        27        28        37
         2        22        28        37        38
         2         9        13        23        24
         2         9        19        23        24
         2        19        23        24        34
         2        13        23        24        28
         2        23        24        28        38
         2        23        24        34        38
         2        24        29        30        38
         2        24        25        30        38
         2        24        25        28        38
         2        24        29        34        38
         2        24        24        34        38
         2        24        24        28        38
         2        25        30        31        37
         2        25        26        31        37
         2        25        26        27        37
         2        25        30        37        38
         2        25        28        37        38
         2        25        27        28        37
         2        26        31        32        36
         2        26        27        32        36
         4        26        26        27        36
         2        26        31        36        37
         2        26        27        36        37
         2        27        32        33        35
         2        27        28        33        35
         2        25        27        28        35
         2        27        32        35        36
         2        26        27        35        36
         2        25        26        27        35
         2        28        29        33        34
         2        24        28        29        34
         2        24        24        28        34
         2        28        33        34        35
         2        25        28        34        35
         2        24        25        28        34
         2        29        33        34        35
         2        29        30        33        35
         2        29        30        33        38
         4        29        29        33        34
         2        29        33        34        38
         2        30        32        35        36
         2        30        31        32        36
         2        30        31        32        37
         2        30        32        33        35
         2        30        32        33        38
         2        30        32        37        38
         2        31        31        36        37
         2        31        31        32        37
         2        31        31        32        36
