  18  18   0   0
  0.7163698E+01  0.3512509E-09  0.5715963E-09  0.7168827E-09  0.5000000E-15
  1.000000000000000E-004
  CAR 
 unknown system                          
     10.95112671    -34.75559732  301      2.72046693      1.00000000
    -34.756  0.0000E+00  0.0000E+00
    -34.603  0.0000E+00  0.0000E+00
    -34.451  0.0000E+00  0.0000E+00
    -34.299  0.0000E+00  0.0000E+00
    -34.146  0.0000E+00  0.0000E+00
    -33.994  0.0000E+00  0.0000E+00
    -33.841  0.0000E+00  0.0000E+00
    -33.689  0.0000E+00  0.0000E+00
    -33.537  0.3049E-31  0.4646E-32
    -33.384  0.4221E-21  0.6431E-22
    -33.232  0.4936E-13  0.7520E-14
    -33.080  0.4381E-07  0.6675E-08
    -32.927  0.2025E-03  0.3086E-04
    -32.775 -0.6684E-02 -0.9875E-03
    -32.623  0.1647E+00  0.2411E-01
    -32.470  0.6084E-01  0.3338E-01
    -32.318 -0.2991E-03  0.3333E-01
    -32.166  0.2542E-04  0.3333E-01
    -32.013  0.9302E-09  0.3333E-01
    -31.861  0.2151E-15  0.3333E-01
    -31.708  0.0000E+00  0.3333E-01
    -31.556  0.0000E+00  0.3333E-01
    -31.404  0.0000E+00  0.3333E-01
    -31.251  0.0000E+00  0.3333E-01
    -31.099  0.0000E+00  0.3333E-01
    -30.947  0.0000E+00  0.3333E-01
    -30.794  0.0000E+00  0.3333E-01
    -30.642  0.0000E+00  0.3333E-01
    -30.490  0.0000E+00  0.3333E-01
    -30.337  0.0000E+00  0.3333E-01
    -30.185  0.2442E-29  0.3333E-01
    -30.033  0.1229E-19  0.3333E-01
    -29.880  0.5488E-12  0.3333E-01
    -29.728  0.1992E-06  0.3333E-01
    -29.576  0.3803E-03  0.3339E-01
    -29.423 -0.8210E-02  0.3214E-01
    -29.271  0.2022E+00  0.6295E-01
    -29.118  0.2555E+00  0.1019E+00
    -28.966  0.2095E+00  0.1338E+00
    -28.814  0.1280E+00  0.1533E+00
    -28.661  0.3895E+00  0.2126E+00
    -28.509  0.1396E+00  0.2339E+00
    -28.357 -0.3812E-02  0.2333E+00
    -28.204  0.1028E-03  0.2333E+00
    -28.052  0.7138E-08  0.2333E+00
    -27.900  0.2704E-14  0.2333E+00
    -27.747  0.0000E+00  0.2333E+00
    -27.595  0.0000E+00  0.2333E+00
    -27.443  0.0000E+00  0.2333E+00
    -27.290  0.0000E+00  0.2333E+00
    -27.138  0.0000E+00  0.2333E+00
    -26.985  0.0000E+00  0.2333E+00
    -26.833  0.0000E+00  0.2333E+00
    -26.681  0.0000E+00  0.2333E+00
    -26.528  0.0000E+00  0.2333E+00
    -26.376  0.0000E+00  0.2333E+00
    -26.224  0.0000E+00  0.2333E+00
    -26.071  0.0000E+00  0.2333E+00
    -25.919  0.0000E+00  0.2333E+00
    -25.767  0.0000E+00  0.2333E+00
    -25.614  0.0000E+00  0.2333E+00
    -25.462  0.0000E+00  0.2333E+00
    -25.310  0.0000E+00  0.2333E+00
    -25.157  0.0000E+00  0.2333E+00
    -25.005  0.0000E+00  0.2333E+00
    -24.852  0.0000E+00  0.2333E+00
    -24.700  0.0000E+00  0.2333E+00
    -24.548  0.0000E+00  0.2333E+00
    -24.395  0.0000E+00  0.2333E+00
    -24.243  0.0000E+00  0.2333E+00
    -24.091  0.0000E+00  0.2333E+00
    -23.938  0.0000E+00  0.2333E+00
    -23.786  0.0000E+00  0.2333E+00
    -23.634  0.0000E+00  0.2333E+00
    -23.481  0.0000E+00  0.2333E+00
    -23.329  0.0000E+00  0.2333E+00
    -23.177  0.0000E+00  0.2333E+00
    -23.024  0.0000E+00  0.2333E+00
    -22.872  0.0000E+00  0.2333E+00
    -22.719  0.0000E+00  0.2333E+00
    -22.567  0.0000E+00  0.2333E+00
    -22.415  0.0000E+00  0.2333E+00
    -22.262  0.0000E+00  0.2333E+00
    -22.110  0.0000E+00  0.2333E+00
    -21.958  0.0000E+00  0.2333E+00
    -21.805  0.0000E+00  0.2333E+00
    -21.653  0.0000E+00  0.2333E+00
    -21.501  0.0000E+00  0.2333E+00
    -21.348  0.0000E+00  0.2333E+00
    -21.196  0.0000E+00  0.2333E+00
    -21.044  0.0000E+00  0.2333E+00
    -20.891  0.0000E+00  0.2333E+00
    -20.739  0.0000E+00  0.2333E+00
    -20.587  0.0000E+00  0.2333E+00
    -20.434  0.0000E+00  0.2333E+00
    -20.282  0.0000E+00  0.2333E+00
    -20.129  0.0000E+00  0.2333E+00
    -19.977  0.0000E+00  0.2333E+00
    -19.825  0.0000E+00  0.2333E+00
    -19.672  0.0000E+00  0.2333E+00
    -19.520  0.0000E+00  0.2333E+00
    -19.368  0.0000E+00  0.2333E+00
    -19.215  0.0000E+00  0.2333E+00
    -19.063  0.0000E+00  0.2333E+00
    -18.911  0.0000E+00  0.2333E+00
    -18.758  0.0000E+00  0.2333E+00
    -18.606  0.0000E+00  0.2333E+00
    -18.454  0.0000E+00  0.2333E+00
    -18.301  0.0000E+00  0.2333E+00
    -18.149  0.0000E+00  0.2333E+00
    -17.996  0.0000E+00  0.2333E+00
    -17.844  0.0000E+00  0.2333E+00
    -17.692  0.0000E+00  0.2333E+00
    -17.539  0.0000E+00  0.2333E+00
    -17.387  0.0000E+00  0.2333E+00
    -17.235  0.0000E+00  0.2333E+00
    -17.082  0.0000E+00  0.2333E+00
    -16.930  0.0000E+00  0.2333E+00
    -16.778  0.0000E+00  0.2333E+00
    -16.625  0.0000E+00  0.2333E+00
    -16.473  0.0000E+00  0.2333E+00
    -16.321  0.0000E+00  0.2333E+00
    -16.168  0.7022E-36  0.2333E+00
    -16.016  0.5715E-25  0.2333E+00
    -15.863  0.3914E-16  0.2333E+00
    -15.711  0.2056E-09  0.2333E+00
    -15.559  0.6283E-05  0.2333E+00
    -15.406 -0.9869E-04  0.2333E+00
    -15.254  0.1366E-01  0.2354E+00
    -15.102  0.5458E-01  0.2437E+00
    -14.949  0.3051E-01  0.2484E+00
    -14.797  0.1954E+00  0.2781E+00
    -14.645  0.2955E+00  0.3231E+00
    -14.492  0.6041E-01  0.3323E+00
    -14.340  0.6341E-02  0.3333E+00
    -14.188  0.1423E-03  0.3333E+00
    -14.035  0.2096E-05  0.3333E+00
    -13.883  0.4328E-10  0.3333E+00
    -13.731  0.5605E-17  0.3333E+00
    -13.578  0.0000E+00  0.3333E+00
    -13.426  0.0000E+00  0.3333E+00
    -13.273  0.0000E+00  0.3333E+00
    -13.121  0.0000E+00  0.3333E+00
    -12.969  0.0000E+00  0.3333E+00
    -12.816  0.0000E+00  0.3333E+00
    -12.664  0.0000E+00  0.3333E+00
    -12.512  0.0000E+00  0.3333E+00
    -12.359  0.0000E+00  0.3333E+00
    -12.207  0.0000E+00  0.3333E+00
    -12.055  0.0000E+00  0.3333E+00
    -11.902  0.0000E+00  0.3333E+00
    -11.750  0.0000E+00  0.3333E+00
    -11.598  0.0000E+00  0.3333E+00
    -11.445  0.0000E+00  0.3333E+00
    -11.293  0.0000E+00  0.3333E+00
    -11.140  0.0000E+00  0.3333E+00
    -10.988  0.0000E+00  0.3333E+00
    -10.836  0.0000E+00  0.3333E+00
    -10.683  0.0000E+00  0.3333E+00
    -10.531  0.0000E+00  0.3333E+00
    -10.379  0.0000E+00  0.3333E+00
    -10.226  0.0000E+00  0.3333E+00
    -10.074  0.0000E+00  0.3333E+00
     -9.922  0.0000E+00  0.3333E+00
     -9.769  0.0000E+00  0.3333E+00
     -9.617  0.0000E+00  0.3333E+00
     -9.465  0.0000E+00  0.3333E+00
     -9.312  0.0000E+00  0.3333E+00
     -9.160  0.0000E+00  0.3333E+00
     -9.007  0.0000E+00  0.3333E+00
     -8.855  0.0000E+00  0.3333E+00
     -8.703  0.4374E-38  0.3333E+00
     -8.550  0.4002E-27  0.3333E+00
     -8.398  0.3079E-18  0.3333E+00
     -8.246  0.1819E-11  0.3333E+00
     -8.093  0.6360E-07  0.3333E+00
     -7.941  0.3235E-05  0.3333E+00
     -7.789  0.3509E-04  0.3333E+00
     -7.636  0.3460E-02  0.3339E+00
     -7.484  0.6399E-02  0.3348E+00
     -7.332  0.1217E-01  0.3367E+00
     -7.179  0.9629E-02  0.3382E+00
     -7.027  0.2296E-01  0.3417E+00
     -6.874  0.1874E-01  0.3445E+00
     -6.722  0.2129E-01  0.3478E+00
     -6.570  0.2298E-01  0.3513E+00
     -6.417  0.1813E-01  0.3540E+00
     -6.265  0.2097E-01  0.3572E+00
     -6.113  0.2032E-01  0.3603E+00
     -5.960  0.2929E-01  0.3648E+00
     -5.808  0.2696E-01  0.3689E+00
     -5.656  0.5617E-01  0.3774E+00
     -5.503  0.2145E-01  0.3807E+00
     -5.351  0.1406E-01  0.3829E+00
     -5.199  0.2388E-01  0.3865E+00
     -5.046  0.3269E-01  0.3915E+00
     -4.894  0.4407E-01  0.3982E+00
     -4.742  0.3941E-01  0.4042E+00
     -4.589  0.3630E-01  0.4097E+00
     -4.437  0.5922E-01  0.4187E+00
     -4.284  0.7008E-01  0.4294E+00
     -4.132  0.5298E-01  0.4375E+00
     -3.980  0.2301E-01  0.4410E+00
     -3.827  0.2458E-01  0.4447E+00
     -3.675  0.2793E-01  0.4490E+00
     -3.523  0.3406E-01  0.4542E+00
     -3.370  0.3741E-01  0.4599E+00
     -3.218  0.4005E-01  0.4660E+00
     -3.066  0.6149E-01  0.4754E+00
     -2.913  0.1165E+00  0.4931E+00
     -2.761  0.1228E+00  0.5118E+00
     -2.609  0.9133E-01  0.5257E+00
     -2.456  0.9692E-01  0.5405E+00
     -2.304  0.1099E+00  0.5572E+00
     -2.151  0.8357E-01  0.5700E+00
     -1.999  0.6110E-01  0.5793E+00
     -1.847  0.3940E-01  0.5853E+00
     -1.694  0.9127E-01  0.5992E+00
     -1.542  0.1190E+00  0.6173E+00
     -1.390  0.1063E+00  0.6335E+00
     -1.237  0.7527E-01  0.6450E+00
     -1.085  0.4628E-01  0.6520E+00
     -0.933  0.8379E-01  0.6648E+00
     -0.780  0.7684E-01  0.6765E+00
     -0.628  0.4431E-01  0.6832E+00
     -0.476  0.1853E-01  0.6861E+00
     -0.323  0.6591E-01  0.6961E+00
     -0.171  0.1091E+00  0.7127E+00
     -0.018  0.5632E-01  0.7213E+00
      0.134  0.1568E-01  0.7237E+00
      0.286  0.1054E-01  0.7253E+00
      0.439  0.1458E-01  0.7275E+00
      0.591  0.2129E-01  0.7308E+00
      0.743  0.3311E-01  0.7358E+00
      0.896  0.7592E-01  0.7474E+00
      1.048  0.4692E-01  0.7545E+00
      1.200  0.3420E-01  0.7597E+00
      1.353  0.2311E-01  0.7633E+00
      1.505  0.1570E-01  0.7657E+00
      1.657  0.6612E-02  0.7667E+00
      1.810  0.5827E-05  0.7667E+00
      1.962  0.1193E-04  0.7667E+00
      2.114  0.1479E-02  0.7669E+00
      2.267  0.2314E-01  0.7704E+00
      2.419  0.2990E-01  0.7750E+00
      2.572  0.2708E-01  0.7791E+00
      2.724  0.2836E-01  0.7834E+00
      2.876  0.2446E-01  0.7871E+00
      3.029  0.3129E-01  0.7919E+00
      3.181  0.3972E-01  0.7980E+00
      3.333  0.6454E-01  0.8078E+00
      3.486  0.8440E-01  0.8207E+00
      3.638  0.6598E-01  0.8307E+00
      3.790  0.5758E-01  0.8395E+00
      3.943  0.5076E-01  0.8472E+00
      4.095  0.5160E-01  0.8551E+00
      4.247  0.4684E-01  0.8622E+00
      4.400  0.6072E-01  0.8715E+00
      4.552  0.4509E-01  0.8783E+00
      4.705  0.6230E-01  0.8878E+00
      4.857  0.7557E-01  0.8993E+00
      5.009  0.5626E-01  0.9079E+00
      5.162  0.7947E-01  0.9200E+00
      5.314  0.6859E-01  0.9305E+00
      5.466  0.5437E-01  0.9388E+00
      5.619  0.7124E-01  0.9496E+00
      5.771  0.5243E-01  0.9576E+00
      5.923  0.3963E-01  0.9636E+00
      6.076  0.6344E-01  0.9733E+00
      6.228  0.1016E+00  0.9888E+00
      6.380  0.9097E-01  0.1003E+01
      6.533  0.8451E-01  0.1016E+01
      6.685  0.9480E-01  0.1030E+01
      6.838  0.9585E-01  0.1045E+01
      6.990  0.8559E-01  0.1058E+01
      7.142  0.7433E-01  0.1069E+01
      7.295  0.7546E-01  0.1080E+01
      7.447  0.8521E-01  0.1093E+01
      7.599  0.8363E-01  0.1106E+01
      7.752  0.9047E-01  0.1120E+01
      7.904  0.8960E-01  0.1134E+01
      8.056  0.8149E-01  0.1146E+01
      8.209  0.8354E-01  0.1159E+01
      8.361  0.8972E-01  0.1172E+01
      8.513  0.9277E-01  0.1187E+01
      8.666  0.6567E-01  0.1197E+01
      8.818  0.2052E-01  0.1200E+01
      8.971  0.2320E-02  0.1200E+01
      9.123 -0.6410E-04  0.1200E+01
      9.275  0.3320E-05  0.1200E+01
      9.428  0.7491E-09  0.1200E+01
      9.580  0.9152E-15  0.1200E+01
      9.732  0.0000E+00  0.1200E+01
      9.885  0.0000E+00  0.1200E+01
     10.037  0.0000E+00  0.1200E+01
     10.189  0.0000E+00  0.1200E+01
     10.342  0.0000E+00  0.1200E+01
     10.494  0.0000E+00  0.1200E+01
     10.646  0.0000E+00  0.1200E+01
     10.799  0.0000E+00  0.1200E+01
     10.951  0.0000E+00  0.1200E+01
