  15  15   0   0
  0.9528383E+01  0.4997948E-09  0.4897580E-09  0.6230138E-09  0.5000000E-15
  1.000000000000000E-004
  CAR 
 unknown system                          
      9.76968986    -35.46565945  301      2.39749483      1.00000000
    -35.466  0.0000E+00  0.0000E+00
    -35.315  0.0000E+00  0.0000E+00
    -35.164  0.0000E+00  0.0000E+00
    -35.013  0.0000E+00  0.0000E+00
    -34.863  0.0000E+00  0.0000E+00
    -34.712  0.0000E+00  0.0000E+00
    -34.561  0.0000E+00  0.0000E+00
    -34.410  0.0000E+00  0.0000E+00
    -34.259  0.6499E-30  0.9800E-31
    -34.109  0.5076E-20  0.7654E-21
    -33.958  0.3565E-12  0.5375E-13
    -33.807  0.1953E-06  0.2945E-07
    -33.656  0.4891E-03  0.7378E-04
    -33.505 -0.1185E-01 -0.1713E-02
    -33.355  0.2224E+00  0.3181E-01
    -33.204  0.9642E-01  0.4635E-01
    -33.053  0.1388E+00  0.6727E-01
    -32.902 -0.4129E-02  0.6665E-01
    -32.752  0.9635E-04  0.6667E-01
    -32.601  0.7062E-08  0.6667E-01
    -32.450  0.3071E-14  0.6667E-01
    -32.299  0.0000E+00  0.6667E-01
    -32.148  0.0000E+00  0.6667E-01
    -31.998  0.0000E+00  0.6667E-01
    -31.847  0.0000E+00  0.6667E-01
    -31.696  0.0000E+00  0.6667E-01
    -31.545  0.0000E+00  0.6667E-01
    -31.394  0.0000E+00  0.6667E-01
    -31.244  0.0000E+00  0.6667E-01
    -31.093  0.0000E+00  0.6667E-01
    -30.942  0.0000E+00  0.6667E-01
    -30.791  0.0000E+00  0.6667E-01
    -30.641  0.0000E+00  0.6667E-01
    -30.490  0.0000E+00  0.6667E-01
    -30.339  0.0000E+00  0.6667E-01
    -30.188  0.0000E+00  0.6667E-01
    -30.037  0.0000E+00  0.6667E-01
    -29.887  0.0000E+00  0.6667E-01
    -29.736  0.0000E+00  0.6667E-01
    -29.585  0.3014E-27  0.6667E-01
    -29.434  0.7291E-18  0.6667E-01
    -29.283  0.1551E-10  0.6667E-01
    -29.133  0.2438E-05  0.6667E-01
    -28.982  0.1325E-02  0.6687E-01
    -28.831 -0.8095E-02  0.6565E-01
    -28.680  0.5213E+00  0.1443E+00
    -28.530  0.1500E+00  0.1669E+00
    -28.379 -0.1419E-02  0.1667E+00
    -28.228  0.8032E-04  0.1667E+00
    -28.077  0.3869E-08  0.1667E+00
    -27.926  0.1239E-14  0.1667E+00
    -27.776  0.0000E+00  0.1667E+00
    -27.625  0.0000E+00  0.1667E+00
    -27.474  0.0000E+00  0.1667E+00
    -27.323  0.0000E+00  0.1667E+00
    -27.173  0.0000E+00  0.1667E+00
    -27.022  0.0000E+00  0.1667E+00
    -26.871  0.0000E+00  0.1667E+00
    -26.720  0.0000E+00  0.1667E+00
    -26.569  0.0000E+00  0.1667E+00
    -26.419  0.0000E+00  0.1667E+00
    -26.268  0.0000E+00  0.1667E+00
    -26.117  0.0000E+00  0.1667E+00
    -25.966  0.0000E+00  0.1667E+00
    -25.815  0.0000E+00  0.1667E+00
    -25.665  0.0000E+00  0.1667E+00
    -25.514  0.0000E+00  0.1667E+00
    -25.363  0.0000E+00  0.1667E+00
    -25.212  0.0000E+00  0.1667E+00
    -25.062  0.0000E+00  0.1667E+00
    -24.911  0.0000E+00  0.1667E+00
    -24.760  0.0000E+00  0.1667E+00
    -24.609  0.0000E+00  0.1667E+00
    -24.458  0.0000E+00  0.1667E+00
    -24.308  0.0000E+00  0.1667E+00
    -24.157  0.0000E+00  0.1667E+00
    -24.006  0.0000E+00  0.1667E+00
    -23.855  0.0000E+00  0.1667E+00
    -23.704  0.0000E+00  0.1667E+00
    -23.554  0.0000E+00  0.1667E+00
    -23.403  0.0000E+00  0.1667E+00
    -23.252  0.0000E+00  0.1667E+00
    -23.101  0.0000E+00  0.1667E+00
    -22.951  0.0000E+00  0.1667E+00
    -22.800  0.0000E+00  0.1667E+00
    -22.649  0.0000E+00  0.1667E+00
    -22.498  0.0000E+00  0.1667E+00
    -22.347  0.0000E+00  0.1667E+00
    -22.197  0.0000E+00  0.1667E+00
    -22.046  0.0000E+00  0.1667E+00
    -21.895  0.0000E+00  0.1667E+00
    -21.744  0.0000E+00  0.1667E+00
    -21.593  0.0000E+00  0.1667E+00
    -21.443  0.0000E+00  0.1667E+00
    -21.292  0.0000E+00  0.1667E+00
    -21.141  0.0000E+00  0.1667E+00
    -20.990  0.0000E+00  0.1667E+00
    -20.840  0.0000E+00  0.1667E+00
    -20.689  0.0000E+00  0.1667E+00
    -20.538  0.0000E+00  0.1667E+00
    -20.387  0.0000E+00  0.1667E+00
    -20.236  0.0000E+00  0.1667E+00
    -20.086  0.0000E+00  0.1667E+00
    -19.935  0.0000E+00  0.1667E+00
    -19.784  0.0000E+00  0.1667E+00
    -19.633  0.0000E+00  0.1667E+00
    -19.483  0.0000E+00  0.1667E+00
    -19.332  0.0000E+00  0.1667E+00
    -19.181  0.0000E+00  0.1667E+00
    -19.030  0.0000E+00  0.1667E+00
    -18.879  0.0000E+00  0.1667E+00
    -18.729  0.0000E+00  0.1667E+00
    -18.578  0.0000E+00  0.1667E+00
    -18.427  0.0000E+00  0.1667E+00
    -18.276  0.0000E+00  0.1667E+00
    -18.125  0.0000E+00  0.1667E+00
    -17.975  0.0000E+00  0.1667E+00
    -17.824  0.0000E+00  0.1667E+00
    -17.673  0.0000E+00  0.1667E+00
    -17.522  0.0000E+00  0.1667E+00
    -17.372  0.0000E+00  0.1667E+00
    -17.221  0.0000E+00  0.1667E+00
    -17.070  0.0000E+00  0.1667E+00
    -16.919  0.0000E+00  0.1667E+00
    -16.768  0.0000E+00  0.1667E+00
    -16.618  0.1888E-37  0.1667E+00
    -16.467  0.2104E-26  0.1667E+00
    -16.316  0.2271E-17  0.1667E+00
    -16.165  0.2448E-10  0.1667E+00
    -16.014  0.2368E-05  0.1667E+00
    -15.864  0.8879E-03  0.1668E+00
    -15.713  0.8920E-03  0.1669E+00
    -15.562  0.2145E+00  0.1993E+00
    -15.411  0.4766E+00  0.2712E+00
    -15.261  0.3331E+00  0.3214E+00
    -15.110  0.3127E+00  0.3685E+00
    -14.959 -0.1287E-01  0.3666E+00
    -14.808  0.5516E-03  0.3667E+00
    -14.657  0.2400E-06  0.3667E+00
    -14.507  0.5504E-12  0.3667E+00
    -14.356  0.0000E+00  0.3667E+00
    -14.205  0.0000E+00  0.3667E+00
    -14.054  0.0000E+00  0.3667E+00
    -13.903  0.0000E+00  0.3667E+00
    -13.753  0.0000E+00  0.3667E+00
    -13.602  0.0000E+00  0.3667E+00
    -13.451  0.0000E+00  0.3667E+00
    -13.300  0.0000E+00  0.3667E+00
    -13.150  0.0000E+00  0.3667E+00
    -12.999  0.0000E+00  0.3667E+00
    -12.848  0.0000E+00  0.3667E+00
    -12.697  0.0000E+00  0.3667E+00
    -12.546  0.0000E+00  0.3667E+00
    -12.396  0.0000E+00  0.3667E+00
    -12.245  0.0000E+00  0.3667E+00
    -12.094  0.0000E+00  0.3667E+00
    -11.943  0.0000E+00  0.3667E+00
    -11.792  0.0000E+00  0.3667E+00
    -11.642  0.0000E+00  0.3667E+00
    -11.491  0.0000E+00  0.3667E+00
    -11.340  0.0000E+00  0.3667E+00
    -11.189  0.0000E+00  0.3667E+00
    -11.039  0.0000E+00  0.3667E+00
    -10.888  0.0000E+00  0.3667E+00
    -10.737  0.0000E+00  0.3667E+00
    -10.586  0.0000E+00  0.3667E+00
    -10.435  0.0000E+00  0.3667E+00
    -10.285  0.0000E+00  0.3667E+00
    -10.134  0.0000E+00  0.3667E+00
     -9.983  0.0000E+00  0.3667E+00
     -9.832  0.0000E+00  0.3667E+00
     -9.682  0.0000E+00  0.3667E+00
     -9.531  0.0000E+00  0.3667E+00
     -9.380  0.0000E+00  0.3667E+00
     -9.229  0.0000E+00  0.3667E+00
     -9.078  0.0000E+00  0.3667E+00
     -8.928  0.0000E+00  0.3667E+00
     -8.777  0.0000E+00  0.3667E+00
     -8.626  0.0000E+00  0.3667E+00
     -8.475  0.0000E+00  0.3667E+00
     -8.324  0.7767E-35  0.3667E+00
     -8.174  0.1551E-24  0.3667E+00
     -8.023  0.2865E-16  0.3667E+00
     -7.872  0.4558E-10  0.3667E+00
     -7.721  0.5542E-06  0.3667E+00
     -7.571  0.1560E-04  0.3667E+00
     -7.420  0.6410E-03  0.3668E+00
     -7.269  0.1291E-01  0.3687E+00
     -7.118  0.3889E-01  0.3746E+00
     -6.967  0.9202E-01  0.3885E+00
     -6.817  0.7439E-01  0.3997E+00
     -6.666  0.2034E-02  0.4000E+00
     -6.515  0.1625E-03  0.4000E+00
     -6.364  0.1480E-05  0.4000E+00
     -6.213  0.3777E-10  0.4000E+00
     -6.063  0.3878E-08  0.4000E+00
     -5.912  0.5263E-05  0.4000E+00
     -5.761 -0.3246E-04  0.4000E+00
     -5.610  0.3484E-02  0.4005E+00
     -5.460  0.2247E-01  0.4039E+00
     -5.309  0.2716E-01  0.4080E+00
     -5.158  0.2489E-01  0.4118E+00
     -5.007  0.3192E-01  0.4166E+00
     -4.856  0.2577E-01  0.4205E+00
     -4.706  0.2766E-01  0.4246E+00
     -4.555  0.2437E-01  0.4283E+00
     -4.404  0.1502E-01  0.4306E+00
     -4.253  0.1437E-01  0.4327E+00
     -4.102  0.4023E-02  0.4333E+00
     -3.952 -0.6122E-04  0.4333E+00
     -3.801  0.2497E-02  0.4337E+00
     -3.650  0.1580E-01  0.4361E+00
     -3.499  0.1352E-01  0.4381E+00
     -3.349  0.2857E-01  0.4424E+00
     -3.198  0.3817E-01  0.4482E+00
     -3.047  0.5936E-01  0.4571E+00
     -2.896  0.6070E-01  0.4663E+00
     -2.745  0.5270E-01  0.4742E+00
     -2.595  0.7877E-01  0.4861E+00
     -2.444  0.1120E+00  0.5030E+00
     -2.293  0.5980E-01  0.5120E+00
     -2.142  0.6305E-01  0.5215E+00
     -1.992  0.7788E-01  0.5333E+00
     -1.841  0.9135E-01  0.5471E+00
     -1.690  0.1223E+00  0.5655E+00
     -1.539  0.1230E+00  0.5840E+00
     -1.388  0.1084E+00  0.6004E+00
     -1.238  0.1459E+00  0.6224E+00
     -1.087  0.5336E-01  0.6304E+00
     -0.936  0.6614E-01  0.6404E+00
     -0.785  0.1620E+00  0.6648E+00
     -0.634  0.1510E-01  0.6671E+00
     -0.484  0.3576E-01  0.6725E+00
     -0.333  0.8713E-01  0.6856E+00
     -0.182  0.5083E-01  0.6933E+00
     -0.031  0.3745E-01  0.6989E+00
      0.119  0.7100E-02  0.7000E+00
      0.270 -0.8278E-04  0.7000E+00
      0.421  0.5611E-05  0.7000E+00
      0.572  0.7375E-09  0.7000E+00
      0.723  0.5518E-09  0.7000E+00
      0.873  0.1579E-05  0.7000E+00
      1.024 -0.3588E-04  0.7000E+00
      1.175  0.9101E-03  0.7001E+00
      1.326  0.4296E-02  0.7008E+00
      1.477  0.9603E-02  0.7022E+00
      1.627  0.1756E-01  0.7049E+00
      1.778  0.1662E-01  0.7074E+00
      1.929  0.1620E-01  0.7098E+00
      2.080  0.1661E-01  0.7123E+00
      2.230  0.1459E-01  0.7145E+00
      2.381  0.1242E-01  0.7164E+00
      2.532  0.1344E-01  0.7184E+00
      2.683  0.1092E-01  0.7201E+00
      2.834  0.1419E-01  0.7222E+00
      2.984  0.1576E-01  0.7246E+00
      3.135  0.3032E-01  0.7292E+00
      3.286  0.2170E-01  0.7324E+00
      3.437  0.2772E-01  0.7366E+00
      3.588  0.7117E-01  0.7473E+00
      3.738  0.8005E-01  0.7594E+00
      3.889  0.9532E-01  0.7738E+00
      4.040  0.8323E-01  0.7863E+00
      4.191  0.4277E-01  0.7928E+00
      4.341  0.2201E-01  0.7961E+00
      4.492  0.6053E-01  0.8052E+00
      4.643  0.9036E-01  0.8189E+00
      4.794  0.6607E-01  0.8288E+00
      4.945  0.4313E-01  0.8353E+00
      5.095  0.5868E-01  0.8442E+00
      5.246  0.8215E-01  0.8566E+00
      5.397  0.8876E-01  0.8699E+00
      5.548  0.9439E-01  0.8842E+00
      5.699  0.8404E-01  0.8968E+00
      5.849  0.6444E-01  0.9066E+00
      6.000  0.1107E+00  0.9233E+00
      6.151  0.8228E-01  0.9357E+00
      6.302  0.9690E-01  0.9503E+00
      6.452  0.8209E-01  0.9626E+00
      6.603  0.6501E-01  0.9725E+00
      6.754  0.8720E-01  0.9856E+00
      6.905  0.9912E-01  0.1001E+01
      7.056  0.1058E+00  0.1017E+01
      7.206  0.6579E-01  0.1026E+01
      7.357  0.8858E-01  0.1040E+01
      7.508  0.1120E+00  0.1057E+01
      7.659  0.6272E-01  0.1066E+01
      7.809  0.3576E-02  0.1067E+01
      7.960  0.3052E-04  0.1067E+01
      8.111  0.4311E-05  0.1067E+01
      8.262  0.9791E-09  0.1067E+01
      8.413  0.1651E-14  0.1067E+01
      8.563  0.0000E+00  0.1067E+01
      8.714  0.0000E+00  0.1067E+01
      8.865  0.0000E+00  0.1067E+01
      9.016  0.0000E+00  0.1067E+01
      9.167  0.0000E+00  0.1067E+01
      9.317  0.0000E+00  0.1067E+01
      9.468  0.0000E+00  0.1067E+01
      9.619  0.0000E+00  0.1067E+01
      9.770  0.0000E+00  0.1067E+01
