unknown system                          
           1
     2.560626   -0.130676   -0.221683
     0.302497    4.167219    0.379419
    -0.095992    1.221879    9.134018
   H 
  16
Direct configuration=     1
   0.32876425  0.46297226  0.93990269
   0.38237633  0.78579914  0.69056521
   0.56652630  0.68859697  0.65920713
   0.59343775  0.03651971  0.90424139
   0.77808946  0.05745926  0.84613460
   0.11155358  0.90845455  0.11968063
   0.08953592  0.57059433  0.92766123
   0.31274016  0.02137444  0.14111812
   0.06775924  0.31367419  0.65231224
   0.45060359  0.49797061  0.37447695
   0.26659422  0.44373948  0.43146573
   0.98469380  0.89816715  0.42174407
   0.74850502  0.00797930  0.41146186
   0.88101222  0.21792130  0.61269205
   0.84662044  0.37243330  0.19107044
   0.64208371  0.50630201  0.16715567
unknown system                          
           1
     2.562216   -0.132946   -0.224183
     0.298811    4.168731    0.380730
    -0.107550    1.228023    9.113101
   H 
  16
Direct configuration=     2
   0.32946736  0.46252165  0.93991449
   0.38087510  0.78665810  0.69092331
   0.56871087  0.68779307  0.65876355
   0.59211389  0.03611327  0.90462576
   0.77820314  0.05786746  0.84598451
   0.11234218  0.90835478  0.11980970
   0.08770263  0.57134029  0.92758565
   0.31307149  0.02099825  0.14119227
   0.06737505  0.31310232  0.65227429
   0.45096630  0.49836439  0.37432619
   0.26631465  0.44342595  0.43152722
   0.98580568  0.89772024  0.42170390
   0.74702241  0.00904709  0.41128762
   0.88179188  0.21799769  0.61289601
   0.84738169  0.37219528  0.19112484
   0.64175170  0.50645816  0.16695068
unknown system                          
           1
     2.561399   -0.131780   -0.222898
     0.300706    4.167954    0.380056
    -0.101609    1.224865    9.123853
   H 
  16
Direct configuration=     3
   0.32910649  0.46275306  0.93990830
   0.38164472  0.78621742  0.69073900
   0.56759039  0.68820520  0.65899182
   0.59279329  0.03632285  0.90442783
   0.77814481  0.05765751  0.84606186
   0.11193684  0.90840600  0.11974309
   0.08864399  0.57095731  0.92762486
   0.31290139  0.02119157  0.14115400
   0.06757293  0.31339624  0.65229386
   0.45078006  0.49816179  0.37440385
   0.26645835  0.44358720  0.43149555
   0.98523496  0.89794960  0.42172444
   0.74778363  0.00849854  0.41137764
   0.88139081  0.21795847  0.61279081
   0.84699069  0.37231747  0.19109671
   0.64192264  0.50637778  0.16705636
unknown system                          
           1
     2.562005   -0.132957   -0.225154
     0.298684    4.168624    0.381476
    -0.112290    1.231505    9.096266
   H 
  16
Direct configuration=     4
   0.32826360  0.46295859  0.93983214
   0.38216330  0.78601915  0.69077941
   0.56794744  0.68846401  0.65883851
   0.59202479  0.03590986  0.90462851
   0.77736190  0.05807500  0.84616367
   0.11256982  0.90806547  0.11986999
   0.08802897  0.57112666  0.92761624
   0.31370160  0.02092166  0.14129335
   0.06796742  0.31313434  0.65243387
   0.45084271  0.49855314  0.37433778
   0.26650415  0.44330717  0.43145028
   0.98478788  0.89824865  0.42158968
   0.74776508  0.00898674  0.41123525
   0.88149959  0.21759962  0.61286264
   0.84734948  0.37241582  0.19109428
   0.64211827  0.50617212  0.16686440
unknown system                          
           1
     2.563824   -0.136490   -0.231921
     0.292620    4.170636    0.385736
    -0.144333    1.251427    9.013504
   H 
  16
Direct configuration=     5
   0.32573501  0.46357515  0.93960224
   0.38371875  0.78542441  0.69090145
   0.56901680  0.68924168  0.65837723
   0.58972167  0.03466910  0.90523212
   0.77501615  0.05932613  0.84646937
   0.11446923  0.90704345  0.12025251
   0.08618465  0.57163437  0.92758981
   0.31610291  0.02011150  0.14171344
   0.06915188  0.31234795  0.65285563
   0.45103062  0.49972758  0.37413880
   0.26664025  0.44246752  0.43131416
   0.98344584  0.89914641  0.42118367
   0.74770863  0.01045221  0.41080647
   0.88182595  0.21652275  0.61307905
   0.84842579  0.37271108  0.19108718
   0.64270186  0.50555672  0.16628687
unknown system                          
           1
     2.567463   -0.143555   -0.245455
     0.280490    4.174660    0.394255
    -0.208420    1.291271    8.847980
   H 
  16
Direct configuration=     6
   0.32067812  0.46480817  0.93913385
   0.38682791  0.78423540  0.69115062
   0.57114483  0.69080460  0.65744646
   0.58512971  0.03217669  0.90644899
   0.77034257  0.06182036  0.84708250
   0.11827101  0.90499675  0.12102858
   0.08250040  0.57264762  0.92753341
   0.32090980  0.01848846  0.14256592
   0.07152704  0.31077091  0.65370976
   0.45140621  0.50207891  0.37373626
   0.26690448  0.44079086  0.43104009
   0.98075673  0.90094570  0.42036102
   0.74759086  0.01338849  0.40993922
   0.88247909  0.21436685  0.61351746
   0.85057803  0.37330284  0.19107412
   0.64384923  0.50433538  0.16512173
unknown system                          
           1
     2.569224   -0.143948   -0.247974
     0.279862    4.176065    0.395591
    -0.220256    1.298545    8.814300
   H 
  16
Direct configuration=     7
   0.31678147  0.46587007  0.93866207
   0.39193218  0.78172846  0.69055174
   0.56860217  0.69319802  0.65760979
   0.58468458  0.03145081  0.90641891
   0.76620047  0.06268271  0.84804351
   0.12030569  0.90434073  0.12157287
   0.08188966  0.57240103  0.92743847
   0.32279318  0.01757895  0.14306368
   0.07283958  0.31023437  0.65419879
   0.45060327  0.50314858  0.37389012
   0.26785515  0.44069869  0.43062897
   0.97733878  0.90266788  0.41983970
   0.74999629  0.01322215  0.40963127
   0.88286053  0.21342412  0.61381851
   0.85401548  0.37204479  0.19126853
   0.64219752  0.50526666  0.16425308
unknown system                          
           1
     2.567883   -0.143649   -0.246057
     0.280340    4.174995    0.394574
    -0.211246    1.293008    8.839938
   H 
  16
Direct configuration=     8
   0.31974741  0.46506091  0.93902358
   0.38805216  0.78363501  0.69100820
   0.57053528  0.69137694  0.65748571
   0.58502346  0.03200314  0.90644192
   0.76934742  0.06202850  0.84730990
   0.11875582  0.90484115  0.12115637
   0.08235469  0.57258848  0.92751113
   0.32135864  0.01827218  0.14268275
   0.07183925  0.31064375  0.65382468
   0.45121325  0.50233488  0.37377279
   0.26713362  0.44076795  0.43094301
   0.97994063  0.90135614  0.42023903
   0.74816770  0.01334809  0.40986614
   0.88256934  0.21414220  0.61358823
   0.85140001  0.37300262  0.19111911
   0.64345730  0.50455606  0.16491746
unknown system                          
           1
     2.570940   -0.143721   -0.247654
     0.280481    4.176743    0.395320
    -0.216765    1.295359    8.841351
   H 
  16
Direct configuration=     9
   0.31806253  0.46527889  0.93867577
   0.38916371  0.78309670  0.69099380
   0.57120019  0.69168867  0.65715484
   0.58359830  0.03141995  0.90676194
   0.76759393  0.06271896  0.84766448
   0.12003220  0.90445879  0.12157345
   0.08082674  0.57284749  0.92733301
   0.32262208  0.01772904  0.14306651
   0.07239876  0.31017584  0.65409471
   0.45110421  0.50327615  0.37376277
   0.26733267  0.44074843  0.43080488
   0.97935239  0.90161319  0.41995585
   0.74818064  0.01382958  0.40959408
   0.88325098  0.21377567  0.61390721
   0.85239737  0.37297077  0.19104332
   0.64377928  0.50432989  0.16450338
unknown system                          
           1
     2.580112   -0.143938   -0.252445
     0.280901    4.181985    0.397559
    -0.233321    1.302414    8.845590
   H 
  16
Direct configuration=    10
   0.31301151  0.46593342  0.93763162
   0.39249438  0.78148219  0.69095121
   0.57319041  0.69262378  0.65616255
   0.57932994  0.02967092  0.90772141
   0.76234191  0.06478939  0.84872719
   0.12385964  0.90331131  0.12282525
   0.07624704  0.57362480  0.92679795
   0.32641053  0.01609944  0.14421838
   0.07407711  0.30877220  0.65490509
   0.45077736  0.50609887  0.37373248
   0.26792822  0.44069003  0.43039063
   0.97758788  0.90238454  0.41910605
   0.74821760  0.01527385  0.40877789
   0.88529562  0.21267594  0.61486443
   0.85538545  0.37287516  0.19081642
   0.64474140  0.50365216  0.16326145
unknown system                          
           1
     2.598454   -0.144371   -0.262027
     0.281742    4.192469    0.402038
    -0.266435    1.316524    8.854067
   H 
  16
Direct configuration=    11
   0.30293099  0.46724593  0.93553898
   0.39913208  0.77825576  0.69086971
   0.57714385  0.69449371  0.65417985
   0.57083577  0.02617616  0.90963677
   0.75188825  0.06892455  0.85084655
   0.13150430  0.90101400  0.12533220
   0.06711253  0.57518095  0.92572362
   0.33397622  0.01283936  0.14652567
   0.07743286  0.30596530  0.65652754
   0.45012526  0.51173780  0.37367048
   0.26910973  0.44057428  0.42956287
   0.97405998  0.90392850  0.41740493
   0.74828043  0.01816119  0.40714534
   0.88938326  0.21047558  0.61678073
   0.86133779  0.37268354  0.19036546
   0.64664271  0.50230137  0.16077930
unknown system                          
           1
     2.599050   -0.144345   -0.262352
     0.281834    4.192773    0.402223
    -0.267530    1.317051    8.854347
   H 
  16
Direct configuration=    12
   0.30250510  0.46732139  0.93545903
   0.39932309  0.77816140  0.69087697
   0.57733216  0.69453953  0.65409790
   0.57054398  0.02605233  0.90970112
   0.75150215  0.06907113  0.85092732
   0.13176293  0.90092400  0.12542219
   0.06684426  0.57520879  0.92568591
   0.33426333  0.01272961  0.14661051
   0.07759088  0.30588210  0.65659371
   0.45007571  0.51192991  0.37367739
   0.26918006  0.44057912  0.42952577
   0.97394795  0.90397821  0.41734454
   0.74827024  0.01827238  0.40708680
   0.88949464  0.21037716  0.61684303
   0.86141876  0.37275760  0.19033053
   0.64684076  0.50217334  0.16070727
unknown system                          
           1
     2.600837   -0.144268   -0.263324
     0.282108    4.193683    0.402779
    -0.270816    1.318633    8.855186
   H 
  16
Direct configuration=    13
   0.30122759  0.46754779  0.93521913
   0.39989598  0.77787831  0.69089879
   0.57789686  0.69467697  0.65385205
   0.56966889  0.02568088  0.90989416
   0.75034422  0.06951085  0.85116958
   0.13253877  0.90065399  0.12569219
   0.06603960  0.57529233  0.92557274
   0.33512458  0.01240034  0.14686508
   0.07806493  0.30563246  0.65679222
   0.44992709  0.51250619  0.37369813
   0.26939095  0.44059367  0.42941447
   0.97361186  0.90412737  0.41716334
   0.74823962  0.01860592  0.40691119
   0.88982879  0.21008190  0.61702997
   0.86166157  0.37297977  0.19022575
   0.64743469  0.50178927  0.16049122
unknown system                          
           1
     2.604410   -0.144114   -0.265270
     0.282657    4.195503    0.403889
    -0.277389    1.321796    8.856866
   H 
  16
Direct configuration=    14
   0.29867364  0.46800085  0.93473909
   0.40104110  0.77731216  0.69094256
   0.57902485  0.69495187  0.65336048
   0.56792045  0.02493812  0.91028010
   0.74803044  0.07039011  0.85165382
   0.13409016  0.90011380  0.12623233
   0.06443105  0.57545956  0.92534624
   0.33684666  0.01174164  0.14737439
   0.07901294  0.30513309  0.65718935
   0.44963000  0.51365852  0.37373950
   0.26981216  0.44062279  0.42919192
   0.97293964  0.90442579  0.41680087
   0.74817790  0.01927298  0.40655992
   0.89049718  0.20949132  0.61740392
   0.86214657  0.37342405  0.19001621
   0.64862127  0.50102135  0.16005928
unknown system                          
           1
     2.611557   -0.143805   -0.269161
     0.283754    4.199145    0.406111
    -0.290534    1.328123    8.860224
   H 
  16
Direct configuration=    15
   0.29356992  0.46890793  0.93377803
   0.40332871  0.77617993  0.69103064
   0.58127516  0.69550177  0.65237778
   0.56443051  0.02345320  0.91105144
   0.74341127  0.07214796  0.85262116
   0.13719178  0.89903273  0.12731322
   0.06121702  0.57579462  0.92489266
   0.34028907  0.01042365  0.14839371
   0.08090867  0.30413398  0.65798401
   0.44903641  0.51596229  0.37382188
   0.27065229  0.44068118  0.42874702
   0.97159501  0.90502304  0.41607568
   0.74805256  0.02060703  0.40585729
   0.89183432  0.20830998  0.61815214
   0.86311401  0.37431237  0.18959725
   0.65098930  0.49948634  0.15919608
unknown system                          
           1
     2.611280   -0.143823   -0.268982
     0.283688    4.198827    0.405942
    -0.290005    1.327709    8.859462
   H 
  16
Direct configuration=    16
   0.29357088  0.46888486  0.93376113
   0.40347054  0.77611432  0.69100775
   0.58118885  0.69555983  0.65238581
   0.56443202  0.02344199  0.91104432
   0.74331582  0.07215554  0.85265305
   0.13724560  0.89904981  0.12733266
   0.06109877  0.57583208  0.92487885
   0.34029609  0.01039088  0.14839975
   0.08089897  0.30410507  0.65798287
   0.44902947  0.51598002  0.37383002
   0.27067746  0.44066966  0.42874574
   0.97157975  0.90504320  0.41607036
   0.74807337  0.02061905  0.40585675
   0.89188428  0.20831259  0.61817101
   0.86326086  0.37424990  0.18960521
   0.65087325  0.49954919  0.15916473
unknown system                          
           1
     2.610448   -0.143877   -0.268443
     0.283490    4.197874    0.405436
    -0.288416    1.326468    8.857176
   H 
  16
Direct configuration=    17
   0.29357379  0.46881564  0.93371042
   0.40389607  0.77591747  0.69093906
   0.58092989  0.69573402  0.65240993
   0.56443655  0.02340834  0.91102294
   0.74302942  0.07217829  0.85274874
   0.13740709  0.89910107  0.12739096
   0.06074401  0.57594447  0.92483743
   0.34031715  0.01029259  0.14841789
   0.08086986  0.30401834  0.65797943
   0.44900865  0.51603323  0.37385443
   0.27075298  0.44063510  0.42874190
   0.97153399  0.90510369  0.41605439
   0.74813580  0.02065512  0.40585513
   0.89203419  0.20832040  0.61822759
   0.86370145  0.37406247  0.18962908
   0.65052512  0.49973776  0.15907068
