  17  17   1   0
  0.7927645E+01  0.3667048E-09  0.5615742E-09  0.6547681E-09  0.5000000E-15
  1.000000000000000E-004
  CAR 
 unknown system                          
     16.60820872    -36.27169233  301      0.25950598      1.00000000
    -36.272  0.0000E+00  0.0000E+00  0.0000E+00  0.0000E+00
    -36.095  0.0000E+00  0.0000E+00  0.0000E+00  0.0000E+00
    -35.919  0.0000E+00  0.0000E+00  0.0000E+00  0.0000E+00
    -35.743  0.0000E+00  0.0000E+00  0.0000E+00  0.0000E+00
    -35.567  0.0000E+00  0.0000E+00  0.0000E+00  0.0000E+00
    -35.390  0.0000E+00  0.0000E+00  0.0000E+00  0.0000E+00
    -35.214  0.0000E+00  0.0000E+00  0.0000E+00  0.0000E+00
    -35.038  0.0000E+00  0.0000E+00  0.0000E+00  0.0000E+00
    -34.862  0.0000E+00  0.0000E+00  0.0000E+00  0.0000E+00
    -34.685  0.0000E+00  0.0000E+00  0.0000E+00  0.0000E+00
    -34.509  0.0000E+00  0.0000E+00  0.0000E+00  0.0000E+00
    -34.333  0.0000E+00  0.0000E+00  0.0000E+00  0.0000E+00
    -34.156  0.0000E+00  0.0000E+00  0.0000E+00  0.0000E+00
    -33.980  0.0000E+00  0.0000E+00  0.0000E+00  0.0000E+00
    -33.804  0.0000E+00  0.0000E+00  0.1010E-01  0.1010E-01
    -33.628  0.0000E+00  0.0000E+00  0.1010E-01  0.1010E-01
    -33.451  0.0000E+00  0.0000E+00  0.1010E-01  0.1010E-01
    -33.275  0.0000E+00  0.0000E+00  0.1010E-01  0.1010E-01
    -33.099  0.0000E+00  0.0000E+00  0.1010E-01  0.1010E-01
    -32.923  0.0000E+00  0.0000E+00  0.1010E-01  0.1010E-01
    -32.746  0.0000E+00  0.0000E+00  0.1010E-01  0.1010E-01
    -32.570  0.0000E+00  0.0000E+00  0.1010E-01  0.1010E-01
    -32.394  0.0000E+00  0.0000E+00  0.1010E-01  0.1010E-01
    -32.218  0.0000E+00  0.0000E+00  0.1010E-01  0.1010E-01
    -32.041  0.0000E+00  0.0000E+00  0.1010E-01  0.1010E-01
    -31.865  0.0000E+00  0.0000E+00  0.1010E-01  0.1010E-01
    -31.689  0.0000E+00  0.0000E+00  0.1010E-01  0.1010E-01
    -31.513  0.0000E+00  0.0000E+00  0.1010E-01  0.1010E-01
    -31.336  0.0000E+00  0.0000E+00  0.1010E-01  0.1010E-01
    -31.160  0.0000E+00  0.0000E+00  0.1010E-01  0.1010E-01
    -30.984  0.0000E+00  0.0000E+00  0.1010E-01  0.1010E-01
    -30.807  0.0000E+00  0.0000E+00  0.1010E-01  0.1010E-01
    -30.631  0.0000E+00  0.0000E+00  0.1010E-01  0.1010E-01
    -30.455  0.0000E+00  0.0000E+00  0.1010E-01  0.1010E-01
    -30.279  0.0000E+00  0.0000E+00  0.1010E-01  0.1010E-01
    -30.102  0.0000E+00  0.0000E+00  0.2020E-01  0.2020E-01
    -29.926  0.8219E-01  0.8219E-01  0.2528E-01  0.2528E-01
    -29.750  0.0000E+00  0.0000E+00  0.5051E-01  0.5051E-01
    -29.574  0.0000E+00  0.0000E+00  0.7071E-01  0.7071E-01
    -29.397  0.0000E+00  0.0000E+00  0.7071E-01  0.7071E-01
    -29.221  0.0000E+00  0.0000E+00  0.7071E-01  0.7071E-01
    -29.045  0.0000E+00  0.0000E+00  0.7071E-01  0.7071E-01
    -28.869  0.0000E+00  0.0000E+00  0.7071E-01  0.7071E-01
    -28.692  0.0000E+00  0.0000E+00  0.7071E-01  0.7071E-01
    -28.516  0.0000E+00  0.0000E+00  0.7071E-01  0.7071E-01
    -28.340  0.0000E+00  0.0000E+00  0.7071E-01  0.7071E-01
    -28.163  0.0000E+00  0.0000E+00  0.7071E-01  0.7071E-01
    -27.987  0.0000E+00  0.0000E+00  0.7071E-01  0.7071E-01
    -27.811  0.0000E+00  0.0000E+00  0.7071E-01  0.7071E-01
    -27.635  0.0000E+00  0.0000E+00  0.7071E-01  0.7071E-01
    -27.458  0.0000E+00  0.0000E+00  0.7071E-01  0.7071E-01
    -27.282  0.0000E+00  0.0000E+00  0.7071E-01  0.7071E-01
    -27.106  0.0000E+00  0.0000E+00  0.7071E-01  0.7071E-01
    -26.930  0.0000E+00  0.0000E+00  0.7071E-01  0.7071E-01
    -26.753  0.0000E+00  0.0000E+00  0.7071E-01  0.7071E-01
    -26.577  0.0000E+00  0.0000E+00  0.7071E-01  0.7071E-01
    -26.401  0.0000E+00  0.0000E+00  0.7071E-01  0.7071E-01
    -26.225  0.0000E+00  0.0000E+00  0.7071E-01  0.7071E-01
    -26.048  0.0000E+00  0.0000E+00  0.7071E-01  0.7071E-01
    -25.872  0.0000E+00  0.0000E+00  0.7071E-01  0.7071E-01
    -25.696  0.0000E+00  0.0000E+00  0.7071E-01  0.7071E-01
    -25.519  0.0000E+00  0.0000E+00  0.7071E-01  0.7071E-01
    -25.343  0.0000E+00  0.0000E+00  0.7071E-01  0.7071E-01
    -25.167  0.0000E+00  0.0000E+00  0.7071E-01  0.7071E-01
    -24.991  0.0000E+00  0.0000E+00  0.7071E-01  0.7071E-01
    -24.814  0.0000E+00  0.0000E+00  0.7071E-01  0.7071E-01
    -24.638  0.0000E+00  0.0000E+00  0.7071E-01  0.7071E-01
    -24.462  0.0000E+00  0.0000E+00  0.7071E-01  0.7071E-01
    -24.286  0.0000E+00  0.0000E+00  0.7071E-01  0.7071E-01
    -24.109  0.0000E+00  0.0000E+00  0.7071E-01  0.7071E-01
    -23.933  0.0000E+00  0.0000E+00  0.7071E-01  0.7071E-01
    -23.757  0.0000E+00  0.0000E+00  0.7071E-01  0.7071E-01
    -23.581  0.0000E+00  0.0000E+00  0.7071E-01  0.7071E-01
    -23.404  0.0000E+00  0.0000E+00  0.7071E-01  0.7071E-01
    -23.228  0.0000E+00  0.0000E+00  0.7071E-01  0.7071E-01
    -23.052  0.0000E+00  0.0000E+00  0.7071E-01  0.7071E-01
    -22.875  0.0000E+00  0.0000E+00  0.7071E-01  0.7071E-01
    -22.699  0.0000E+00  0.0000E+00  0.7071E-01  0.7071E-01
    -22.523  0.0000E+00  0.0000E+00  0.7071E-01  0.7071E-01
    -22.347  0.0000E+00  0.0000E+00  0.7071E-01  0.7071E-01
    -22.170  0.0000E+00  0.0000E+00  0.7071E-01  0.7071E-01
    -21.994  0.0000E+00  0.0000E+00  0.7071E-01  0.7071E-01
    -21.818  0.0000E+00  0.0000E+00  0.7071E-01  0.7071E-01
    -21.642  0.0000E+00  0.0000E+00  0.7071E-01  0.7071E-01
    -21.465  0.0000E+00  0.0000E+00  0.7071E-01  0.7071E-01
    -21.289  0.0000E+00  0.0000E+00  0.7071E-01  0.7071E-01
    -21.113  0.0000E+00  0.0000E+00  0.7071E-01  0.7071E-01
    -20.937  0.0000E+00  0.0000E+00  0.7071E-01  0.7071E-01
    -20.760  0.0000E+00  0.0000E+00  0.7071E-01  0.7071E-01
    -20.584  0.0000E+00  0.0000E+00  0.7071E-01  0.7071E-01
    -20.408  0.0000E+00  0.0000E+00  0.7071E-01  0.7071E-01
    -20.231  0.0000E+00  0.0000E+00  0.7071E-01  0.7071E-01
    -20.055  0.0000E+00  0.0000E+00  0.7071E-01  0.7071E-01
    -19.879  0.0000E+00  0.0000E+00  0.7071E-01  0.7071E-01
    -19.703  0.0000E+00  0.0000E+00  0.7071E-01  0.7071E-01
    -19.526  0.0000E+00  0.0000E+00  0.7071E-01  0.7071E-01
    -19.350  0.0000E+00  0.0000E+00  0.7071E-01  0.7071E-01
    -19.174  0.0000E+00  0.0000E+00  0.7071E-01  0.7071E-01
    -18.998  0.0000E+00  0.0000E+00  0.7071E-01  0.7071E-01
    -18.821  0.0000E+00  0.0000E+00  0.7071E-01  0.7071E-01
    -18.645  0.0000E+00  0.0000E+00  0.7071E-01  0.7071E-01
    -18.469  0.0000E+00  0.0000E+00  0.7071E-01  0.7071E-01
    -18.293  0.0000E+00  0.0000E+00  0.7071E-01  0.7071E-01
    -18.116  0.0000E+00  0.0000E+00  0.7071E-01  0.7071E-01
    -17.940  0.0000E+00  0.0000E+00  0.7071E-01  0.7071E-01
    -17.764  0.0000E+00  0.0000E+00  0.7071E-01  0.7071E-01
    -17.587  0.0000E+00  0.0000E+00  0.7071E-01  0.7071E-01
    -17.411  0.0000E+00  0.0000E+00  0.7071E-01  0.7071E-01
    -17.235  0.0000E+00  0.0000E+00  0.7071E-01  0.7071E-01
    -17.059  0.0000E+00  0.0000E+00  0.7071E-01  0.7071E-01
    -16.882  0.0000E+00  0.0000E+00  0.7071E-01  0.7071E-01
    -16.706  0.0000E+00  0.0000E+00  0.7071E-01  0.7071E-01
    -16.530  0.0000E+00  0.0000E+00  0.7071E-01  0.7071E-01
    -16.354  0.0000E+00  0.0000E+00  0.7071E-01  0.7071E-01
    -16.177  0.0000E+00  0.0000E+00  0.7071E-01  0.7071E-01
    -16.001  0.2415E-01  0.2415E-01  0.7576E-01  0.7576E-01
    -15.825  0.3223E-01  0.3223E-01  0.9897E-01  0.9897E-01
    -15.649  0.0000E+00  0.0000E+00  0.1010E+00  0.1010E+00
    -15.472  0.0000E+00  0.0000E+00  0.1010E+00  0.1010E+00
    -15.296  0.0000E+00  0.0000E+00  0.1010E+00  0.1010E+00
    -15.120  0.0000E+00  0.0000E+00  0.1010E+00  0.1010E+00
    -14.943  0.0000E+00  0.0000E+00  0.1010E+00  0.1010E+00
    -14.767  0.0000E+00  0.0000E+00  0.1010E+00  0.1010E+00
    -14.591  0.0000E+00  0.0000E+00  0.1010E+00  0.1010E+00
    -14.415  0.0000E+00  0.0000E+00  0.1010E+00  0.1010E+00
    -14.238  0.0000E+00  0.0000E+00  0.1010E+00  0.1010E+00
    -14.062  0.0000E+00  0.0000E+00  0.1010E+00  0.1010E+00
    -13.886  0.0000E+00  0.0000E+00  0.1010E+00  0.1010E+00
    -13.710  0.0000E+00  0.0000E+00  0.1010E+00  0.1010E+00
    -13.533  0.0000E+00  0.0000E+00  0.1010E+00  0.1010E+00
    -13.357  0.0000E+00  0.0000E+00  0.1010E+00  0.1010E+00
    -13.181  0.0000E+00  0.0000E+00  0.1010E+00  0.1010E+00
    -13.005  0.0000E+00  0.0000E+00  0.1010E+00  0.1010E+00
    -12.828  0.0000E+00  0.0000E+00  0.1010E+00  0.1010E+00
    -12.652  0.0000E+00  0.0000E+00  0.1010E+00  0.1010E+00
    -12.476  0.0000E+00  0.0000E+00  0.1010E+00  0.1010E+00
    -12.299  0.0000E+00  0.0000E+00  0.1010E+00  0.1010E+00
    -12.123  0.0000E+00  0.0000E+00  0.1010E+00  0.1010E+00
    -11.947  0.0000E+00  0.0000E+00  0.1010E+00  0.1010E+00
    -11.771  0.0000E+00  0.0000E+00  0.1010E+00  0.1010E+00
    -11.594  0.0000E+00  0.0000E+00  0.1010E+00  0.1010E+00
    -11.418  0.0000E+00  0.0000E+00  0.1010E+00  0.1010E+00
    -11.242  0.0000E+00  0.0000E+00  0.1010E+00  0.1010E+00
    -11.066  0.0000E+00  0.0000E+00  0.1010E+00  0.1010E+00
    -10.889  0.0000E+00  0.0000E+00  0.1010E+00  0.1010E+00
    -10.713  0.0000E+00  0.0000E+00  0.1010E+00  0.1010E+00
    -10.537  0.0000E+00  0.0000E+00  0.1010E+00  0.1010E+00
    -10.361  0.0000E+00  0.0000E+00  0.1010E+00  0.1010E+00
    -10.184  0.0000E+00  0.0000E+00  0.1010E+00  0.1010E+00
    -10.008  0.0000E+00  0.0000E+00  0.1010E+00  0.1010E+00
     -9.832  0.0000E+00  0.0000E+00  0.1010E+00  0.1010E+00
     -9.655  0.0000E+00  0.0000E+00  0.1010E+00  0.1010E+00
     -9.479  0.0000E+00  0.0000E+00  0.1010E+00  0.1010E+00
     -9.303  0.0000E+00  0.0000E+00  0.1010E+00  0.1010E+00
     -9.127  0.0000E+00  0.0000E+00  0.1010E+00  0.1010E+00
     -8.950  0.0000E+00  0.0000E+00  0.1010E+00  0.1010E+00
     -8.774  0.0000E+00  0.0000E+00  0.1010E+00  0.1010E+00
     -8.598  0.0000E+00  0.0000E+00  0.1010E+00  0.1010E+00
     -8.422  0.0000E+00  0.0000E+00  0.1010E+00  0.1010E+00
     -8.245  0.0000E+00  0.0000E+00  0.1010E+00  0.1010E+00
     -8.069  0.0000E+00  0.0000E+00  0.1010E+00  0.1010E+00
     -7.893  0.0000E+00  0.0000E+00  0.1010E+00  0.1010E+00
     -7.717  0.0000E+00  0.0000E+00  0.1010E+00  0.1010E+00
     -7.540  0.0000E+00  0.0000E+00  0.1010E+00  0.1010E+00
     -7.364  0.0000E+00  0.0000E+00  0.1010E+00  0.1010E+00
     -7.188  0.5113E-03  0.5113E-03  0.1010E+00  0.1010E+00
     -7.011  0.2242E-02  0.2242E-02  0.1013E+00  0.1013E+00
     -6.835  0.5155E-02  0.5155E-02  0.1019E+00  0.1019E+00
     -6.659  0.6345E-02  0.6345E-02  0.1030E+00  0.1030E+00
     -6.483  0.6763E-02  0.6763E-02  0.1041E+00  0.1041E+00
     -6.306  0.6885E-02  0.6885E-02  0.1054E+00  0.1054E+00
     -6.130  0.5577E-02  0.5577E-02  0.1064E+00  0.1064E+00
     -5.954  0.6173E-02  0.6173E-02  0.1074E+00  0.1074E+00
     -5.778  0.1548E-01  0.1548E-01  0.1093E+00  0.1093E+00
     -5.601  0.1488E-01  0.1488E-01  0.1121E+00  0.1121E+00
     -5.425  0.1462E-01  0.1462E-01  0.1148E+00  0.1148E+00
     -5.249  0.1238E-01  0.1238E-01  0.1167E+00  0.1167E+00
     -5.073  0.1787E-01  0.1787E-01  0.1195E+00  0.1195E+00
     -4.896  0.8014E-02  0.8014E-02  0.1218E+00  0.1218E+00
     -4.720  0.5758E-02  0.5758E-02  0.1230E+00  0.1230E+00
     -4.544  0.6079E-02  0.6079E-02  0.1240E+00  0.1240E+00
     -4.367  0.7499E-02  0.7499E-02  0.1252E+00  0.1252E+00
     -4.191  0.8313E-02  0.8313E-02  0.1266E+00  0.1266E+00
     -4.015  0.8757E-02  0.8757E-02  0.1280E+00  0.1280E+00
     -3.839  0.1191E-01  0.1191E-01  0.1298E+00  0.1298E+00
     -3.662  0.1758E-01  0.1758E-01  0.1323E+00  0.1323E+00
     -3.486  0.5229E-01  0.5229E-01  0.1375E+00  0.1375E+00
     -3.310  0.7861E-02  0.7861E-02  0.1417E+00  0.1417E+00
     -3.134  0.5575E-01  0.5575E-01  0.1492E+00  0.1492E+00
     -2.957  0.3458E-01  0.3458E-01  0.1543E+00  0.1543E+00
     -2.781  0.1563E-01  0.1563E-01  0.1628E+00  0.1628E+00
     -2.605  0.3692E-01  0.3692E-01  0.1669E+00  0.1669E+00
     -2.429  0.2791E-01  0.2791E-01  0.1723E+00  0.1723E+00
     -2.252  0.5756E-02  0.5756E-02  0.1820E+00  0.1820E+00
     -2.076  0.3544E-01  0.3544E-01  0.1873E+00  0.1873E+00
     -1.900  0.1371E-01  0.1371E-01  0.1925E+00  0.1925E+00
     -1.723  0.2346E-01  0.2346E-01  0.1971E+00  0.1971E+00
     -1.547  0.3999E-01  0.3999E-01  0.2026E+00  0.2026E+00
     -1.371  0.1415E-01  0.1415E-01  0.2070E+00  0.2070E+00
     -1.195  0.2455E-01  0.2455E-01  0.2110E+00  0.2110E+00
     -1.018  0.2910E-01  0.2910E-01  0.2152E+00  0.2152E+00
     -0.842  0.2212E-01  0.2212E-01  0.2206E+00  0.2206E+00
     -0.666  0.1315E-01  0.1315E-01  0.2231E+00  0.2231E+00
     -0.490  0.1448E-01  0.1448E-01  0.2256E+00  0.2256E+00
     -0.313  0.1316E-01  0.1316E-01  0.2281E+00  0.2281E+00
     -0.137  0.9794E-02  0.9794E-02  0.2300E+00  0.2300E+00
      0.039  0.7399E-02  0.7399E-02  0.2316E+00  0.2316E+00
      0.215  0.0000E+00  0.0000E+00  0.2323E+00  0.2323E+00
      0.392  0.0000E+00  0.0000E+00  0.2323E+00  0.2323E+00
      0.568  0.0000E+00  0.0000E+00  0.2323E+00  0.2323E+00
      0.744  0.0000E+00  0.0000E+00  0.2323E+00  0.2323E+00
      0.921  0.0000E+00  0.0000E+00  0.2323E+00  0.2323E+00
      1.097  0.0000E+00  0.0000E+00  0.2323E+00  0.2323E+00
      1.273  0.0000E+00  0.0000E+00  0.2323E+00  0.2323E+00
      1.449  0.0000E+00  0.0000E+00  0.2323E+00  0.2323E+00
      1.626  0.0000E+00  0.0000E+00  0.2323E+00  0.2323E+00
      1.802  0.0000E+00  0.0000E+00  0.2323E+00  0.2323E+00
      1.978  0.0000E+00  0.0000E+00  0.2323E+00  0.2323E+00
      2.154  0.1651E-02  0.1651E-02  0.2323E+00  0.2323E+00
      2.331  0.1865E-01  0.1865E-01  0.2387E+00  0.2387E+00
      2.507  0.2180E-01  0.2180E-01  0.2425E+00  0.2425E+00
      2.683  0.1210E-01  0.1210E-01  0.2454E+00  0.2454E+00
      2.859  0.1235E-01  0.1235E-01  0.2474E+00  0.2474E+00
      3.036  0.3047E-01  0.3047E-01  0.2502E+00  0.2502E+00
      3.212  0.1800E-01  0.1800E-01  0.2541E+00  0.2541E+00
      3.388  0.2685E-01  0.2685E-01  0.2585E+00  0.2585E+00
      3.564  0.2168E-01  0.2168E-01  0.2626E+00  0.2626E+00
      3.741  0.1815E-01  0.1815E-01  0.2659E+00  0.2659E+00
      3.917  0.3064E-01  0.3064E-01  0.2706E+00  0.2706E+00
      4.093  0.9088E-02  0.9088E-02  0.2728E+00  0.2728E+00
      4.270  0.2909E-01  0.2909E-01  0.2761E+00  0.2761E+00
      4.446  0.2067E-01  0.2067E-01  0.2807E+00  0.2807E+00
      4.622  0.9249E-02  0.9249E-02  0.2830E+00  0.2830E+00
      4.798  0.1367E-01  0.1367E-01  0.2848E+00  0.2848E+00
      4.975  0.2092E-01  0.2092E-01  0.2876E+00  0.2876E+00
      5.151  0.1620E-01  0.1620E-01  0.2912E+00  0.2912E+00
      5.327  0.2011E-01  0.2011E-01  0.2946E+00  0.2946E+00
      5.503  0.2415E-01  0.2415E-01  0.2983E+00  0.2983E+00
      5.680  0.3038E-01  0.3038E-01  0.3030E+00  0.3030E+00
      5.856  0.2867E-01  0.2867E-01  0.3079E+00  0.3079E+00
      6.032  0.2536E-01  0.2536E-01  0.3133E+00  0.3133E+00
      6.208  0.2196E-01  0.2196E-01  0.3175E+00  0.3175E+00
      6.385  0.2346E-01  0.2346E-01  0.3214E+00  0.3214E+00
      6.561  0.2925E-01  0.2925E-01  0.3262E+00  0.3262E+00
      6.737  0.2245E-01  0.2245E-01  0.3307E+00  0.3307E+00
      6.914  0.5754E-01  0.5754E-01  0.3366E+00  0.3366E+00
      7.090  0.1780E-01  0.1780E-01  0.3426E+00  0.3426E+00
      7.266  0.3334E-01  0.3334E-01  0.3470E+00  0.3470E+00
      7.442  0.2283E-01  0.2283E-01  0.3526E+00  0.3526E+00
      7.619  0.3480E-01  0.3480E-01  0.3575E+00  0.3575E+00
      7.795  0.2756E-01  0.2756E-01  0.3633E+00  0.3633E+00
      7.971  0.3628E-01  0.3628E-01  0.3702E+00  0.3702E+00
      8.147  0.2191E-01  0.2191E-01  0.3743E+00  0.3743E+00
      8.324  0.2086E-01  0.2086E-01  0.3797E+00  0.3797E+00
      8.500  0.1148E-01  0.1148E-01  0.3830E+00  0.3830E+00
      8.676  0.2468E-01  0.2468E-01  0.3871E+00  0.3871E+00
      8.852  0.2183E-01  0.2183E-01  0.3916E+00  0.3916E+00
      9.029  0.6177E-02  0.6177E-02  0.3938E+00  0.3938E+00
      9.205  0.1173E-01  0.1173E-01  0.3949E+00  0.3949E+00
      9.381  0.2792E-01  0.2792E-01  0.3987E+00  0.3987E+00
      9.558  0.1626E-01  0.1626E-01  0.4032E+00  0.4032E+00
      9.734  0.1531E-01  0.1531E-01  0.4057E+00  0.4057E+00
      9.910  0.2985E-01  0.2985E-01  0.4094E+00  0.4094E+00
     10.086  0.2241E-01  0.2241E-01  0.4143E+00  0.4143E+00
     10.263  0.9683E-02  0.9683E-02  0.4165E+00  0.4165E+00
     10.439  0.1993E-01  0.1993E-01  0.4190E+00  0.4190E+00
     10.615  0.1986E-01  0.1986E-01  0.4228E+00  0.4228E+00
     10.791  0.1019E-01  0.1019E-01  0.4258E+00  0.4258E+00
     10.968  0.1700E-01  0.1700E-01  0.4279E+00  0.4279E+00
     11.144  0.2611E-01  0.2611E-01  0.4319E+00  0.4319E+00
     11.320  0.1020E-01  0.1020E-01  0.4351E+00  0.4351E+00
     11.496  0.3063E-01  0.3063E-01  0.4383E+00  0.4383E+00
     11.673  0.1872E-01  0.1872E-01  0.4436E+00  0.4436E+00
     11.849  0.2304E-01  0.2304E-01  0.4455E+00  0.4455E+00
     12.025  0.3155E-01  0.3155E-01  0.4514E+00  0.4514E+00
     12.202  0.8807E-02  0.8807E-02  0.4547E+00  0.4547E+00
     12.378  0.1522E-01  0.1522E-01  0.4565E+00  0.4565E+00
     12.554  0.1866E-01  0.1866E-01  0.4597E+00  0.4597E+00
     12.730  0.1970E-01  0.1970E-01  0.4631E+00  0.4631E+00
     12.907  0.1998E-01  0.1998E-01  0.4667E+00  0.4667E+00
     13.083  0.1745E-01  0.1745E-01  0.4701E+00  0.4701E+00
     13.259  0.2056E-01  0.2056E-01  0.4734E+00  0.4734E+00
     13.435  0.2611E-01  0.2610E-01  0.4781E+00  0.4781E+00
     13.612  0.1449E-01  0.1449E-01  0.4815E+00  0.4815E+00
     13.788  0.9452E-02  0.9452E-02  0.4834E+00  0.4834E+00
     13.964  0.2533E-02  0.2533E-02  0.4846E+00  0.4846E+00
     14.140  0.1959E-03  0.1959E-03  0.4848E+00  0.4848E+00
     14.317  0.0000E+00  0.0000E+00  0.4848E+00  0.4848E+00
     14.493  0.0000E+00  0.0000E+00  0.4848E+00  0.4848E+00
     14.669  0.0000E+00  0.0000E+00  0.4848E+00  0.4848E+00
     14.846  0.0000E+00  0.0000E+00  0.4848E+00  0.4848E+00
     15.022  0.0000E+00  0.0000E+00  0.4848E+00  0.4848E+00
     15.198  0.0000E+00  0.0000E+00  0.4848E+00  0.4848E+00
     15.374  0.0000E+00  0.0000E+00  0.4848E+00  0.4848E+00
     15.551  0.0000E+00  0.0000E+00  0.4848E+00  0.4848E+00
     15.727  0.0000E+00  0.0000E+00  0.4848E+00  0.4848E+00
     15.903  0.0000E+00  0.0000E+00  0.4848E+00  0.4848E+00
     16.079  0.0000E+00  0.0000E+00  0.4848E+00  0.4848E+00
     16.256  0.0000E+00  0.0000E+00  0.4848E+00  0.4848E+00
     16.432  0.0000E+00  0.0000E+00  0.4848E+00  0.4848E+00
     16.608  0.0000E+00  0.0000E+00  0.4848E+00  0.4848E+00
     16.60820872    -36.27169233  301      0.25950598      1.00000000
    -36.272  0.0000E+00  0.0000E+00  0.0000E+00  0.0000E+00  0.0000E+00  0.0000E+00  0.0000E+00  0.0000E+00  0.0000E+00  0.0000E+00  0.0000E+00  0.0000E+00  0.0000E+00  0.0000E+00  0.0000E+00  0.0000E+00  0.0000E+00  0.0000E+00
    -36.095  0.0000E+00  0.0000E+00  0.0000E+00  0.0000E+00  0.0000E+00  0.0000E+00  0.0000E+00  0.0000E+00  0.0000E+00  0.0000E+00  0.0000E+00  0.0000E+00  0.0000E+00  0.0000E+00  0.0000E+00  0.0000E+00  0.0000E+00  0.0000E+00
    -35.919  0.0000E+00  0.0000E+00  0.0000E+00  0.0000E+00  0.0000E+00  0.0000E+00  0.0000E+00  0.0000E+00  0.0000E+00  0.0000E+00  0.0000E+00  0.0000E+00  0.0000E+00  0.0000E+00  0.0000E+00  0.0000E+00  0.0000E+00  0.0000E+00
    -35.743  0.0000E+00  0.0000E+00  0.0000E+00  0.0000E+00  0.0000E+00  0.0000E+00  0.0000E+00  0.0000E+00  0.0000E+00  0.0000E+00  0.0000E+00  0.0000E+00  0.0000E+00  0.0000E+00  0.0000E+00  0.0000E+00  0.0000E+00  0.0000E+00
    -35.567  0.0000E+00  0.0000E+00  0.0000E+00  0.0000E+00  0.0000E+00  0.0000E+00  0.0000E+00  0.0000E+00  0.0000E+00  0.0000E+00  0.0000E+00  0.0000E+00  0.0000E+00  0.0000E+00  0.0000E+00  0.0000E+00  0.0000E+00  0.0000E+00
    -35.390  0.0000E+00  0.0000E+00  0.0000E+00  0.0000E+00  0.0000E+00  0.0000E+00  0.0000E+00  0.0000E+00  0.0000E+00  0.0000E+00  0.0000E+00  0.0000E+00  0.0000E+00  0.0000E+00  0.0000E+00  0.0000E+00  0.0000E+00  0.0000E+00
    -35.214  0.0000E+00  0.0000E+00  0.0000E+00  0.0000E+00  0.0000E+00  0.0000E+00  0.0000E+00  0.0000E+00  0.0000E+00  0.0000E+00  0.0000E+00  0.0000E+00  0.0000E+00  0.0000E+00  0.0000E+00  0.0000E+00  0.0000E+00  0.0000E+00
    -35.038  0.0000E+00  0.0000E+00  0.0000E+00  0.0000E+00  0.0000E+00  0.0000E+00  0.0000E+00  0.0000E+00  0.0000E+00  0.0000E+00  0.0000E+00  0.0000E+00  0.0000E+00  0.0000E+00  0.0000E+00  0.0000E+00  0.0000E+00  0.0000E+00
    -34.862  0.0000E+00  0.0000E+00  0.0000E+00  0.0000E+00  0.0000E+00  0.0000E+00  0.0000E+00  0.0000E+00  0.0000E+00  0.0000E+00  0.0000E+00  0.0000E+00  0.0000E+00  0.0000E+00  0.0000E+00  0.0000E+00  0.0000E+00  0.0000E+00
    -34.685  0.0000E+00  0.0000E+00  0.0000E+00  0.0000E+00  0.0000E+00  0.0000E+00  0.0000E+00  0.0000E+00  0.0000E+00  0.0000E+00  0.0000E+00  0.0000E+00  0.0000E+00  0.0000E+00  0.0000E+00  0.0000E+00  0.0000E+00  0.0000E+00
    -34.509  0.0000E+00  0.0000E+00  0.0000E+00  0.0000E+00  0.0000E+00  0.0000E+00  0.0000E+00  0.0000E+00  0.0000E+00  0.0000E+00  0.0000E+00  0.0000E+00  0.0000E+00  0.0000E+00  0.0000E+00  0.0000E+00  0.0000E+00  0.0000E+00
    -34.333  0.0000E+00  0.0000E+00  0.0000E+00  0.0000E+00  0.0000E+00  0.0000E+00  0.0000E+00  0.0000E+00  0.0000E+00  0.0000E+00  0.0000E+00  0.0000E+00  0.0000E+00  0.0000E+00  0.0000E+00  0.0000E+00  0.0000E+00  0.0000E+00
    -34.156  0.0000E+00  0.0000E+00  0.0000E+00  0.0000E+00  0.0000E+00  0.0000E+00  0.0000E+00  0.0000E+00  0.0000E+00  0.0000E+00  0.0000E+00  0.0000E+00  0.0000E+00  0.0000E+00  0.0000E+00  0.0000E+00  0.0000E+00  0.0000E+00
    -33.980  0.0000E+00  0.0000E+00  0.0000E+00  0.0000E+00  0.0000E+00  0.0000E+00  0.0000E+00  0.0000E+00  0.0000E+00  0.0000E+00  0.0000E+00  0.0000E+00  0.0000E+00  0.0000E+00  0.0000E+00  0.0000E+00  0.0000E+00  0.0000E+00
    -33.804  0.0000E+00  0.0000E+00  0.0000E+00  0.0000E+00  0.0000E+00  0.0000E+00  0.0000E+00  0.0000E+00  0.0000E+00  0.0000E+00  0.0000E+00  0.0000E+00  0.0000E+00  0.0000E+00  0.0000E+00  0.0000E+00  0.0000E+00  0.0000E+00
    -33.628  0.0000E+00  0.0000E+00  0.0000E+00  0.0000E+00  0.0000E+00  0.0000E+00  0.0000E+00  0.0000E+00  0.0000E+00  0.0000E+00  0.0000E+00  0.0000E+00  0.0000E+00  0.0000E+00  0.0000E+00  0.0000E+00  0.0000E+00  0.0000E+00
    -33.451  0.0000E+00  0.0000E+00  0.0000E+00  0.0000E+00  0.0000E+00  0.0000E+00  0.0000E+00  0.0000E+00  0.0000E+00  0.0000E+00  0.0000E+00  0.0000E+00  0.0000E+00  0.0000E+00  0.0000E+00  0.0000E+00  0.0000E+00  0.0000E+00
    -33.275  0.0000E+00  0.0000E+00  0.0000E+00  0.0000E+00  0.0000E+00  0.0000E+00  0.0000E+00  0.0000E+00  0.0000E+00  0.0000E+00  0.0000E+00  0.0000E+00  0.0000E+00  0.0000E+00  0.0000E+00  0.0000E+00  0.0000E+00  0.0000E+00
    -33.099  0.0000E+00  0.0000E+00  0.0000E+00  0.0000E+00  0.0000E+00  0.0000E+00  0.0000E+00  0.0000E+00  0.0000E+00  0.0000E+00  0.0000E+00  0.0000E+00  0.0000E+00  0.0000E+00  0.0000E+00  0.0000E+00  0.0000E+00  0.0000E+00
    -32.923  0.0000E+00  0.0000E+00  0.0000E+00  0.0000E+00  0.0000E+00  0.0000E+00  0.0000E+00  0.0000E+00  0.0000E+00  0.0000E+00  0.0000E+00  0.0000E+00  0.0000E+00  0.0000E+00  0.0000E+00  0.0000E+00  0.0000E+00  0.0000E+00
    -32.746  0.0000E+00  0.0000E+00  0.0000E+00  0.0000E+00  0.0000E+00  0.0000E+00  0.0000E+00  0.0000E+00  0.0000E+00  0.0000E+00  0.0000E+00  0.0000E+00  0.0000E+00  0.0000E+00  0.0000E+00  0.0000E+00  0.0000E+00  0.0000E+00
    -32.570  0.0000E+00  0.0000E+00  0.0000E+00  0.0000E+00  0.0000E+00  0.0000E+00  0.0000E+00  0.0000E+00  0.0000E+00  0.0000E+00  0.0000E+00  0.0000E+00  0.0000E+00  0.0000E+00  0.0000E+00  0.0000E+00  0.0000E+00  0.0000E+00
    -32.394  0.0000E+00  0.0000E+00  0.0000E+00  0.0000E+00  0.0000E+00  0.0000E+00  0.0000E+00  0.0000E+00  0.0000E+00  0.0000E+00  0.0000E+00  0.0000E+00  0.0000E+00  0.0000E+00  0.0000E+00  0.0000E+00  0.0000E+00  0.0000E+00
    -32.218  0.0000E+00  0.0000E+00  0.0000E+00  0.0000E+00  0.0000E+00  0.0000E+00  0.0000E+00  0.0000E+00  0.0000E+00  0.0000E+00  0.0000E+00  0.0000E+00  0.0000E+00  0.0000E+00  0.0000E+00  0.0000E+00  0.0000E+00  0.0000E+00
    -32.041  0.0000E+00  0.0000E+00  0.0000E+00  0.0000E+00  0.0000E+00  0.0000E+00  0.0000E+00  0.0000E+00  0.0000E+00  0.0000E+00  0.0000E+00  0.0000E+00  0.0000E+00  0.0000E+00  0.0000E+00  0.0000E+00  0.0000E+00  0.0000E+00
    -31.865  0.0000E+00  0.0000E+00  0.0000E+00  0.0000E+00  0.0000E+00  0.0000E+00  0.0000E+00  0.0000E+00  0.0000E+00  0.0000E+00  0.0000E+00  0.0000E+00  0.0000E+00  0.0000E+00  0.0000E+00  0.0000E+00  0.0000E+00  0.0000E+00
    -31.689  0.0000E+00  0.0000E+00  0.0000E+00  0.0000E+00  0.0000E+00  0.0000E+00  0.0000E+00  0.0000E+00  0.0000E+00  0.0000E+00  0.0000E+00  0.0000E+00  0.0000E+00  0.0000E+00  0.0000E+00  0.0000E+00  0.0000E+00  0.0000E+00
    -31.513  0.0000E+00  0.0000E+00  0.0000E+00  0.0000E+00  0.0000E+00  0.0000E+00  0.0000E+00  0.0000E+00  0.0000E+00  0.0000E+00  0.0000E+00  0.0000E+00  0.0000E+00  0.0000E+00  0.0000E+00  0.0000E+00  0.0000E+00  0.0000E+00
    -31.336  0.0000E+00  0.0000E+00  0.0000E+00  0.0000E+00  0.0000E+00  0.0000E+00  0.0000E+00  0.0000E+00  0.0000E+00  0.0000E+00  0.0000E+00  0.0000E+00  0.0000E+00  0.0000E+00  0.0000E+00  0.0000E+00  0.0000E+00  0.0000E+00
    -31.160  0.0000E+00  0.0000E+00  0.0000E+00  0.0000E+00  0.0000E+00  0.0000E+00  0.0000E+00  0.0000E+00  0.0000E+00  0.0000E+00  0.0000E+00  0.0000E+00  0.0000E+00  0.0000E+00  0.0000E+00  0.0000E+00  0.0000E+00  0.0000E+00
    -30.984  0.0000E+00  0.0000E+00  0.0000E+00  0.0000E+00  0.0000E+00  0.0000E+00  0.0000E+00  0.0000E+00  0.0000E+00  0.0000E+00  0.0000E+00  0.0000E+00  0.0000E+00  0.0000E+00  0.0000E+00  0.0000E+00  0.0000E+00  0.0000E+00
    -30.807  0.0000E+00  0.0000E+00  0.0000E+00  0.0000E+00  0.0000E+00  0.0000E+00  0.0000E+00  0.0000E+00  0.0000E+00  0.0000E+00  0.0000E+00  0.0000E+00  0.0000E+00  0.0000E+00  0.0000E+00  0.0000E+00  0.0000E+00  0.0000E+00
    -30.631  0.0000E+00  0.0000E+00  0.0000E+00  0.0000E+00  0.0000E+00  0.0000E+00  0.0000E+00  0.0000E+00  0.0000E+00  0.0000E+00  0.0000E+00  0.0000E+00  0.0000E+00  0.0000E+00  0.0000E+00  0.0000E+00  0.0000E+00  0.0000E+00
    -30.455  0.0000E+00  0.0000E+00  0.0000E+00  0.0000E+00  0.0000E+00  0.0000E+00  0.0000E+00  0.0000E+00  0.0000E+00  0.0000E+00  0.0000E+00  0.0000E+00  0.0000E+00  0.0000E+00  0.0000E+00  0.0000E+00  0.0000E+00  0.0000E+00
    -30.279  0.0000E+00  0.0000E+00  0.0000E+00  0.0000E+00  0.0000E+00  0.0000E+00  0.0000E+00  0.0000E+00  0.0000E+00  0.0000E+00  0.0000E+00  0.0000E+00  0.0000E+00  0.0000E+00  0.0000E+00  0.0000E+00  0.0000E+00  0.0000E+00
    -30.102  0.0000E+00  0.0000E+00  0.0000E+00  0.0000E+00  0.0000E+00  0.0000E+00  0.0000E+00  0.0000E+00  0.0000E+00  0.0000E+00  0.0000E+00  0.0000E+00  0.0000E+00  0.0000E+00  0.0000E+00  0.0000E+00  0.0000E+00  0.0000E+00
    -29.926  0.4838E-04  0.4838E-04  0.8754E-05  0.8752E-05  0.4085E-05  0.4086E-05  0.1938E-05  0.1938E-05  0.1001E-05  0.1002E-05  0.1824E-05  0.1824E-05  0.2213E-06  0.2212E-06  0.4857E-06  0.4856E-06  0.8570E-06  0.8569E-06
    -29.750  0.0000E+00  0.0000E+00  0.0000E+00  0.0000E+00  0.0000E+00  0.0000E+00  0.0000E+00  0.0000E+00  0.0000E+00  0.0000E+00  0.0000E+00  0.0000E+00  0.0000E+00  0.0000E+00  0.0000E+00  0.0000E+00  0.0000E+00  0.0000E+00
    -29.574  0.0000E+00  0.0000E+00  0.0000E+00  0.0000E+00  0.0000E+00  0.0000E+00  0.0000E+00  0.0000E+00  0.0000E+00  0.0000E+00  0.0000E+00  0.0000E+00  0.0000E+00  0.0000E+00  0.0000E+00  0.0000E+00  0.0000E+00  0.0000E+00
    -29.397  0.0000E+00  0.0000E+00  0.0000E+00  0.0000E+00  0.0000E+00  0.0000E+00  0.0000E+00  0.0000E+00  0.0000E+00  0.0000E+00  0.0000E+00  0.0000E+00  0.0000E+00  0.0000E+00  0.0000E+00  0.0000E+00  0.0000E+00  0.0000E+00
    -29.221  0.0000E+00  0.0000E+00  0.0000E+00  0.0000E+00  0.0000E+00  0.0000E+00  0.0000E+00  0.0000E+00  0.0000E+00  0.0000E+00  0.0000E+00  0.0000E+00  0.0000E+00  0.0000E+00  0.0000E+00  0.0000E+00  0.0000E+00  0.0000E+00
    -29.045  0.0000E+00  0.0000E+00  0.0000E+00  0.0000E+00  0.0000E+00  0.0000E+00  0.0000E+00  0.0000E+00  0.0000E+00  0.0000E+00  0.0000E+00  0.0000E+00  0.0000E+00  0.0000E+00  0.0000E+00  0.0000E+00  0.0000E+00  0.0000E+00
    -28.869  0.0000E+00  0.0000E+00  0.0000E+00  0.0000E+00  0.0000E+00  0.0000E+00  0.0000E+00  0.0000E+00  0.0000E+00  0.0000E+00  0.0000E+00  0.0000E+00  0.0000E+00  0.0000E+00  0.0000E+00  0.0000E+00  0.0000E+00  0.0000E+00
    -28.692  0.0000E+00  0.0000E+00  0.0000E+00  0.0000E+00  0.0000E+00  0.0000E+00  0.0000E+00  0.0000E+00  0.0000E+00  0.0000E+00  0.0000E+00  0.0000E+00  0.0000E+00  0.0000E+00  0.0000E+00  0.0000E+00  0.0000E+00  0.0000E+00
    -28.516  0.0000E+00  0.0000E+00  0.0000E+00  0.0000E+00  0.0000E+00  0.0000E+00  0.0000E+00  0.0000E+00  0.0000E+00  0.0000E+00  0.0000E+00  0.0000E+00  0.0000E+00  0.0000E+00  0.0000E+00  0.0000E+00  0.0000E+00  0.0000E+00
    -28.340  0.0000E+00  0.0000E+00  0.0000E+00  0.0000E+00  0.0000E+00  0.0000E+00  0.0000E+00  0.0000E+00  0.0000E+00  0.0000E+00  0.0000E+00  0.0000E+00  0.0000E+00  0.0000E+00  0.0000E+00  0.0000E+00  0.0000E+00  0.0000E+00
    -28.163  0.0000E+00  0.0000E+00  0.0000E+00  0.0000E+00  0.0000E+00  0.0000E+00  0.0000E+00  0.0000E+00  0.0000E+00  0.0000E+00  0.0000E+00  0.0000E+00  0.0000E+00  0.0000E+00  0.0000E+00  0.0000E+00  0.0000E+00  0.0000E+00
    -27.987  0.0000E+00  0.0000E+00  0.0000E+00  0.0000E+00  0.0000E+00  0.0000E+00  0.0000E+00  0.0000E+00  0.0000E+00  0.0000E+00  0.0000E+00  0.0000E+00  0.0000E+00  0.0000E+00  0.0000E+00  0.0000E+00  0.0000E+00  0.0000E+00
    -27.811  0.0000E+00  0.0000E+00  0.0000E+00  0.0000E+00  0.0000E+00  0.0000E+00  0.0000E+00  0.0000E+00  0.0000E+00  0.0000E+00  0.0000E+00  0.0000E+00  0.0000E+00  0.0000E+00  0.0000E+00  0.0000E+00  0.0000E+00  0.0000E+00
    -27.635  0.0000E+00  0.0000E+00  0.0000E+00  0.0000E+00  0.0000E+00  0.0000E+00  0.0000E+00  0.0000E+00  0.0000E+00  0.0000E+00  0.0000E+00  0.0000E+00  0.0000E+00  0.0000E+00  0.0000E+00  0.0000E+00  0.0000E+00  0.0000E+00
    -27.458  0.0000E+00  0.0000E+00  0.0000E+00  0.0000E+00  0.0000E+00  0.0000E+00  0.0000E+00  0.0000E+00  0.0000E+00  0.0000E+00  0.0000E+00  0.0000E+00  0.0000E+00  0.0000E+00  0.0000E+00  0.0000E+00  0.0000E+00  0.0000E+00