       N       E                     dE             d eps       ncg     rms          rms(c)
DAV:   1     0.309398095446E+03    0.30940E+03   -0.20836E+04  7296   0.897E+02
DAV:   2    -0.489316146845E+02   -0.35833E+03   -0.33795E+03  7472   0.296E+02
DAV:   3    -0.699500929295E+02   -0.21018E+02   -0.20712E+02 12352   0.689E+01
DAV:   4    -0.703684012539E+02   -0.41831E+00   -0.41718E+00  9376   0.688E+00
DAV:   5    -0.703796168608E+02   -0.11216E-01   -0.11213E-01 11200   0.109E+00    0.464E+01
RMM:   6    -0.707456034770E+02   -0.36599E+00   -0.76517E+00  7986   0.101E+01    0.189E+01
RMM:   7    -0.704993110879E+02    0.24629E+00   -0.14467E+00  7780   0.573E+00    0.741E+00
RMM:   8    -0.704834113428E+02    0.15900E-01   -0.21909E-01  8047   0.305E+00    0.407E+00
RMM:   9    -0.704838790774E+02   -0.46773E-03   -0.67713E-02  7715   0.113E+00    0.162E+00
RMM:  10    -0.704891167486E+02   -0.52377E-02   -0.13761E-02  6977   0.907E-01    0.704E-01
RMM:  11    -0.704902870215E+02   -0.11703E-02   -0.34523E-03  6735   0.300E-01    0.248E-01
RMM:  12    -0.704903355184E+02   -0.48497E-04   -0.81338E-04  5559   0.213E-01
   1 F= -.70490336E+02 E0= -.70490336E+02  d E =-.704903E+02  mag=    -0.0035
       N       E                     dE             d eps       ncg     rms          rms(c)
DAV:   1    -0.707517287720E+02   -0.26144E+00   -0.38905E+00  9728   0.115E+01    0.563E+00
RMM:   2    -0.705807184141E+02    0.17101E+00   -0.42265E-01  7824   0.313E+00    0.100E+00
RMM:   3    -0.705603924187E+02    0.20326E-01   -0.34739E-02  7900   0.146E+00    0.746E-01
RMM:   4    -0.705563811599E+02    0.40113E-02   -0.98188E-03  7000   0.518E-01    0.792E-01
RMM:   5    -0.705559115945E+02    0.46957E-03   -0.34116E-03  6484   0.423E-01
   2 F= -.70555912E+02 E0= -.70555912E+02  d E =-.655761E-01  mag=    -0.0000
       N       E                     dE             d eps       ncg     rms          rms(c)
DAV:   1    -0.708232615023E+02   -0.26688E+00   -0.50755E+00  7392   0.131E+01    0.645E+00
RMM:   2    -0.705908077172E+02    0.23245E+00   -0.53822E-01  7706   0.358E+00    0.115E+00
RMM:   3    -0.705647986459E+02    0.26009E-01   -0.45300E-02  7813   0.173E+00    0.823E-01
RMM:   4    -0.705602129415E+02    0.45857E-02   -0.14447E-02  7628   0.618E-01    0.917E-01
RMM:   5    -0.705600898851E+02    0.12306E-03   -0.41726E-03  6607   0.459E-01
   3 F= -.70560090E+02 E0= -.70560090E+02  d E =-.697544E-01  mag=    -0.0000
       N       E                     dE             d eps       ncg     rms          rms(c)
DAV:   1    -0.706637305390E+02   -0.10352E+00   -0.28607E+00  7840   0.956E+00    0.375E+00
RMM:   2    -0.705769762265E+02    0.86754E-01   -0.30147E-01  7817   0.270E+00    0.775E-01
RMM:   3    -0.705663851130E+02    0.10591E-01   -0.23095E-02  7652   0.130E+00    0.563E-01
RMM:   4    -0.705647427214E+02    0.16424E-02   -0.77232E-03  7188   0.458E-01    0.613E-01
RMM:   5    -0.705649777204E+02   -0.23500E-03   -0.28684E-03  6371   0.356E-01
   4 F= -.70564978E+02 E0= -.70564978E+02  d E =-.488784E-02  mag=    -0.0000
       N       E                     dE             d eps       ncg     rms          rms(c)
DAV:   1    -0.705957709934E+02   -0.31028E-01   -0.72363E-01  8320   0.471E+00    0.178E+00
RMM:   2    -0.705759532624E+02    0.19818E-01   -0.75763E-02  7921   0.133E+00    0.369E-01
RMM:   3    -0.705733797837E+02    0.25735E-02   -0.48584E-03  6895   0.607E-01    0.310E-01
RMM:   4    -0.705728743996E+02    0.50538E-03   -0.13693E-03  5824   0.230E-01
   5 F= -.70572874E+02 E0= -.70572874E+02  d E =-.127845E-01  mag=    -0.0000
       N       E                     dE             d eps       ncg     rms          rms(c)
DAV:   1    -0.705996291008E+02   -0.26249E-01   -0.90066E-01  8544   0.623E+00    0.140E+00
RMM:   2    -0.705983703895E+02    0.12587E-02   -0.75101E-02  8166   0.116E+00    0.594E-01
RMM:   3    -0.705958937912E+02    0.24766E-02   -0.62028E-03  7034   0.716E-01    0.245E-01
RMM:   4    -0.705960184421E+02   -0.12465E-03   -0.14259E-03  5838   0.193E-01
   6 F= -.70596018E+02 E0= -.70596018E+02  d E =-.231440E-01  mag=    -0.0000
       N       E                     dE             d eps       ncg     rms          rms(c)
DAV:   1    -0.706009961101E+02   -0.51023E-02   -0.34003E-01 10336   0.388E+00    0.894E-01
RMM:   2    -0.706005622019E+02    0.43391E-03   -0.29190E-02  8132   0.723E-01    0.396E-01
RMM:   3    -0.705996266674E+02    0.93553E-03   -0.24246E-03  6201   0.469E-01    0.209E-01
RMM:   4    -0.705997015102E+02   -0.74843E-04   -0.59794E-04  4884   0.157E-01
   7 F= -.70599702E+02 E0= -.70599702E+02  d E =-.268271E-01  mag=    -0.0000
       N       E                     dE             d eps       ncg     rms          rms(c)
DAV:   1    -0.706112504387E+02   -0.11624E-01   -0.59224E-01  8384   0.481E+00    0.858E-01
RMM:   2    -0.706127351452E+02   -0.14847E-02   -0.51751E-02  7770   0.967E-01    0.571E-01
RMM:   3    -0.706115988515E+02    0.11363E-02   -0.56569E-03  7094   0.745E-01    0.379E-01
RMM:   4    -0.706116941357E+02   -0.95284E-04   -0.62875E-04  5215   0.158E-01
   8 F= -.70611694E+02 E0= -.70611694E+02  d E =-.119926E-01  mag=    -0.0000
       N       E                     dE             d eps       ncg     rms          rms(c)
DAV:   1    -0.706117353731E+02   -0.13652E-03   -0.26749E-04  6256   0.128E-01    0.147E-01
RMM:   2    -0.706117497551E+02   -0.14382E-04   -0.96481E-05  3154   0.599E-02
   9 F= -.70611750E+02 E0= -.70611750E+02  d E =-.120482E-01  mag=    -0.0000
       N       E                     dE             d eps       ncg     rms          rms(c)
DAV:   1    -0.706157531147E+02   -0.40177E-02   -0.17149E-01  8512   0.299E+00    0.400E-01
RMM:   2    -0.706160923083E+02   -0.33919E-03   -0.15939E-02  7490   0.547E-01    0.234E-01
RMM:   3    -0.706159234445E+02    0.16886E-03   -0.10774E-03  4992   0.365E-01
  10 F= -.70615923E+02 E0= -.70615923E+02  d E =-.417369E-02  mag=    -0.0000
       N       E                     dE             d eps       ncg     rms          rms(c)
DAV:   1    -0.706175644534E+02   -0.14721E-02   -0.20756E-01  8928   0.329E+00    0.365E-01
RMM:   2    -0.706179432243E+02   -0.37877E-03   -0.19590E-02  7774   0.599E-01    0.191E-01
RMM:   3    -0.706177295322E+02    0.21369E-03   -0.11670E-03  5340   0.379E-01
  11 F= -.70617730E+02 E0= -.70617730E+02  d E =-.597978E-02  mag=    -0.0000
