unknown system                          
           1
     2.517749    0.136601   -0.157881
     1.133531    6.282150   -0.440870
     0.210763    0.484415    6.246185
   H 
  16
Direct configuration=     1
   0.48093100  0.73760300  0.22486400
   0.63208500  0.80162000  0.16015600
   0.17305000  0.37592000  0.22124300
   0.16002500  0.22484300  0.80431000
   0.34376800  0.26688400  0.73271600
   0.01205700  0.04765900  0.08794000
   0.75906000  0.13046500  0.05847700
   0.33878500  0.43773700  0.16131400
   0.01142300  0.15002200  0.47647700
   0.82177500  0.53067800  0.53508000
   0.70124300  0.88583200  0.78989500
   0.62038500  0.59923400  0.85564000
   0.41013400  0.53669800  0.87115800
   0.84434800  0.08700500  0.41680500
   0.90323100  0.89212400  0.70721400
   0.98539200  0.60585500  0.49686900
unknown system                          
           1
     2.546024    0.137760   -0.159732
     1.145359    6.353295   -0.445001
     0.213122    0.491049    6.321473
   H 
  16
Direct configuration=     2
   0.48071909  0.73768843  0.22525648
   0.63227901  0.80185671  0.16028434
   0.17287286  0.37578662  0.22140514
   0.15994803  0.22493399  0.80429884
   0.34381431  0.26693841  0.73263615
   0.01114919  0.04793686  0.08752664
   0.76012412  0.13018964  0.05840889
   0.33892983  0.43780699  0.16121902
   0.01109271  0.14970180  0.47639614
   0.82191764  0.53070699  0.53522220
   0.70103522  0.88587014  0.78986064
   0.62061733  0.59944641  0.85579373
   0.41002897  0.53651580  0.87128988
   0.84449750  0.08703054  0.41661676
   0.90348850  0.89201748  0.70690909
   0.98517769  0.60575219  0.49703405
unknown system                          
           1
     2.630851    0.141239   -0.165286
     1.180843    6.566730   -0.457392
     0.220197    0.510951    6.547336
   H 
  16
Direct configuration=     3
   0.48009069  0.73794168  0.22641985
   0.63285489  0.80255889  0.16066471
   0.17234724  0.37539088  0.22188581
   0.15971981  0.22520390  0.80426573
   0.34395174  0.26709985  0.73239942
   0.00845626  0.04876110  0.08630118
   0.76328060  0.12937302  0.05820716
   0.33935953  0.43801465  0.16093745
   0.01011247  0.14875193  0.47615657
   0.82234088  0.53079296  0.53564373
   0.70041885  0.88598325  0.78975875
   0.62130686  0.60007647  0.85624937
   0.40971721  0.53597525  0.87168086
   0.84494096  0.08710640  0.41605875
   0.90425216  0.89170167  0.70600531
   0.98454184  0.60544710  0.49752335
unknown system                          
           1
     2.636820    0.141047   -0.165259
     1.182185    6.582523   -0.457475
     0.221675    0.513054    6.564243
   H 
  16
Direct configuration=     4
   0.48041671  0.73811843  0.22634455
   0.63252457  0.80245384  0.16085343
   0.17271521  0.37551417  0.22177262
   0.16008190  0.22531051  0.80411400
   0.34358062  0.26702504  0.73253051
   0.00810919  0.04886992  0.08619391
   0.76366166  0.12926433  0.05820957
   0.33898653  0.43787740  0.16106461
   0.00978766  0.14858634  0.47604763
   0.82263891  0.53092240  0.53561266
   0.70086424  0.88600555  0.78954882
   0.62084160  0.59996697  0.85632075
   0.41021093  0.53609099  0.87167247
   0.84522714  0.08720823  0.41610931
   0.90381750  0.89166456  0.70614170
   0.98422763  0.60530033  0.49762143
unknown system                          
           1
     2.654728    0.140470   -0.165179
     1.186212    6.629903   -0.457722
     0.226109    0.519365    6.614962
   H 
  16
Direct configuration=     5
   0.48139288  0.73864751  0.22611912
   0.63153553  0.80213931  0.16141823
   0.17381690  0.37588330  0.22143384
   0.16116600  0.22562970  0.80365991
   0.34246955  0.26680102  0.73292286
   0.00707066  0.04919553  0.08587296
   0.76480204  0.12893914  0.05821674
   0.33786973  0.43746651  0.16144522
   0.00881528  0.14809069  0.47572176
   0.82353118  0.53130988  0.53551960
   0.70219755  0.88607246  0.78892058
   0.61944878  0.59963910  0.85653449
   0.41168890  0.53643749  0.87164725
   0.84608387  0.08751304  0.41626052
   0.90251633  0.89155336  0.70654989
   0.98328680  0.60486097  0.49791503
unknown system                          
           1
     2.690544    0.139318   -0.165019
     1.194265    6.724663   -0.458216
     0.234977    0.531986    6.716400
   H 
  16
Direct configuration=     6
   0.48333406  0.73969873  0.22567098
   0.62956893  0.80151388  0.16253971
   0.17600706  0.37661703  0.22076082
   0.16332125  0.22626435  0.80275811
   0.34026118  0.26635537  0.73370206
   0.00500948  0.04984180  0.08523607
   0.76706607  0.12829395  0.05823088
   0.33564935  0.43664979  0.16220129
   0.00688269  0.14710623  0.47507579
   0.82530502  0.53207979  0.53533429
   0.70484726  0.88620638  0.78767328
   0.61668070  0.59898724  0.85695940
   0.41462586  0.53712630  0.87159641
   0.84778639  0.08811862  0.41656006
   0.89993069  0.89133164  0.70736050
   0.98141602  0.60398788  0.49849837
unknown system                          
           1
     2.762176    0.137013   -0.164698
     1.210371    6.914184   -0.459205
     0.252714    0.557228    6.919276
   H 
  16
Direct configuration=     7
   0.48717257  0.74177397  0.22478535
   0.62568085  0.80027736  0.16475088
   0.18033543  0.37806677  0.21943262
   0.16758085  0.22751897  0.80097948
   0.33589843  0.26547355  0.73523893
   0.00094920  0.05111496  0.08398193
   0.77152868  0.12702391  0.05825830
   0.33126053  0.43503631  0.16369319
   0.00306528  0.14516406  0.47380630
   0.82881057  0.53359983  0.53496691
   0.71008024  0.88647458  0.78521464
   0.61121346  0.59769870  0.85779916
   0.42042526  0.53848734  0.87149326
   0.85114850  0.08931395  0.41714797
   0.89482500  0.89089095  0.70895912
   0.97771715  0.60226379  0.49964995
unknown system                          
           1
     2.905440    0.132403   -0.164057
     1.242582    7.293224   -0.461182
     0.288186    0.607712    7.325028
   H 
  16
Direct configuration=     8
   0.49467977  0.74581975  0.22305529
   0.61807924  0.79785971  0.16905138
   0.18879153  0.38089780  0.21684481
   0.17590344  0.22997143  0.79751804
   0.32738122  0.26374663  0.73823009
  -0.00693389  0.05358720  0.08154868
   0.78020316  0.12456145  0.05830995
   0.32268356  0.43188625  0.16659935
  -0.00438540  0.14138236  0.47135275
   0.83565904  0.53656380  0.53424488
   0.72029034  0.88701169  0.78043509
   0.60054463  0.59518035  0.85943978
   0.43173720  0.54114555  0.87128181
   0.85770741  0.09164373  0.41828138
   0.88486611  0.89002064  0.71206971
   0.97048463  0.59890066  0.50189500
unknown system                          
           1
     2.804505    0.135651   -0.164509
     1.219888    7.026175   -0.459789
     0.263194    0.572144    7.039159
   H 
  16
Direct configuration=     9
   0.48961503  0.74310613  0.22422000
   0.62320451  0.79948989  0.16617956
   0.18309789  0.37899316  0.21857859
   0.17029867  0.22831846  0.79983224
   0.33310853  0.26491448  0.73623003
  -0.00168679  0.05194121  0.08316625
   0.77441657  0.12619634  0.05827756
   0.32846196  0.43400461  0.16465305
   0.00062242  0.14391309  0.47297206
   0.83104803  0.53457507  0.53473632
   0.71343214  0.88663387  0.78362402
   0.60771309  0.59687723  0.85833507
   0.42414293  0.53935671  0.87143642
   0.85330284  0.09008179  0.41753690
   0.89155206  0.89061817  0.70999073
   0.97536210  0.60115878  0.50038918
unknown system                          
           1
     2.840037    0.135961   -0.165806
     1.231706    7.117910   -0.463029
     0.268596    0.582287    7.137176
   H 
  16
Direct configuration=    10
   0.49009159  0.74349553  0.22434380
   0.62270574  0.79945280  0.16661468
   0.18368855  0.37913719  0.21847965
   0.17061648  0.22852002  0.79965136
   0.33273764  0.26487118  0.73629417
  -0.00282662  0.05228487  0.08270111
   0.77571983  0.12584929  0.05822796
   0.32784347  0.43379072  0.16482830
  -0.00013297  0.14339610  0.47276707
   0.83118545  0.53459526  0.53489994
   0.71420550  0.88672729  0.78318446
   0.60682788  0.59678189  0.85859679
   0.42516132  0.53948330  0.87149899
   0.85387493  0.09028822  0.41745551
   0.89084581  0.89045860  0.71006982
   0.97514742  0.60104675  0.50054436
unknown system                          
           1
     2.906958    0.136545   -0.168248
     1.253964    7.290684   -0.469131
     0.278770    0.601391    7.321780
   H 
  16
Direct configuration=    11
   0.49097879  0.74421959  0.22457341
   0.62177768  0.79938343  0.16742303
   0.18478747  0.37940524  0.21829566
   0.17120821  0.22889495  0.79931520
   0.33204772  0.26479051  0.73641341
  -0.00494498  0.05292359  0.08183713
   0.77814255  0.12520462  0.05813582
   0.32669253  0.43339273  0.16515408
  -0.00153899  0.14243477  0.47238678
   0.83144091  0.53463275  0.53520384
   0.71564435  0.88690150  0.78236778
   0.60518118  0.59660416  0.85908316
   0.42705548  0.53971900  0.87161495
   0.85493948  0.09067228  0.41730409
   0.88953189  0.89016161  0.71021696
   0.97474774  0.60083829  0.50083272
unknown system                          
           1
     2.902176    0.136855   -0.168505
     1.253324    7.277539   -0.469355
     0.277025    0.599473    7.308047
   H 
  16
Direct configuration=    12
   0.49047388  0.74398940  0.22475937
   0.62228397  0.79958354  0.16718741
   0.18422567  0.37920026  0.21849318
   0.17105693  0.22885260  0.79936269
   0.33218909  0.26481883  0.73635763
  -0.00480365  0.05287429  0.08188125
   0.77797284  0.12524630  0.05813886
   0.32726129  0.43360258  0.16495479
  -0.00120544  0.14256057  0.47250732
   0.83171925  0.53476911  0.53512007
   0.71488347  0.88688985  0.78269257
   0.60604251  0.59686787  0.85901275
   0.42617434  0.53945269  0.87167330
   0.85463592  0.09058229  0.41721026
   0.89029765  0.89018665  0.70992984
   0.97448428  0.60070215  0.50087670
unknown system                          
           1
     2.900652    0.136953   -0.168586
     1.253120    7.273350   -0.469427
     0.276468    0.598862    7.303670
   H 
  16
Direct configuration=    13
   0.49031274  0.74391592  0.22481873
   0.62244554  0.79964742  0.16711219
   0.18404637  0.37913483  0.21855624
   0.17100865  0.22883908  0.79937785
   0.33223422  0.26482787  0.73633983
  -0.00475851  0.05285854  0.08189534
   0.77791865  0.12525962  0.05813983
   0.32744281  0.43366957  0.16489117
  -0.00109895  0.14260074  0.47254582
   0.83180808  0.53481265  0.53509333
   0.71464058  0.88688616  0.78279627
   0.60631745  0.59695206  0.85899030
   0.42589307  0.53936769  0.87169191
   0.85453900  0.09055356  0.41718028
   0.89054210  0.89019461  0.70983818
   0.97440019  0.60065869  0.50089073
