 running on   16 total cores
 distrk:  each k-point on   16 cores,    1 groups
 distr:  one band on    1 cores,   16 groups
 using from now: INCAR     
 vasp.5.4.4.18Apr17-6-g9f103f2a35 (build Nov 01 2019 12:17:22) complex          
  
 POSCAR found type information on POSCAR  H 
 POSCAR found :  1 types and      18 ions

 ----------------------------------------------------------------------------- 
|                                                                             |
|           W    W    AA    RRRRR   N    N  II  N    N   GGGG   !!!           |
|           W    W   A  A   R    R  NN   N  II  NN   N  G    G  !!!           |
|           W    W  A    A  R    R  N N  N  II  N N  N  G       !!!           |
|           W WW W  AAAAAA  RRRRR   N  N N  II  N  N N  G  GGG   !            |
|           WW  WW  A    A  R   R   N   NN  II  N   NN  G    G                |
|           W    W  A    A  R    R  N    N  II  N    N   GGGG   !!!           |
|                                                                             |
|      For optimal performance we recommend to set                            |
|        NCORE= 4 - approx SQRT( number of cores)                             |
|      NCORE specifies how many cores store one orbital (NPAR=cpu/NCORE).     |
|      This setting can  greatly improve the performance of VASP for DFT.     |
|      The default,   NCORE=1            might be grossly inefficient         |
|      on modern multi-core architectures or massively parallel machines.     |
|      Do your own testing !!!!                                               |
|      Unfortunately you need to use the default for GW and RPA calculations. |
|      (for HF NCORE is supported but not extensively tested yet)             |
|                                                                             |
 ----------------------------------------------------------------------------- 

 LDA part: xc-table for Pade appr. of Perdew
 POSCAR, INCAR and KPOINTS ok, starting setup
 FFT: planning ...
 WAVECAR not read
 entering main loop
       N       E                     dE             d eps       ncg     rms          rms(c)
DAV:   1    -0.137626079033E+02   -0.13763E+02   -0.71247E+03  6528   0.455E+02
DAV:   2    -0.537012151657E+02   -0.39939E+02   -0.38681E+02  8768   0.840E+01
DAV:   3    -0.550168192276E+02   -0.13156E+01   -0.13146E+01  8176   0.130E+01
DAV:   4    -0.550188223359E+02   -0.20031E-02   -0.20031E-02  8544   0.645E-01
DAV:   5    -0.550188267049E+02   -0.43690E-05   -0.43690E-05  6720   0.307E-02    0.194E+01
RMM:   6    -0.597608982448E+02   -0.47421E+01   -0.21014E+00  6528   0.400E+00    0.799E+00
RMM:   7    -0.595044213557E+02    0.25648E+00   -0.12890E+00  6528   0.388E+00    0.381E+00
RMM:   8    -0.594560234859E+02    0.48398E-01   -0.37892E-01  6528   0.218E+00    0.946E-01
RMM:   9    -0.594749108232E+02   -0.18887E-01   -0.24116E-02  6528   0.626E-01    0.428E-01
RMM:  10    -0.594790655312E+02   -0.41547E-02   -0.10435E-03  5791   0.133E-01    0.188E-01
RMM:  11    -0.594818442376E+02   -0.27787E-02   -0.17536E-03  6270   0.175E-01    0.654E-02
RMM:  12    -0.594821948781E+02   -0.35064E-03   -0.29515E-04  5244   0.728E-02
   1 F= -.59482195E+02 E0= -.59482195E+02  d E =-.594822E+02  mag=    -0.0000
 curvature:   0.00 expect dE= 0.000E+00 dE for cont linesearch  0.000E+00
 trial: gam= 0.00000 g(F)=  0.209E-02 g(S)=  0.160E+00 ort = 0.000E+00 (trialstep = 0.100E+01)
 search vector abs. value=  0.162E+00
 bond charge predicted
       N       E                     dE             d eps       ncg     rms          rms(c)
DAV:   1    -0.596283116454E+02   -0.14647E+00   -0.33168E-01  8832   0.245E+00    0.487E-01
RMM:   2    -0.596256409273E+02    0.26707E-02   -0.46202E-03  6513   0.253E-01    0.278E-01
RMM:   3    -0.596243707097E+02    0.12702E-02   -0.14378E-03  4544   0.118E-01    0.151E-02
RMM:   4    -0.596243788014E+02   -0.80916E-05   -0.21589E-05  2818   0.199E-02
   2 F= -.59624379E+02 E0= -.59624379E+02  d E =-.142184E+00  mag=    -0.0000
 ZBRENT: can't locate minimum, use default step
 trial-energy change:   -0.142184  1 .order   -0.143283   -0.162000   -0.124566
 step:   4.0000(harm=  4.3276)  dis= 0.01547  next Energy=   -59.832731 (dE=-0.351E+00)
 bond charge predicted
       N       E                     dE             d eps       ncg     rms          rms(c)
DAV:   1    -0.598694306562E+02   -0.24506E+00   -0.28196E+00  7424   0.689E+00    0.140E+00
RMM:   2    -0.598460899946E+02    0.23341E-01   -0.42399E-02  6528   0.736E-01    0.800E-01
RMM:   3    -0.598349040585E+02    0.11186E-01   -0.13375E-02  6528   0.346E-01    0.458E-02
RMM:   4    -0.598349549918E+02   -0.50933E-04   -0.74387E-05  3718   0.380E-02
   3 F= -.59834955E+02 E0= -.59834955E+02  d E =-.352760E+00  mag=    -0.0000
 curvature:  -2.14 expect dE=-0.203E+01 dE for cont linesearch -0.665E-02
 trial: gam= 5.69935 g(F)=  0.923E+00 g(S)=  0.232E-01 ort = 0.224E-01 (trialstep = 0.401E-01)
 search vector abs. value=  0.646E+01
 bond charge predicted
       N       E                     dE             d eps       ncg     rms          rms(c)
DAV:   1    -0.598778465730E+02   -0.42943E-01   -0.66726E-02  9408   0.920E-01    0.193E-01
RMM:   2    -0.598774000779E+02    0.44650E-03   -0.10884E-03  3801   0.120E-01
   4 F= -.59877400E+02 E0= -.59877400E+02  d E =-.424451E-01  mag=     0.0000
 ZBRENT: can't locate minimum, use default step
 trial-energy change:   -0.042445  1 .order   -0.042955   -0.043051   -0.042859
 step:   0.1604(harm=  9.0164)  dis= 0.00863  next Energy=   -64.674664 (dE=-0.484E+01)
 bond charge predicted
       N       E                     dE             d eps       ncg     rms          rms(c)
DAV:   1    -0.599995901719E+02   -0.12174E+00   -0.57953E-01  6624   0.273E+00    0.569E-01
RMM:   2    -0.599956830107E+02    0.39072E-02   -0.94720E-03  6528   0.344E-01    0.323E-01
RMM:   3    -0.599937427772E+02    0.19402E-02   -0.23021E-03  6509   0.136E-01    0.147E-02
RMM:   4    -0.599937528813E+02   -0.10104E-04   -0.20025E-05  3276   0.219E-02
   5 F= -.59993753E+02 E0= -.59993753E+02  d E =-.158798E+00  mag=     0.0000
 curvature:  -0.72 expect dE=-0.424E+00 dE for cont linesearch -0.915E-01
 ZBRENT: increasing intervall
 opt :   0.4010  next Energy=   -60.171864 (dE=-0.337E+00)
 bond charge predicted
       N       E                     dE             d eps       ncg     rms          rms(c)
DAV:   1    -0.602036059824E+02   -0.20986E+00   -0.24228E+00  6752   0.548E+00    0.114E+00
RMM:   2    -0.601875369383E+02    0.16069E-01   -0.40675E-02  6528   0.702E-01    0.648E-01
RMM:   3    -0.601795219837E+02    0.80150E-02   -0.98150E-03  6528   0.275E-01    0.265E-02
RMM:   4    -0.601795525263E+02   -0.30543E-04   -0.54900E-05  3687   0.306E-02
   6 F= -.60179553E+02 E0= -.60179553E+02  d E =-.344598E+00  mag=     0.0000
 curvature:  -1.41 expect dE=-0.262E+00 dE for cont linesearch -0.890E-01
 ZBRENT: increasing intervall
 opt :   0.8822  next Energy=   -60.359783 (dE=-0.525E+00)
 bond charge predicted
       N       E                     dE             d eps       ncg     rms          rms(c)
DAV:   1    -0.604424657292E+02   -0.26294E+00   -0.98033E+00  6656   0.108E+01    0.230E+00
RMM:   2    -0.603734900933E+02    0.68976E-01   -0.17411E-01  6528   0.140E+00    0.130E+00
RMM:   3    -0.603393508701E+02    0.34139E-01   -0.44598E-02  6528   0.574E-01    0.599E-02
RMM:   4    -0.603394738921E+02   -0.12302E-03   -0.24382E-04  4338   0.652E-02
   7 F= -.60339474E+02 E0= -.60339474E+02  d E =-.504519E+00  mag=    -0.0000
 curvature:  -2.85 expect dE=-0.640E+00 dE for cont linesearch -0.773E-03
 trial: gam= 0.65664 g(F)=  0.187E+00 g(S)=  0.379E-01 ort = 0.419E-01 (trialstep = 0.209E+00)
 search vector abs. value=  0.307E+01
 bond charge predicted
       N       E                     dE             d eps       ncg     rms          rms(c)
DAV:   1    -0.603911164585E+02   -0.51766E-01   -0.38899E-01  9520   0.227E+00    0.544E-01
RMM:   2    -0.603867058461E+02    0.44106E-02   -0.60109E-03  6528   0.250E-01    0.302E-01
RMM:   3    -0.603849085965E+02    0.17972E-02   -0.25213E-03  6508   0.142E-01    0.284E-02
RMM:   4    -0.603848663582E+02    0.42238E-04   -0.60786E-05  3986   0.341E-02
   8 F= -.60384866E+02 E0= -.60384866E+02  d E =-.453925E-01  mag=    -0.0000
 trial-energy change:   -0.045392  1 .order   -0.045797   -0.052608   -0.038985
 step:   0.8053(harm=  0.8053)  dis= 0.01714  next Energy=   -60.441054 (dE=-0.102E+00)
 bond charge predicted
       N       E                     dE             d eps       ncg     rms          rms(c)
DAV:   1    -0.604895803968E+02   -0.10467E+00   -0.30286E+00  6816   0.616E+00    0.148E+00
RMM:   2    -0.604555669892E+02    0.34013E-01   -0.46487E-02  6528   0.678E-01    0.822E-01
RMM:   3    -0.604411914071E+02    0.14376E-01   -0.19739E-02  6528   0.378E-01    0.443E-02
RMM:   4    -0.604412619532E+02   -0.70546E-04   -0.11197E-04  3726   0.444E-02
   9 F= -.60441262E+02 E0= -.60441262E+02  d E =-.101788E+00  mag=    -0.0000
 curvature:  -4.89 expect dE=-0.183E+00 dE for cont linesearch -0.216E-03
 trial: gam= 0.12514 g(F)=  0.367E-01 g(S)=  0.806E-03 ort = 0.116E-01 (trialstep = 0.328E+00)
 search vector abs. value=  0.884E-01
 bond charge predicted
       N       E                     dE             d eps       ncg     rms          rms(c)
DAV:   1    -0.604474173446E+02   -0.62259E-02   -0.10330E-01  9392   0.124E+00    0.176E-01
RMM:   2    -0.604474457870E+02   -0.28442E-04   -0.53105E-03  5972   0.270E-01
  10 F= -.60447446E+02 E0= -.60447446E+02  d E =-.618383E-02  mag=     0.0000
 trial-energy change:   -0.006184  1 .order   -0.006572   -0.012761   -0.000383
 step:   0.3380(harm=  0.3380)  dis= 0.00651  next Energy=   -60.447840 (dE=-0.658E-02)
 bond charge predicted
       N       E                     dE             d eps       ncg     rms          rms(c)
DAV:   1    -0.604471653058E+02    0.25204E-03   -0.19586E-04  7568   0.911E-02    0.146E-02
RMM:   2    -0.604471686236E+02   -0.33178E-05   -0.92281E-05  3300   0.367E-02
  11 F= -.60447169E+02 E0= -.60447169E+02  d E =-.590667E-02  mag=     0.0000
 curvature:  -0.38 expect dE=-0.558E-03 dE for cont linesearch -0.524E-04
 trial: gam= 0.00000 g(F)=  0.143E-02 g(S)=  0.275E-04 ort =-0.347E-02 (trialstep = 0.330E+00)
 search vector abs. value=  0.145E-02
 reached required accuracy - stopping structural energy minimisation
