unknown system                          
           1
     3.755371   -0.155434   -0.266168
    -0.018909    6.673599   -0.801491
    -0.552189   -1.156403    7.614233
   H    Nb   H    Nb   H    Nb   H    Sr   H 
   3   1   5   1   3   1   4   2   2
Direct configuration=     1
   0.84035854  0.63753592  0.84852101
   0.32651496  0.50251454  0.05941569
   0.89263403  0.97429380  0.73540083
   0.76563803  0.66989238  0.59918642
   0.44422439  0.91401578  0.60206279
   0.88055452  0.88098829  0.48475880
   0.59681162  0.05808495  0.31709157
   0.75504268  0.37538392  0.48089877
   0.69658063  0.58963568  0.33921855
   0.71946548  0.14243163  0.58398480
   0.65385516  0.18519191  0.08333214
   0.62132103  0.27578188  0.03822223
   0.48354581  0.24134005  0.78473344
   0.31362591  0.52112412  0.81731675
   0.21551859  0.01011747  0.00394610
   0.04494533  0.06365356  0.98071073
   0.99691711  0.29291505  0.81207074
   0.42530242  0.78091368  0.98537193
   0.98913072  0.79561280  0.18703990
   0.20421546  0.33733419  0.28073237
   0.20715432  0.15885683  0.50667758
   0.25940727  0.58826459  0.57824387
unknown system                          
           1
     3.755402   -0.155486   -0.266234
    -0.019000    6.675382   -0.802714
    -0.552212   -1.157831    7.616473
   H    Nb   H    Nb   H    Nb   H    Sr   H 
   3   1   5   1   3   1   4   2   2
Direct configuration=     2
   0.84022413  0.63757567  0.84867049
   0.32668602  0.50259446  0.05946431
   0.89292856  0.97424809  0.73545340
   0.76583490  0.67002620  0.59905452
   0.44421585  0.91398241  0.60224928
   0.88015813  0.88097559  0.48459694
   0.59680395  0.05805845  0.31711847
   0.75491662  0.37538750  0.48073001
   0.69694522  0.58952012  0.33921448
   0.71951595  0.14239110  0.58398233
   0.65368791  0.18538801  0.08320584
   0.62117402  0.27560656  0.03829913
   0.48361443  0.24136420  0.78476676
   0.31404020  0.52102750  0.81744233
   0.21482011  0.01033430  0.00395752
   0.04525301  0.06340840  0.98075574
   0.99685509  0.29282118  0.81199537
   0.42540219  0.78099339  0.98543060
   0.98908310  0.79576821  0.18701116
   0.20429719  0.33733913  0.28068595
   0.20711945  0.15874935  0.50665314
   0.25918799  0.58832317  0.57819921
unknown system                          
           1
     3.755401   -0.155485   -0.266232
    -0.018997    6.675340   -0.802685
    -0.552211   -1.157797    7.616420
   H    Nb   H    Nb   H    Nb   H    Sr   H 
   3   1   5   1   3   1   4   2   2
Direct configuration=     3
   0.84022733  0.63757473  0.84866693
   0.32668194  0.50259256  0.05946315
   0.89292154  0.97424918  0.73545215
   0.76583021  0.67002302  0.59905767
   0.44421605  0.91398321  0.60224483
   0.88016757  0.88097590  0.48460080
   0.59680413  0.05805908  0.31711783
   0.75491963  0.37538741  0.48073403
   0.69693653  0.58952288  0.33921458
   0.71951475  0.14239207  0.58398239
   0.65369190  0.18538334  0.08320885
   0.62117752  0.27561073  0.03829730
   0.48361279  0.24136363  0.78476597
   0.31403033  0.52102980  0.81743934
   0.21483675  0.01032914  0.00395724
   0.04524568  0.06341424  0.98075467
   0.99685657  0.29282341  0.81199717
   0.42539982  0.78099149  0.98542921
   0.98908423  0.79576450  0.18701184
   0.20429524  0.33733901  0.28068706
   0.20712028  0.15875191  0.50665373
   0.25919322  0.58832178  0.57820027
