 running on   16 total cores
 distrk:  each k-point on   16 cores,    1 groups
 distr:  one band on    1 cores,   16 groups
 using from now: INCAR     
 vasp.5.4.4.18Apr17-6-g9f103f2a35 (build Nov 01 2019 12:17:22) complex          
  
 POSCAR found type information on POSCAR  Sr Nb H 
 POSCAR found :  3 types and       8 ions

 ----------------------------------------------------------------------------- 
|                                                                             |
|           W    W    AA    RRRRR   N    N  II  N    N   GGGG   !!!           |
|           W    W   A  A   R    R  NN   N  II  NN   N  G    G  !!!           |
|           W    W  A    A  R    R  N N  N  II  N N  N  G       !!!           |
|           W WW W  AAAAAA  RRRRR   N  N N  II  N  N N  G  GGG   !            |
|           WW  WW  A    A  R   R   N   NN  II  N   NN  G    G                |
|           W    W  A    A  R    R  N    N  II  N    N   GGGG   !!!           |
|                                                                             |
|      For optimal performance we recommend to set                            |
|        NCORE= 4 - approx SQRT( number of cores)                             |
|      NCORE specifies how many cores store one orbital (NPAR=cpu/NCORE).     |
|      This setting can  greatly improve the performance of VASP for DFT.     |
|      The default,   NCORE=1            might be grossly inefficient         |
|      on modern multi-core architectures or massively parallel machines.     |
|      Do your own testing !!!!                                               |
|      Unfortunately you need to use the default for GW and RPA calculations. |
|      (for HF NCORE is supported but not extensively tested yet)             |
|                                                                             |
 ----------------------------------------------------------------------------- 


 ----------------------------------------------------------------------------- 
|                                                                             |
|  ADVICE TO THIS USER RUNNING 'VASP/VAMP'   (HEAR YOUR MASTER'S VOICE ...):  |
|                                                                             |
|      You have a (more or less) 'small supercell' and for smaller cells      |
|      it is recommended  to use the reciprocal-space projection scheme!      |
|      The real space optimization is not  efficient for small cells and it   |
|      is also less accurate ...                                              |
|      Therefore set LREAL=.FALSE. in the  INCAR file                         |
|                                                                             |
 ----------------------------------------------------------------------------- 

 LDA part: xc-table for Pade appr. of Perdew
 POSCAR, INCAR and KPOINTS ok, starting setup
 FFT: planning ...
 WAVECAR not read
 entering main loop
       N       E                     dE             d eps       ncg     rms          rms(c)
DAV:   1     0.133339693304E+03    0.13334E+03   -0.12547E+04  9472   0.785E+02
DAV:   2    -0.266616511128E+02   -0.16000E+03   -0.15037E+03 10800   0.228E+02
DAV:   3    -0.337058994536E+02   -0.70442E+01   -0.69727E+01 17680   0.434E+01
DAV:   4    -0.337571402819E+02   -0.51241E-01   -0.51435E-01  9904   0.277E+00
DAV:   5    -0.337581140085E+02   -0.97373E-03   -0.97655E-03 14384   0.326E-01    0.334E+01
RMM:   6    -0.334545019934E+02    0.30361E+00   -0.31196E+00 10049   0.749E+00    0.148E+01
RMM:   7    -0.330919354042E+02    0.36257E+00   -0.49906E-01 10067   0.441E+00    0.679E+00
RMM:   8    -0.330903842657E+02    0.15511E-02   -0.10391E-01 10223   0.197E+00    0.400E+00
RMM:   9    -0.330952522889E+02   -0.48680E-02   -0.22415E-02 10276   0.977E-01    0.193E+00
RMM:  10    -0.330968117086E+02   -0.15594E-02   -0.77478E-03 10220   0.594E-01    0.861E-01
RMM:  11    -0.330970064748E+02   -0.19477E-03   -0.14179E-03  9198   0.253E-01
   1 F= -.33097006E+02 E0= -.33097006E+02  d E =-.330970E+02  mag=     0.4301
 curvature:   0.00 expect dE= 0.000E+00 dE for cont linesearch  0.000E+00
 trial: gam= 0.00000 g(F)=  0.733E-03 g(S)=  0.428E-01 ort = 0.000E+00 (trialstep = 0.100E+01)
 search vector abs. value=  0.435E-01
 bond charge predicted
       N       E                     dE             d eps       ncg     rms          rms(c)
DAV:   1    -0.332554921000E+02   -0.15868E+00   -0.21302E+00 14192   0.920E+00    0.400E+00
RMM:   2    -0.331415595230E+02    0.11393E+00   -0.18447E-01  9724   0.243E+00    0.942E-01
RMM:   3    -0.331244655340E+02    0.17094E-01   -0.20875E-02 10296   0.119E+00    0.844E-01
RMM:   4    -0.331217487189E+02    0.27168E-02   -0.88912E-03 10385   0.493E-01    0.842E-01
RMM:   5    -0.331220117169E+02   -0.26300E-03   -0.43665E-03  9775   0.381E-01    0.457E-01
RMM:   6    -0.331223404995E+02   -0.32878E-03   -0.37754E-03  9843   0.250E-01
   2 F= -.33122340E+02 E0= -.33122340E+02  d E =-.253340E-01  mag=     0.4782
 trial-energy change:   -0.025334  1 .order   -0.029267   -0.043510   -0.015024
 step:   1.5274(harm=  1.5274)  dis= 0.00341  next Energy=   -33.130236 (dE=-0.332E-01)
 bond charge predicted
       N       E                     dE             d eps       ncg     rms          rms(c)
DAV:   1    -0.331593261516E+02   -0.37314E-01   -0.56569E-01  9568   0.478E+00    0.206E+00
RMM:   2    -0.331283147698E+02    0.31011E-01   -0.45359E-02  9610   0.124E+00    0.483E-01
RMM:   3    -0.331242176193E+02    0.40972E-02   -0.58623E-03  9798   0.616E-01    0.414E-01
RMM:   4    -0.331236508940E+02    0.56673E-03   -0.28255E-03  9109   0.288E-01    0.425E-01
RMM:   5    -0.331238601149E+02   -0.20922E-03   -0.13409E-03  8577   0.230E-01
   3 F= -.33123860E+02 E0= -.33123860E+02  d E =-.268536E-01  mag=     0.5055
 curvature:  -0.76 expect dE=-0.575E-02 dE for cont linesearch -0.262E-03
 trial: gam= 0.08425 g(F)=  0.698E-02 g(S)=  0.550E-03 ort = 0.386E-02 (trialstep = 0.111E+01)
 search vector abs. value=  0.849E-02
 bond charge predicted
       N       E                     dE             d eps       ncg     rms          rms(c)
DAV:   1    -0.331354661342E+02   -0.11815E-01   -0.22696E-01  9920   0.278E+00    0.646E-01
RMM:   2    -0.331307575953E+02    0.47085E-02   -0.13624E-02  9998   0.623E-01    0.271E-01
RMM:   3    -0.331301936563E+02    0.56394E-03   -0.10553E-03  8278   0.288E-01    0.236E-01
RMM:   4    -0.331301461131E+02    0.47543E-04   -0.62643E-04  6925   0.146E-01
   4 F= -.33130146E+02 E0= -.33130146E+02  d E =-.628600E-02  mag=     0.5205
 trial-energy change:   -0.006286  1 .order   -0.007323   -0.008681   -0.005965
 step:   3.5336(harm=  3.5336)  dis= 0.02207  next Energy=   -33.137734 (dE=-0.139E-01)
 bond charge predicted
       N       E                     dE             d eps       ncg     rms          rms(c)
DAV:   1    -0.331614854220E+02   -0.31292E-01   -0.11163E+00 10672   0.615E+00    0.133E+00
RMM:   2    -0.331380941680E+02    0.23391E-01   -0.66025E-02 10010   0.137E+00    0.650E-01
RMM:   3    -0.331353334538E+02    0.27607E-02   -0.52251E-03  9995   0.623E-01    0.474E-01
RMM:   4    -0.331348625179E+02    0.47094E-03   -0.27543E-03  9228   0.283E-01    0.423E-01
RMM:   5    -0.331350613686E+02   -0.19885E-03   -0.12417E-03  8460   0.219E-01
   5 F= -.33135061E+02 E0= -.33135061E+02  d E =-.112013E-01  mag=     0.5493
 curvature:  -1.91 expect dE=-0.491E-02 dE for cont linesearch -0.427E-04
 trial: gam= 0.28025 g(F)=  0.173E-02 g(S)=  0.848E-03 ort = 0.436E-03 (trialstep = 0.159E+01)
 search vector abs. value=  0.348E-02
 bond charge predicted
       N       E                     dE             d eps       ncg     rms          rms(c)
DAV:   1    -0.331411545111E+02   -0.62920E-02   -0.29233E-01 13968   0.340E+00    0.403E-01
RMM:   2    -0.331389434494E+02    0.22111E-02   -0.11847E-02  9822   0.545E-01    0.239E-01
RMM:   3    -0.331381198825E+02    0.82357E-03   -0.92169E-04  8225   0.318E-01    0.172E-01
RMM:   4    -0.331380807668E+02    0.39116E-04   -0.33575E-04  7258   0.119E-01
   6 F= -.33138081E+02 E0= -.33138081E+02  d E =-.301940E-02  mag=     0.5663
 trial-energy change:   -0.003019  1 .order   -0.003574   -0.004289   -0.002859
 step:   4.7727(harm=  4.7727)  dis= 0.03011  next Energy=   -33.141494 (dE=-0.643E-02)
 bond charge predicted
       N       E                     dE             d eps       ncg     rms          rms(c)
DAV:   1    -0.331505106158E+02   -0.12391E-01   -0.11708E+00 12368   0.683E+00    0.816E-01
RMM:   2    -0.331417261124E+02    0.87845E-02   -0.47407E-02  9813   0.109E+00    0.486E-01
RMM:   3    -0.331383383203E+02    0.33878E-02   -0.40709E-03  9591   0.631E-01    0.327E-01
RMM:   4    -0.331381230056E+02    0.21531E-03   -0.13516E-03  8878   0.197E-01
   7 F= -.33138123E+02 E0= -.33138123E+02  d E =-.306164E-02  mag=     0.6029
 curvature:  -3.08 expect dE=-0.135E-01 dE for cont linesearch -0.637E-04
 trial: gam= 1.88415 g(F)=  0.261E-02 g(S)=  0.177E-02 ort =-0.268E-03 (trialstep = 0.493E+00)
 search vector abs. value=  0.157E-01
 reached required accuracy - stopping structural energy minimisation
