unknown system                          
           1
     3.196159   -0.271344    0.164106
    -1.651209    6.657476   -1.435983
    -0.355602   -1.890569    3.917982
   Sr   Nb   H 
   1   1   6
Direct configuration=     1
   0.82845000  0.11707100  0.16630100
   0.66722400  0.58207200  0.11505600
   0.26793200  0.73765900  0.05542000
   0.02725200  0.38634500  0.84634200
   0.42973500  0.24899300  0.94698700
   0.59038200  0.48083600  0.61728400
   0.20306000  0.63029800  0.41991800
   0.89873400  0.92646800  0.50716600
unknown system                          
           1
     3.227159   -0.274290    0.167080
    -1.668582    6.723047   -1.446640
    -0.356750   -1.908106    3.949098
   Sr   Nb   H 
   1   1   6
Direct configuration=     2
   0.82835256  0.11709997  0.16646153
   0.66705397  0.58181539  0.11390244
   0.26768244  0.73757069  0.05556532
   0.02739950  0.38653311  0.84677965
   0.42990632  0.24915735  0.94747179
   0.59069145  0.48117900  0.61796696
   0.20290655  0.63017201  0.41964746
   0.89877620  0.92621449  0.50667885
unknown system                          
           1
     3.243509   -0.275843    0.168648
    -1.677745    6.757631   -1.452261
    -0.357356   -1.917356    3.965510
   Sr   Nb   H 
   1   1   6
Direct configuration=     3
   0.82830164  0.11711513  0.16654555
   0.66696533  0.58168116  0.11329888
   0.26755207  0.73752463  0.05564148
   0.02747648  0.38663141  0.84700857
   0.42999574  0.24924326  0.94772539
   0.59085300  0.48135824  0.61832416
   0.20282644  0.63010617  0.41950596
   0.89879831  0.92608201  0.50642401
unknown system                          
           1
     3.247266   -0.275913    0.170842
    -1.679753    6.765002   -1.460650
    -0.355961   -1.921642    3.976101
   Sr   Nb   H 
   1   1   6
Direct configuration=     4
   0.82866204  0.11775229  0.16678549
   0.66668485  0.58144259  0.11253602
   0.26693958  0.73690193  0.05611924
   0.02829076  0.38775266  0.84855702
   0.43113461  0.25065369  0.94950404
   0.59122364  0.48164522  0.62015495
   0.20243820  0.62961751  0.41711702
   0.89739531  0.92397610  0.50370021
unknown system                          
           1
     3.255516   -0.276066    0.175661
    -1.684162    6.781190   -1.479075
    -0.352898   -1.931055    3.999363
   Sr   Nb   H 
   1   1   6
Direct configuration=     5
   0.82945293  0.11915075  0.16731327
   0.66607070  0.58091929  0.11086435
   0.26559452  0.73553509  0.05716397
   0.03007546  0.39021313  0.85195251
   0.43363125  0.25374874  0.95340457
   0.59203373  0.48227439  0.62416598
   0.20159026  0.62854583  0.41188256
   0.89432016  0.91935478  0.49772679
unknown system                          
           1
     3.248081   -0.276081    0.176752
    -1.680173    6.785519   -1.484667
    -0.351585   -1.932591    4.012549
   Sr   Nb   H 
   1   1   6
Direct configuration=     6
   0.83012197  0.12019400  0.16791500
   0.66559479  0.58073276  0.10964975
   0.26598809  0.73548086  0.05776575
   0.03039599  0.39021583  0.85174353
   0.43385190  0.25403437  0.95601015
   0.59208883  0.48190336  0.62462605
   0.20072018  0.62781076  0.40924902
   0.89400726  0.91937005  0.49751474
unknown system                          
           1
     3.233215   -0.276110    0.178933
    -1.672197    6.794176   -1.495849
    -0.348960   -1.935662    4.038917
   Sr   Nb   H 
   1   1   6
Direct configuration=     7
   0.83145874  0.12227844  0.16911626
   0.66464442  0.58036190  0.10722948
   0.26677551  0.73537145  0.05896439
   0.03103889  0.39022156  0.85132687
   0.43428707  0.25460102  0.96120251
   0.59219904  0.48116091  0.62554173
   0.19898467  0.62634576  0.40400025
   0.89338066  0.91940094  0.49709249
