    9    9   60    1
  0.5953127E+01  0.2829719E-09  0.4433387E-09  0.4817197E-09  0.5000000E-15
  1.000000000000000E-004
  CAR 
 unknown system                          
      9    676     12
 
  0.3742002E-15  0.3742002E-15  0.3742002E-15  0.7407407E-03
    1      -12.552407   1.000000
    2       -8.690737   1.000000
    3       -6.764917   1.000000
    4       -6.248753   1.000000
    5        1.892812   0.000000
    6        2.913234   0.000000
    7        3.500874   0.000000
    8        6.985508   0.000000
    9        7.034628   0.000000
   10       11.625205   0.000000
   11       12.196431   0.000000
   12       13.038075   0.000000
 
  0.6666667E-01  0.3729655E-15  0.3781697E-15  0.1481481E-02
    1      -12.473944   1.000000
    2       -8.636104   1.000000
    3       -6.749550   1.000000
    4       -6.242211   1.000000
    5        1.983596   0.000000
    6        2.979604   0.000000
    7        3.588104   0.000000
    8        4.665434   0.000000
    9        9.514369   0.000000
   10       10.573693   0.000000
   11       12.108756   0.000000
   12       12.703204   0.000000
 
  0.1333333E+00  0.3707971E-15  0.3608225E-15  0.1481481E-02
    1      -12.235917   1.000000
    2       -8.466848   1.000000
    3       -6.709606   1.000000
    4       -6.224564   1.000000
    5        2.193025   0.000000
    6        2.481466   0.000000
    7        3.231622   0.000000
    8        3.874303   0.000000
    9        9.156087   0.000000
   10       11.065445   0.000000
   11       11.618860   0.000000
   12       12.254872   0.000000
 
  0.2000000E+00  0.3720982E-15  0.3955170E-15  0.1481481E-02
    1      -11.838907   1.000000
    2       -8.188645   1.000000
    3       -6.656142   1.000000
    4       -6.220603   1.000000
    5        0.410306   0.000000
    6        2.706100   0.000000
    7        3.580322   0.000000
    8        4.218827   0.000000
    9        7.936566   0.000000
   10        9.958336   0.000000
   11       10.390490   0.000000
   12       13.847837   0.000000
 
  0.2666667E+00  0.3712308E-15  0.3747003E-15  0.1481481E-02
    1      -11.292965   1.000000
    2       -7.815604   1.000000
    3       -6.624265   1.000000
    4       -6.249576   1.000000
    5       -1.392006   0.462061
    6        3.261414   0.000000
    7        4.055284   0.000000
    8        4.494838   0.000000
    9        7.154949   0.000000
   10        9.049318   0.000000
   11        9.234778   0.000000
   12       12.654893   0.000000
 
  0.3333333E+00  0.3703635E-15  0.3747003E-15  0.1481481E-02
    1      -10.604374   1.000000
    2       -7.352941   1.000000
    3       -6.720091   1.000000
    4       -6.275870   1.000000
    5       -2.958353   1.000000
    6        3.832006   0.000000
    7        4.411269   0.000000
    8        4.701712   0.000000
    9        6.866684   0.000000
   10        8.335298   0.000000
   11        8.737536   0.000000
   12       11.198945   0.000000
 
  0.4000000E+00  0.3781697E-15  0.3747003E-15  0.1481481E-02
    1       -9.822944   1.000000
    2       -7.124356   1.000000
    3       -6.815315   1.000000
    4       -6.246774   1.000000
    5       -4.239827   1.000000
    6        4.021028   0.000000
    7        4.551878   0.000000
    8        5.225703   0.000000
    9        6.558669   0.000000
   10        8.343994   0.000000
   11        9.009209   0.000000
   12        9.877672   0.000000
 
  0.4666667E+00  0.3955170E-15  0.3747003E-15  0.1481481E-02
    1       -9.070123   1.000000
    2       -7.680274   1.000000
    3       -6.392262   1.000000
    4       -6.111038   1.000000
    5       -5.146624   1.000000
    6        3.957544   0.000000
    7        4.676606   0.000000
    8        5.657497   0.000000
    9        6.369241   0.000000
   10        8.688191   0.000000
   11        9.138643   0.000000
   12        9.859360   0.000000
 
  0.3738329E-15  0.1000000E+00  0.3747003E-15  0.1481481E-02
    1      -12.499769   1.000000
    2       -8.741331   1.000000
    3       -6.905190   1.000000
    4       -6.249592   1.000000
    5        2.034035   0.000000
    6        3.103695   0.000000
    7        3.700100   0.000000
    8        6.994615   0.000000
    9        7.038902   0.000000
   10       11.145491   0.000000
   11       12.309924   0.000000
   12       12.921243   0.000000
 
  0.6666667E-01  0.1000000E+00  0.3816392E-15  0.1481481E-02
    1      -12.421900   1.000000
    2       -8.692590   1.000000
    3       -6.923867   1.000000
    4       -6.198699   1.000000
    5        2.173267   0.000000
    6        3.158949   0.000000
    7        3.811989   0.000000
    8        4.667808   0.000000
    9        9.492309   0.000000
   10       10.131988   0.000000
   11       12.009946   0.000000
   12       12.643205   0.000000
 
  0.1333333E+00  0.1000000E+00  0.3747003E-15  0.1481481E-02
    1      -12.178962   1.000000
    2       -8.528011   1.000000
    3       -6.899356   1.000000
    4       -6.146379   1.000000
    5        2.327111   0.000000
    6        2.618208   0.000000
    7        3.352043   0.000000
    8        4.109790   0.000000
    9        8.840324   0.000000
   10       10.949808   0.000000
   11       11.356392   0.000000
   12       12.245374   0.000000
 
  0.2000000E+00  0.1000000E+00  0.3747003E-15  0.1481481E-02
    1      -11.781432   1.000000
    2       -8.258598   1.000000
    3       -6.843906   1.000000
    4       -6.120306   1.000000
    5        0.430479   0.000000
    6        2.943024   0.000000
    7        3.685706   0.000000
    8        4.523511   0.000000
    9        7.652431   0.000000
   10        9.762594   0.000000
   11       10.185240   0.000000
   12       12.977308   0.000000
 
  0.2666667E+00  0.1000000E+00  0.3885781E-15  0.1481481E-02
    1      -11.234837   1.000000
    2       -7.896432   1.000000
    3       -6.775979   1.000000
    4       -6.153250   1.000000
    5       -1.382661   0.364930
    6        3.435546   0.000000
    7        4.138403   0.000000
    8        4.926187   0.000000
    9        6.816312   0.000000
   10        8.667498   0.000000
   11        9.237680   0.000000
   12       12.607565   0.000000
 
  0.3333333E+00  0.1000000E+00  0.3885781E-15  0.1481481E-02
    1      -10.546867   1.000000
    2       -7.457531   1.000000
    3       -6.780558   1.000000
    4       -6.230483   1.000000
    5       -2.958028   1.000000
    6        3.799446   0.000000
    7        4.641979   0.000000
    8        5.105845   0.000000
    9        6.494803   0.000000
   10        8.005124   0.000000
   11        8.780120   0.000000
   12       11.597064   0.000000
 
  0.4000000E+00  0.1000000E+00  0.3885781E-15  0.1481481E-02
    1       -9.768169   1.000000
    2       -7.141156   1.000000
    3       -6.918424   1.000000
    4       -6.224841   1.000000
    5       -4.253749   1.000000
    6        3.818604   0.000000
    7        4.906557   0.000000
    8        5.370461   0.000000
    9        6.302463   0.000000
   10        8.214132   0.000000
   11        8.945883   0.000000
   12       10.412005   0.000000
 
  0.4666667E+00  0.1000000E+00  0.3330669E-15  0.1481481E-02
    1       -9.012556   1.000000
    2       -7.652252   1.000000
    3       -6.536381   1.000000
    4       -6.041174   1.000000
    5       -5.199268   1.000000
    6        3.670804   0.000000
    7        4.844178   0.000000
    8        5.573817   0.000000
    9        6.523768   0.000000
   10        8.621198   0.000000
   11        9.425610   0.000000
   12        9.979374   0.000000
 
 -0.4666667E+00  0.1000000E+00  0.3608225E-15  0.1481481E-02
    1       -9.012044   1.000000
    2       -7.670366   1.000000
    3       -6.350202   1.000000
    4       -6.178105   1.000000
    5       -5.225477   1.000000
    6        3.549257   0.000000
    7        4.755835   0.000000
    8        5.577593   0.000000
    9        6.743438   0.000000
   10        8.680510   0.000000
   11        9.248338   0.000000
   12       10.345715   0.000000
 
 -0.4000000E+00  0.1000000E+00  0.3747003E-15  0.1481481E-02
    1       -9.769506   1.000000
    2       -7.183458   1.000000
    3       -6.743898   1.000000
    4       -6.304813   1.000000
    5       -4.317274   1.000000
    6        3.533706   0.000000
    7        4.592025   0.000000
    8        5.321273   0.000000
    9        6.918779   0.000000
   10        8.387595   0.000000
   11        9.412509   0.000000
   12       10.151055   0.000000
 
 -0.3333333E+00  0.1000000E+00  0.3608225E-15  0.1481481E-02
    1      -10.553871   1.000000
    2       -7.368459   1.000000
    3       -6.766622   1.000000
    4       -6.301042   1.000000
    5       -3.018428   1.000000
    6        3.537035   0.000000
    7        4.206923   0.000000
    8        4.949348   0.000000
    9        7.334906   0.000000
   10        8.457091   0.000000
   11        9.042610   0.000000
   12       11.346843   0.000000
 
 -0.2666667E+00  0.1000000E+00  0.3747003E-15  0.1481481E-02
    1      -11.240639   1.000000
    2       -7.832554   1.000000
    3       -6.668467   1.000000
    4       -6.305888   1.000000
    5       -1.431212   0.842021
    6        3.207259   0.000000
    7        3.912361   0.000000
    8        4.632102   0.000000
    9        7.712559   0.000000
   10        9.017258   0.000000
   11        9.519479   0.000000
   12       12.704007   0.000000
 
 -0.2000000E+00  0.1000000E+00  0.3538836E-15  0.1481481E-02
    1      -11.788246   1.000000
    2       -8.214894   1.000000
    3       -6.695409   1.000000
    4       -6.305447   1.000000
    5        0.371058   0.000000
    6        2.713457   0.000000
    7        3.650299   0.000000
    8        4.344208   0.000000
    9        8.375863   0.000000
   10        9.919023   0.000000
   11       10.602093   0.000000
   12       13.782343   0.000000
 
 -0.1333333E+00  0.1000000E+00  0.3746461E-15  0.1481481E-02
    1      -12.184813   1.000000
    2       -8.499482   1.000000
    3       -6.772968   1.000000
    4       -6.303093   1.000000
    5        2.191190   0.000000
    6        2.459429   0.000000
    7        3.422362   0.000000
    8        4.058152   0.000000
    9        9.494975   0.000000
   10       10.974129   0.000000
   11       11.755761   0.000000
   12       12.237709   0.000000
 
 -0.6666667E-01  0.1000000E+00  0.3781697E-15  0.1481481E-02
    1      -12.421465   1.000000
    2       -8.677118   1.000000
    3       -6.848808   1.000000
    4       -6.286863   1.000000
    5        2.073527   0.000000
    6        3.149461   0.000000
    7        3.746651   0.000000
    8        4.715175   0.000000
    9        9.533744   0.000000
   10       10.840754   0.000000
   11       11.753994   0.000000
   12       12.627856   0.000000
 
  0.3747003E-15  0.2000000E+00  0.3885781E-15  0.1481481E-02
    1      -12.350786   1.000000
    2       -8.896997   1.000000
    3       -7.205390   1.000000
    4       -6.283197   1.000000
    5        2.397992   0.000000
    6        3.632900   0.000000
    7        4.281183   0.000000
    8        7.029179   0.000000
    9        7.054448   0.000000
   10       10.293432   0.000000
   11       11.785533   0.000000
   12       12.827927   0.000000
 
  0.6666667E-01  0.2000000E+00  0.3885781E-15  0.1481481E-02
    1      -12.273063   1.000000
    2       -8.849149   1.000000
    3       -7.236579   1.000000
    4       -6.214957   1.000000
    5        2.571427   0.000000
    6        3.649482   0.000000
    7        4.382779   0.000000
    8        4.745806   0.000000
    9        9.432392   0.000000
   10        9.587535   0.000000
   11       11.291096   0.000000
   12       12.383120   0.000000
 
  0.1333333E+00  0.2000000E+00  0.3747003E-15  0.1481481E-02
    1      -12.028896   1.000000
    2       -8.687632   1.000000
    3       -7.215150   1.000000
    4       -6.135320   1.000000
    5        2.415763   0.000000
    6        2.942840   0.000000
    7        3.791141   0.000000
    8        4.751031   0.000000
    9        8.506869   0.000000
   10       10.310626   0.000000
   11       11.548061   0.000000
   12       11.966984   0.000000
 
  0.2000000E+00  0.2000000E+00  0.4024558E-15  0.1481481E-02
    1      -11.627445   1.000000
    2       -8.417273   1.000000
    3       -7.144661   1.000000
    4       -6.073941   1.000000
    5        0.432547   0.000000
    6        3.322113   0.000000
    7        4.022312   0.000000
    8        5.162065   0.000000
    9        7.480517   0.000000
   10        9.202265   0.000000
   11       10.544825   0.000000
   12       11.532664   0.000000
 
  0.2666667E+00  0.2000000E+00  0.3608225E-15  0.1481481E-02
    1      -11.073729   1.000000
    2       -8.055200   1.000000
    3       -7.042849   1.000000
    4       -6.078940   1.000000
    5       -1.395496   0.498938
    6        3.657686   0.000000
    7        4.347527   0.000000
    8        5.573476   0.000000
    9        6.724247   0.000000
   10        8.258435   0.000000
   11        9.671291   0.000000
   12       11.436969   0.000000
 
  0.3333333E+00  0.2000000E+00  0.3608225E-15  0.1481481E-02
    1      -10.387698   1.000000
    2       -7.632044   1.000000
    3       -6.962889   1.000000
    4       -6.162369   1.000000
    5       -3.002492   1.000000
    6        3.690956   0.000000
    7        4.662598   0.000000
    8        5.739748   0.000000
    9        6.482174   0.000000
   10        7.914886   0.000000
   11        9.269399   0.000000
   12       11.363126   0.000000
 
  0.4000000E+00  0.2000000E+00  0.3330669E-15  0.1481481E-02
    1       -9.606040   1.000000
    2       -7.269971   1.000000
    3       -6.986061   1.000000
    4       -6.241696   1.000000
    5       -4.332494   1.000000
    6        3.448231   0.000000
    7        4.682248   0.000000
    8        5.756645   0.000000
    9        6.732183   0.000000
   10        8.201209   0.000000
   11        9.475170   0.000000
   12       10.784086   0.000000
 
  0.4666667E+00  0.2000000E+00  0.3608225E-15  0.1481481E-02
    1       -8.849285   1.000000
    2       -7.589777   1.000000
    3       -6.690889   1.000000
    4       -6.107934   1.000000
    5       -5.318603   1.000000
    6        3.146406   0.000000
    7        4.569393   0.000000
    8        5.797637   0.000000
    9        7.205179   0.000000
   10        8.464901   0.000000
   11        9.781180   0.000000
   12       10.665037   0.000000
 
 -0.4666667E+00  0.2000000E+00  0.4024558E-15  0.1481481E-02
    1       -8.847257   1.000000
    2       -7.639328   1.000000
    3       -6.510770   1.000000
    4       -6.170776   1.000000
    5       -5.395694   1.000000
    6        2.952512   0.000000
    7        4.609354   0.000000
    8        5.795389   0.000000
    9        7.174441   0.000000
   10        8.689419   0.000000
   11        9.843312   0.000000
   12       11.095021   0.000000
 
 -0.4000000E+00  0.2000000E+00  0.3816392E-15  0.1481481E-02
    1       -9.608970   1.000000
    2       -7.314246   1.000000
    3       -6.797720   1.000000
    4       -6.294830   1.000000
    5       -4.444055   1.000000
    6        2.958754   0.000000
    7        4.683311   0.000000
    8        5.528801   0.000000
    9        7.098705   0.000000
   10        8.747547   0.000000
   11       10.263085   0.000000
   12       10.580942   0.000000
 
 -0.3333333E+00  0.2000000E+00  0.3712308E-15  0.1481481E-02
    1      -10.401731   1.000000
    2       -7.555873   1.000000
    3       -6.860917   1.000000
    4       -6.286604   1.000000
    5       -3.096512   1.000000
    6        3.132158   0.000000
    7        4.341902   0.000000
    8        5.327169   0.000000
    9        7.476314   0.000000
   10        8.820872   0.000000
   11        9.741576   0.000000
   12       11.617185   0.000000
 
 -0.2666667E+00  0.2000000E+00  0.3877107E-15  0.1481481E-02
    1      -11.089547   1.000000
    2       -7.993535   1.000000
    3       -6.858771   1.000000
    4       -6.308218   1.000000
    5       -1.484036   1.049561
    6        3.231305   0.000000
    7        3.876394   0.000000
    8        5.172033   0.000000
    9        8.160402   0.000000
   10        8.989491   0.000000
   11        9.997115   0.000000
   12       12.594137   0.000000
 
 -0.2000000E+00  0.2000000E+00  0.3747003E-15  0.1481481E-02
    1      -11.638949   1.000000
    2       -8.371347   1.000000
    3       -6.928974   1.000000
    4       -6.333324   1.000000
    5        0.340953   0.000000
    6        2.932759   0.000000
    7        3.797088   0.000000
    8        4.909875   0.000000
    9        8.978417   0.000000
   10        9.570218   0.000000
   11       10.839516   0.000000
   12       13.101386   0.000000
 
 -0.1333333E+00  0.2000000E+00  0.3955170E-15  0.1481481E-02
    1      -12.032605   1.000000
    2       -8.647590   1.000000
    3       -7.027057   1.000000
    4       -6.337162   1.000000
    5        2.256671   0.000000
    6        2.653930   0.000000
    7        3.795648   0.000000
    8        4.650826   0.000000
    9        9.940301   0.000000
   10       10.519582   0.000000
   11       11.664735   0.000000
   12       12.218676   0.000000
 
 -0.6666667E-01  0.2000000E+00  0.3885781E-15  0.1481481E-02
    1      -12.268824   1.000000
    2       -8.824673   1.000000
    3       -7.128461   1.000000
    4       -6.324417   1.000000
    5        2.394243   0.000000
    6        3.630283   0.000000
    7        4.161867   0.000000
    8        4.916578   0.000000
    9        9.550654   0.000000
   10       10.640207   0.000000
   11       11.406536   0.000000
   12       12.217994   0.000000
 
  0.3738329E-15  0.3000000E+00  0.4024558E-15  0.1481481E-02
    1      -12.130833   1.000000
    2       -9.154451   1.000000
    3       -7.483051   1.000000
    4       -6.348463   1.000000
    5        2.889851   0.000000
    6        4.308008   0.000000
    7        5.180048   0.000000
    8        7.045055   0.000000
    9        7.122464   0.000000
   10        9.398018   0.000000
   11       10.776750   0.000000
   12       12.120757   0.000000
 
  0.6666667E-01  0.3000000E+00  0.4024558E-15  0.1481481E-02
    1      -12.047773   1.000000
    2       -9.100529   1.000000
    3       -7.510700   1.000000
    4       -6.275180   1.000000
    5        3.065425   0.000000
    6        4.279619   0.000000
    7        4.687906   0.000000
    8        5.449456   0.000000
    9        8.827448   0.000000
   10        9.518919   0.000000
   11       10.423403   0.000000
   12       11.471122   0.000000
 
  0.1333333E+00  0.3000000E+00  0.4163336E-15  0.1481481E-02
    1      -11.805804   1.000000
    2       -8.938903   1.000000
    3       -7.486639   1.000000
    4       -6.178286   1.000000
    5        2.442313   0.000000
    6        3.363415   0.000000
    7        4.420654   0.000000
    8        5.676144   0.000000
    9        8.144083   0.000000
   10        9.719283   0.000000
   11       10.598093   0.000000
   12       12.126608   0.000000
 
  0.2000000E+00  0.3000000E+00  0.4163336E-15  0.1481481E-02
    1      -11.399585   1.000000
    2       -8.666297   1.000000
    3       -7.405809   1.000000
    4       -6.086161   1.000000
    5        0.422502   0.000000
    6        3.671540   0.000000
    7        4.517798   0.000000
    8        5.972332   0.000000
    9        7.389799   0.000000
   10        8.922986   0.000000
   11       10.151399   0.000000
   12       11.341758   0.000000
 
  0.2666667E+00  0.3000000E+00  0.3608225E-15  0.1481481E-02
    1      -10.842070   1.000000
    2       -8.310309   1.000000
    3       -7.285880   1.000000
    4       -6.050281   1.000000
    5       -1.422823   0.772062
    6        3.791133   0.000000
    7        4.579450   0.000000
    8        6.162479   0.000000
    9        6.909379   0.000000
   10        8.350588   0.000000
   11       10.109537   0.000000
   12       10.560067   0.000000
 
  0.3333333E+00  0.3000000E+00  0.4440892E-15  0.1481481E-02
    1      -10.144820   1.000000
    2       -7.893750   1.000000
    3       -7.148304   1.000000
    4       -6.100098   1.000000
    5       -3.067109   1.000000
    6        3.521074   0.000000
    7        4.503234   0.000000
    8        6.213675   0.000000
    9        6.912152   0.000000
   10        8.349234   0.000000
   11       10.055252   0.000000
   12       10.562081   0.000000
 
  0.4000000E+00  0.3000000E+00  0.3885781E-15  0.1481481E-02
    1       -9.353317   1.000000
    2       -7.509501   1.000000
    3       -7.050870   1.000000
    4       -6.240796   1.000000
    5       -4.443099   1.000000
    6        3.058441   0.000000
    7        4.278397   0.000000
    8        6.307896   0.000000
    9        7.249890   0.000000
   10        8.601221   0.000000
   11       10.215378   0.000000
   12       11.028401   0.000000
 
  0.4666667E+00  0.3000000E+00  0.3885781E-15  0.1481481E-02
    1       -8.600102   1.000000
    2       -7.538765   1.000000
    3       -6.833218   1.000000
    4       -6.312276   1.000000
    5       -5.410740   1.000000
    6        2.657249   0.000000
    7        4.162285   0.000000
    8        6.356013   0.000000
    9        7.661258   0.000000
   10        8.643634   0.000000
   11       10.355891   0.000000
   12       11.640608   0.000000
 
 -0.4666667E+00  0.3000000E+00  0.3816392E-15  0.1481481E-02
    1       -8.589557   1.000000
    2       -7.615571   1.000000
    3       -6.707751   1.000000
    4       -6.259361   1.000000
    5       -5.532803   1.000000
    6        2.472150   0.000000
    7        4.265842   0.000000
    8        6.339422   0.000000
    9        7.360976   0.000000
   10        9.020024   0.000000
   11       10.553378   0.000000
   12       11.979051   0.000000
 
 -0.4000000E+00  0.3000000E+00  0.3960591E-15  0.1481481E-02
    1       -9.357802   1.000000
    2       -7.547432   1.000000
    3       -6.919684   1.000000
    4       -6.226732   1.000000
    5       -4.572335   1.000000
    6        2.565702   0.000000
    7        4.520978   0.000000
    8        5.899152   0.000000
    9        7.307173   0.000000
   10        9.309978   0.000000
   11       10.961373   0.000000
   12       11.354165   0.000000
 
 -0.3333333E+00  0.3000000E+00  0.3885781E-15  0.1481481E-02
    1      -10.159863   1.000000
    2       -7.869860   1.000000
    3       -6.998530   1.000000
    4       -6.221082   1.000000
    5       -3.161782   1.000000
    6        2.896054   0.000000
    7        4.514287   0.000000
    8        5.595915   0.000000
    9        7.631527   0.000000
   10        9.436179   0.000000
   11       10.523707   0.000000
   12       11.745352   0.000000
 
 -0.2666667E+00  0.3000000E+00  0.3608225E-15  0.1481481E-02
    1      -10.854577   1.000000
    2       -8.281078   1.000000
    3       -7.077667   1.000000
    4       -6.261347   1.000000
    5       -1.509897   1.042758
    6        3.291992   0.000000
    7        4.081401   0.000000
    8        5.734948   0.000000
    9        8.131445   0.000000
   10        9.730186   0.000000
   11       10.272750   0.000000
   12       12.138789   0.000000
 
 -0.2000000E+00  0.3000000E+00  0.3608225E-15  0.1481481E-02
    1      -11.412845   1.000000
    2       -8.643454   1.000000
    3       -7.189523   1.000000
    4       -6.323186   1.000000
    5        0.333118   0.000000
    6        3.289856   0.000000
    7        4.026476   0.000000
    8        5.702366   0.000000
    9        8.938524   0.000000
   10       10.066481   0.000000
   11       10.600706   0.000000
   12       12.099197   0.000000
 
 -0.1333333E+00  0.3000000E+00  0.3747003E-15  0.1481481E-02
    1      -11.809880   1.000000
    2       -8.917808   1.000000
    3       -7.305833   1.000000
    4       -6.367554   1.000000
    5        2.310018   0.000000
    6        3.051277   0.000000
    7        4.231638   0.000000
    8        5.547038   0.000000
    9        9.708571   0.000000
   10       10.662766   0.000000
   11       10.993911   0.000000
   12       11.986350   0.000000
 
 -0.6666667E-01  0.3000000E+00  0.4024558E-15  0.1481481E-02
    1      -12.046607   1.000000
    2       -9.087189   1.000000
    3       -7.408124   1.000000
    4       -6.374485   1.000000
    5        2.861004   0.000000
    6        4.240293   0.000000
    7        4.463409   0.000000
    8        5.578508   0.000000
    9        9.444620   0.000000
   10        9.888894   0.000000
   11       10.872736   0.000000
   12       11.895209   0.000000
 
  0.3729655E-15  0.4000000E+00  0.4163336E-15  0.1481481E-02
    1      -11.913856   1.000000
    2       -9.440068   1.000000
    3       -7.651743   1.000000
    4       -6.406028   1.000000
    5        3.385451   0.000000
    6        4.855312   0.000000
    7        6.182781   0.000000
    8        7.004629   0.000000
    9        7.267763   0.000000
   10        8.735482   0.000000
   11        9.718040   0.000000
   12       11.201377   0.000000
 
  0.6666667E-01  0.4000000E+00  0.3608225E-15  0.1481481E-02
    1      -11.829393   1.000000
    2       -9.384785   1.000000
    3       -7.658539   1.000000
    4       -6.349756   1.000000
    5        3.514394   0.000000
    6        4.564371   0.000000
    7        4.965054   0.000000
    8        6.549613   0.000000
    9        8.215912   0.000000
   10        9.422143   0.000000
   11        9.792584   0.000000
   12       10.798609   0.000000
 
  0.1333333E+00  0.4000000E+00  0.3885781E-15  0.1481481E-02
    1      -11.581858   1.000000
    2       -9.218185   1.000000
    3       -7.618368   1.000000
    4       -6.246849   1.000000
    5        2.436040   0.000000
    6        3.714118   0.000000
    7        4.934968   0.000000
    8        6.675054   0.000000
    9        7.806264   0.000000
   10        9.364069   0.000000
   11       10.040917   0.000000
   12       12.167658   0.000000
 
  0.2000000E+00  0.4000000E+00  0.3885781E-15  0.1481481E-02
    1      -11.171485   1.000000
    2       -8.951663   1.000000
    3       -7.527519   1.000000
    4       -6.139729   1.000000
    5        0.405917   0.000000
    6        3.883468   0.000000
    7        4.849092   0.000000
    8        6.660103   0.000000
    9        7.470894   0.000000
   10        9.190351   0.000000
   11        9.375535   0.000000
   12       12.092257   0.000000
 
  0.2666667E+00  0.4000000E+00  0.3608225E-15  0.1481481E-02
    1      -10.602571   1.000000
    2       -8.603024   1.000000
    3       -7.396369   1.000000
    4       -6.063638   1.000000
    5       -1.457260   0.993928
    6        3.770250   0.000000
    7        4.634697   0.000000
    8        6.501048   0.000000
    9        7.427327   0.000000
   10        8.863641   0.000000
   11        9.445715   0.000000
   12       11.568269   0.000000
 
  0.3333333E+00  0.4000000E+00  0.3885781E-15  0.1481481E-02
    1       -9.884621   1.000000
    2       -8.203133   1.000000
    3       -7.233407   1.000000
    4       -6.065417   1.000000
    5       -3.130182   1.000000
    6        3.268461   0.000000
    7        4.360756   0.000000
    8        6.566064   0.000000
    9        7.446718   0.000000
   10        8.930941   0.000000
   11        9.788561   0.000000
   12       11.414321   0.000000
 
  0.4000000E+00  0.4000000E+00  0.3330669E-15  0.1481481E-02
    1       -9.065200   1.000000
    2       -7.820174   1.000000
    3       -7.087955   1.000000
    4       -6.197323   1.000000
    5       -4.552754   1.000000
    6        2.696994   0.000000
    7        4.070644   0.000000
    8        6.764561   0.000000
    9        7.583308   0.000000
   10        9.068749   0.000000
   11       10.465044   0.000000
   12       11.194779   0.000000
 
  0.4666667E+00  0.4000000E+00  0.3608225E-15  0.1481481E-02
    1       -8.289876   1.000000
    2       -7.596993   1.000000
    3       -6.936358   1.000000
    4       -6.504287   1.000000
    5       -5.487504   1.000000
    6        2.296962   0.000000
    7        3.924788   0.000000
    8        6.845804   0.000000
    9        7.797713   0.000000
   10        9.075628   0.000000
   11       10.852852   0.000000
   12       11.418618   0.000000
 
 -0.4666667E+00  0.4000000E+00  0.3486794E-15  0.1481481E-02
    1       -8.265034   1.000000
    2       -7.677397   1.000000
    3       -6.881408   1.000000
    4       -6.422866   1.000000
    5       -5.566974   1.000000
    6        2.188292   0.000000
    7        3.996241   0.000000
    8        6.939660   0.000000
    9        7.388485   0.000000
   10        9.336296   0.000000
   11       11.202555   0.000000
   12       12.043361   0.000000
 
 -0.4000000E+00  0.4000000E+00  0.3677614E-15  0.1481481E-02
    1       -9.068913   1.000000
    2       -7.847623   1.000000
    3       -7.024497   1.000000
    4       -6.166808   1.000000
    5       -4.641514   1.000000
    6        2.396170   0.000000
    7        4.257396   0.000000
    8        6.446352   0.000000
    9        7.433427   0.000000
   10        9.573735   0.000000
   11       11.488482   0.000000
   12       12.030964   0.000000
 
 -0.3333333E+00  0.4000000E+00  0.3747003E-15  0.1481481E-02
    1       -9.898137   1.000000
    2       -8.204551   1.000000
    3       -7.134594   1.000000
    4       -6.138151   1.000000
    5       -3.189796   1.000000
    6        2.860304   0.000000
    7        4.501188   0.000000
    8        5.965002   0.000000
    9        7.846030   0.000000
   10        9.580513   0.000000
   11       11.053638   0.000000
   12       11.849904   0.000000
 
 -0.2666667E+00  0.4000000E+00  0.3469447E-15  0.1481481E-02
    1      -10.615563   1.000000
    2       -8.595108   1.000000
    3       -7.262538   1.000000
    4       -6.190888   1.000000
    5       -1.507885   1.044362
    6        3.421613   0.000000
    7        4.373143   0.000000
    8        6.101667   0.000000
    9        8.251213   0.000000
   10        9.603668   0.000000
   11       10.615664   0.000000