  15  15   1   0
  0.5875266E+01  0.2826381E-09  0.4226707E-09  0.7649999E-09  0.5000000E-15
  1.000000000000000E-004
  CAR 
 unknown system                          
     17.50149009    -13.46588602  301     -2.39929019      1.00000000
    -13.466  0.0000E+00  0.0000E+00  0.0000E+00  0.0000E+00
    -13.363  0.0000E+00  0.0000E+00  0.0000E+00  0.0000E+00
    -13.259  0.0000E+00  0.0000E+00  0.0000E+00  0.0000E+00
    -13.156  0.0000E+00  0.0000E+00  0.0000E+00  0.0000E+00
    -13.053  0.0000E+00  0.0000E+00  0.0000E+00  0.0000E+00
    -12.950  0.0000E+00  0.0000E+00  0.0000E+00  0.0000E+00
    -12.847  0.0000E+00  0.0000E+00  0.0000E+00  0.0000E+00
    -12.743  0.0000E+00  0.0000E+00  0.0000E+00  0.0000E+00
    -12.640  0.0000E+00  0.0000E+00  0.0000E+00  0.0000E+00
    -12.537  0.0000E+00  0.0000E+00  0.0000E+00  0.0000E+00
    -12.434  0.0000E+00  0.0000E+00  0.0000E+00  0.0000E+00
    -12.330  0.0000E+00  0.0000E+00  0.0000E+00  0.0000E+00
    -12.227  0.0000E+00  0.0000E+00  0.0000E+00  0.0000E+00
    -12.124  0.0000E+00  0.0000E+00  0.0000E+00  0.0000E+00
    -12.021  0.2644E-02  0.2645E-02  0.4140E-04  0.4142E-04
    -11.918  0.7157E-02  0.7157E-02  0.5774E-03  0.5774E-03
    -11.814  0.8981E-02  0.8981E-02  0.1547E-02  0.1547E-02
    -11.711  0.6286E-02  0.6286E-02  0.2331E-02  0.2331E-02
    -11.608  0.3728E-02  0.3728E-02  0.2799E-02  0.2799E-02
    -11.505  0.3727E-02  0.3727E-02  0.3183E-02  0.3183E-02
    -11.401  0.3726E-02  0.3726E-02  0.3568E-02  0.3568E-02
    -11.298  0.3725E-02  0.3725E-02  0.3953E-02  0.3953E-02
    -11.195  0.3214E-02  0.3214E-02  0.4317E-02  0.4317E-02
    -11.092  0.2722E-02  0.2722E-02  0.4624E-02  0.4624E-02
    -10.988  0.2293E-02  0.2292E-02  0.4873E-02  0.4873E-02
    -10.885  0.2292E-02  0.2292E-02  0.5109E-02  0.5109E-02
    -10.782  0.2291E-02  0.2291E-02  0.5346E-02  0.5346E-02
    -10.679  0.2291E-02  0.2291E-02  0.5582E-02  0.5582E-02
    -10.576  0.2290E-02  0.2290E-02  0.5819E-02  0.5819E-02
    -10.472  0.2290E-02  0.2290E-02  0.6055E-02  0.6055E-02
    -10.369  0.3618E-02  0.3618E-02  0.6315E-02  0.6315E-02
    -10.266  0.8298E-02  0.8298E-02  0.6975E-02  0.6975E-02
    -10.163  0.7343E-02  0.7343E-02  0.7780E-02  0.7780E-02
    -10.059  0.7763E-02  0.7763E-02  0.8553E-02  0.8553E-02
     -9.956  0.8330E-02  0.8330E-02  0.9380E-02  0.9380E-02
     -9.853  0.8983E-02  0.8983E-02  0.1028E-01  0.1028E-01
     -9.750  0.8944E-02  0.8944E-02  0.1123E-01  0.1123E-01
     -9.647  0.7045E-02  0.7045E-02  0.1204E-01  0.1204E-01
     -9.543  0.1078E-01  0.1078E-01  0.1283E-01  0.1283E-01
     -9.440  0.2157E-01  0.2157E-01  0.1459E-01  0.1459E-01
     -9.337  0.1573E-01  0.1573E-01  0.1655E-01  0.1655E-01
     -9.234  0.1406E-01  0.1406E-01  0.1803E-01  0.1803E-01
     -9.130  0.1840E-01  0.1840E-01  0.1963E-01  0.1963E-01
     -9.027  0.1913E-01  0.1913E-01  0.2161E-01  0.2161E-01
     -8.924  0.1951E-01  0.1951E-01  0.2363E-01  0.2363E-01
     -8.821  0.2147E-01  0.2147E-01  0.2573E-01  0.2573E-01
     -8.718  0.2449E-01  0.2449E-01  0.2794E-01  0.2794E-01
     -8.614  0.2826E-01  0.2826E-01  0.3083E-01  0.3083E-01
     -8.511  0.2761E-01  0.2761E-01  0.3375E-01  0.3375E-01
     -8.408  0.2823E-01  0.2823E-01  0.3665E-01  0.3665E-01
     -8.305  0.3516E-01  0.3516E-01  0.3981E-01  0.3981E-01
     -8.201  0.3141E-01  0.3141E-01  0.4326E-01  0.4326E-01
     -8.098  0.3773E-01  0.3773E-01  0.4694E-01  0.4694E-01
     -7.995  0.4703E-01  0.4703E-01  0.5127E-01  0.5127E-01
     -7.892  0.3862E-01  0.3862E-01  0.5516E-01  0.5516E-01
     -7.789  0.3999E-01  0.3999E-01  0.5910E-01  0.5910E-01
     -7.685  0.4947E-01  0.4947E-01  0.6357E-01  0.6357E-01
     -7.582  0.3795E-01  0.3794E-01  0.6861E-01  0.6861E-01
     -7.479  0.0000E+00  0.0000E+00  0.7071E-01  0.7071E-01
     -7.376  0.0000E+00  0.0000E+00  0.7071E-01  0.7071E-01
     -7.272  0.0000E+00  0.0000E+00  0.7071E-01  0.7071E-01
     -7.169  0.0000E+00  0.0000E+00  0.7071E-01  0.7071E-01
     -7.066  0.0000E+00  0.0000E+00  0.7071E-01  0.7071E-01
     -6.963  0.0000E+00  0.0000E+00  0.7071E-01  0.7071E-01
     -6.860  0.0000E+00  0.0000E+00  0.7071E-01  0.7071E-01
     -6.756  0.0000E+00  0.0000E+00  0.7071E-01  0.7071E-01
     -6.653  0.0000E+00  0.0000E+00  0.7071E-01  0.7071E-01
     -6.550  0.6704E-02  0.6704E-02  0.7117E-01  0.7117E-01
     -6.447  0.1040E-02  0.1040E-02  0.7192E-01  0.7192E-01
     -6.343  0.1040E-02  0.1040E-02  0.7202E-01  0.7202E-01
     -6.240  0.1040E-02  0.1040E-02  0.7213E-01  0.7213E-01
     -6.137  0.1040E-02  0.1040E-02  0.7224E-01  0.7224E-01
     -6.034  0.1040E-02  0.1040E-02  0.7235E-01  0.7235E-01
     -5.930  0.1040E-02  0.1040E-02  0.7245E-01  0.7245E-01
     -5.827  0.1040E-02  0.1040E-02  0.7256E-01  0.7256E-01
     -5.724  0.1040E-02  0.1040E-02  0.7267E-01  0.7267E-01
     -5.621  0.1040E-02  0.1040E-02  0.7278E-01  0.7278E-01
     -5.518  0.1040E-02  0.1040E-02  0.7288E-01  0.7288E-01
     -5.414  0.1040E-02  0.1040E-02  0.7299E-01  0.7299E-01
     -5.311  0.1040E-02  0.1040E-02  0.7310E-01  0.7310E-01
     -5.208  0.1040E-02  0.1040E-02  0.7321E-01  0.7321E-01
     -5.105  0.1040E-02  0.1040E-02  0.7331E-01  0.7331E-01
     -5.001  0.1040E-02  0.1040E-02  0.7342E-01  0.7342E-01
     -4.898  0.1041E-02  0.1041E-02  0.7353E-01  0.7353E-01
     -4.795  0.1041E-02  0.1041E-02  0.7363E-01  0.7363E-01
     -4.692  0.1041E-02  0.1041E-02  0.7374E-01  0.7374E-01
     -4.589  0.1041E-02  0.1041E-02  0.7385E-01  0.7385E-01
     -4.485  0.1041E-02  0.1041E-02  0.7396E-01  0.7396E-01
     -4.382  0.9889E-03  0.9889E-03  0.7406E-01  0.7406E-01
     -4.279  0.8529E-03  0.8529E-03  0.7415E-01  0.7415E-01
     -4.176  0.8529E-03  0.8529E-03  0.7424E-01  0.7424E-01
     -4.072  0.8529E-03  0.8529E-03  0.7433E-01  0.7433E-01
     -3.969  0.8529E-03  0.8529E-03  0.7442E-01  0.7442E-01
     -3.866  0.8529E-03  0.8529E-03  0.7451E-01  0.7451E-01
     -3.763  0.8529E-03  0.8529E-03  0.7459E-01  0.7459E-01
     -3.660  0.8529E-03  0.8529E-03  0.7468E-01  0.7468E-01
     -3.556  0.8529E-03  0.8529E-03  0.7477E-01  0.7477E-01
     -3.453  0.8530E-03  0.8529E-03  0.7486E-01  0.7486E-01
     -3.350  0.8530E-03  0.8530E-03  0.7495E-01  0.7495E-01
     -3.247  0.8530E-03  0.8530E-03  0.7503E-01  0.7503E-01
     -3.143  0.8530E-03  0.8530E-03  0.7512E-01  0.7512E-01
     -3.040  0.8530E-03  0.8530E-03  0.7521E-01  0.7521E-01
     -2.937  0.8530E-03  0.8530E-03  0.7530E-01  0.7530E-01
     -2.834  0.8530E-03  0.8530E-03  0.7539E-01  0.7539E-01
     -2.731  0.8530E-03  0.8530E-03  0.7548E-01  0.7548E-01
     -2.627  0.8530E-03  0.8530E-03  0.7556E-01  0.7556E-01
     -2.524  0.8530E-03  0.8530E-03  0.7565E-01  0.7565E-01
     -2.421  0.8530E-03  0.8530E-03  0.7574E-01  0.7574E-01
     -2.318  0.8530E-03  0.8530E-03  0.7583E-01  0.7583E-01
     -2.214  0.8530E-03  0.8530E-03  0.7592E-01  0.7592E-01
     -2.111  0.8530E-03  0.8530E-03  0.7600E-01  0.7600E-01
     -2.008  0.8530E-03  0.8530E-03  0.7609E-01  0.7609E-01
     -1.905  0.8530E-03  0.8530E-03  0.7618E-01  0.7618E-01
     -1.802  0.8530E-03  0.8530E-03  0.7627E-01  0.7627E-01
     -1.698  0.7427E-03  0.7427E-03  0.7635E-01  0.7635E-01
     -1.595  0.7427E-03  0.7427E-03  0.7643E-01  0.7643E-01
     -1.492  0.7427E-03  0.7427E-03  0.7650E-01  0.7650E-01
     -1.389  0.7427E-03  0.7427E-03  0.7658E-01  0.7658E-01
     -1.285  0.7427E-03  0.7427E-03  0.7666E-01  0.7666E-01
     -1.182  0.7427E-03  0.7427E-03  0.7673E-01  0.7673E-01
     -1.079  0.7427E-03  0.7427E-03  0.7681E-01  0.7681E-01
     -0.976  0.7427E-03  0.7427E-03  0.7689E-01  0.7689E-01
     -0.872  0.7427E-03  0.7427E-03  0.7696E-01  0.7696E-01
     -0.769  0.7427E-03  0.7427E-03  0.7704E-01  0.7704E-01
     -0.666  0.7427E-03  0.7427E-03  0.7712E-01  0.7712E-01
     -0.563  0.7427E-03  0.7427E-03  0.7719E-01  0.7719E-01
     -0.460  0.7427E-03  0.7427E-03  0.7727E-01  0.7727E-01
     -0.356  0.7427E-03  0.7427E-03  0.7735E-01  0.7735E-01
     -0.253  0.7427E-03  0.7427E-03  0.7742E-01  0.7742E-01
     -0.150  0.7427E-03  0.7427E-03  0.7750E-01  0.7750E-01
     -0.047  0.7427E-03  0.7427E-03  0.7758E-01  0.7758E-01
      0.057  0.7427E-03  0.7427E-03  0.7765E-01  0.7765E-01
      0.160  0.7427E-03  0.7427E-03  0.7773E-01  0.7773E-01
      0.263  0.7427E-03  0.7427E-03  0.7781E-01  0.7781E-01
      0.366  0.7427E-03  0.7427E-03  0.7788E-01  0.7788E-01
      0.469  0.7427E-03  0.7427E-03  0.7796E-01  0.7796E-01
      0.573  0.7427E-03  0.7427E-03  0.7804E-01  0.7804E-01
      0.676  0.7427E-03  0.7427E-03  0.7811E-01  0.7811E-01
      0.779  0.7427E-03  0.7427E-03  0.7819E-01  0.7819E-01
      0.882  0.7427E-03  0.7427E-03  0.7827E-01  0.7827E-01
      0.986  0.7427E-03  0.7427E-03  0.7834E-01  0.7834E-01
      1.089  0.7427E-03  0.7427E-03  0.7842E-01  0.7842E-01
      1.192  0.7427E-03  0.7427E-03  0.7850E-01  0.7850E-01
      1.295  0.1156E-01  0.1157E-01  0.7871E-01  0.7871E-01
      1.398  0.5923E-02  0.5924E-02  0.7938E-01  0.7938E-01
      1.502  0.5959E-02  0.5966E-02  0.7997E-01  0.7997E-01
      1.605  0.9043E-02  0.9043E-02  0.8084E-01  0.8084E-01
      1.708  0.1031E-01  0.1030E-01  0.8185E-01  0.8185E-01
      1.811  0.1324E-01  0.1324E-01  0.8313E-01  0.8313E-01
      1.915  0.1762E-01  0.1763E-01  0.8466E-01  0.8466E-01
      2.018  0.2388E-01  0.2388E-01  0.8691E-01  0.8691E-01
      2.121  0.2584E-01  0.2584E-01  0.8949E-01  0.8949E-01
      2.224  0.2137E-01  0.2136E-01  0.9211E-01  0.9212E-01
      2.327  0.1725E-01  0.1725E-01  0.9392E-01  0.9393E-01
      2.431  0.1847E-01  0.1847E-01  0.9578E-01  0.9578E-01
      2.534  0.3241E-01  0.3242E-01  0.9815E-01  0.9815E-01
      2.637  0.2434E-01  0.2434E-01  0.1010E+00  0.1010E+00
      2.740  0.1752E-01  0.1753E-01  0.1031E+00  0.1031E+00
      2.844  0.2256E-01  0.2257E-01  0.1051E+00  0.1051E+00
      2.947  0.2238E-01  0.2238E-01  0.1076E+00  0.1076E+00
      3.050  0.2310E-01  0.2310E-01  0.1100E+00  0.1100E+00
      3.153  0.1625E-01  0.1626E-01  0.1120E+00  0.1120E+00
      3.256  0.1855E-01  0.1856E-01  0.1138E+00  0.1138E+00
      3.360  0.2691E-01  0.2692E-01  0.1161E+00  0.1162E+00
      3.463  0.2531E-01  0.2529E-01  0.1190E+00  0.1190E+00
      3.566  0.1786E-01  0.1787E-01  0.1210E+00  0.1210E+00
      3.669  0.1318E-01  0.1318E-01  0.1226E+00  0.1226E+00
      3.773  0.1517E-01  0.1518E-01  0.1240E+00  0.1240E+00
      3.876  0.1915E-01  0.1916E-01  0.1258E+00  0.1258E+00
      3.979  0.2061E-01  0.2061E-01  0.1279E+00  0.1279E+00
      4.082  0.1885E-01  0.1884E-01  0.1300E+00  0.1300E+00
      4.186  0.1301E-01  0.1300E-01  0.1315E+00  0.1315E+00
      4.289  0.1265E-01  0.1265E-01  0.1328E+00  0.1328E+00
      4.392  0.1472E-01  0.1473E-01  0.1342E+00  0.1342E+00
      4.495  0.1630E-01  0.1630E-01  0.1359E+00  0.1359E+00
      4.598  0.1606E-01  0.1606E-01  0.1375E+00  0.1375E+00
      4.702  0.1964E-01  0.1963E-01  0.1392E+00  0.1392E+00
      4.805  0.1437E-01  0.1437E-01  0.1409E+00  0.1409E+00
      4.908  0.1393E-01  0.1393E-01  0.1425E+00  0.1425E+00
      5.011  0.1338E-01  0.1338E-01  0.1438E+00  0.1438E+00
      5.115  0.1343E-01  0.1343E-01  0.1452E+00  0.1452E+00
      5.218  0.1352E-01  0.1352E-01  0.1466E+00  0.1466E+00
      5.321  0.1654E-01  0.1655E-01  0.1481E+00  0.1481E+00
      5.424  0.1721E-01  0.1721E-01  0.1499E+00  0.1499E+00
      5.527  0.1551E-01  0.1551E-01  0.1516E+00  0.1516E+00
      5.631  0.1454E-01  0.1454E-01  0.1531E+00  0.1531E+00
      5.734  0.1231E-01  0.1231E-01  0.1546E+00  0.1546E+00
      5.837  0.1175E-01  0.1176E-01  0.1558E+00  0.1558E+00
      5.940  0.1123E-01  0.1123E-01  0.1569E+00  0.1569E+00
      6.044  0.1221E-01  0.1221E-01  0.1581E+00  0.1582E+00
      6.147  0.1330E-01  0.1330E-01  0.1595E+00  0.1595E+00
      6.250  0.1291E-01  0.1291E-01  0.1608E+00  0.1608E+00
      6.353  0.1252E-01  0.1251E-01  0.1621E+00  0.1621E+00
      6.456  0.1333E-01  0.1333E-01  0.1635E+00  0.1635E+00
      6.560  0.1651E-01  0.1651E-01  0.1650E+00  0.1650E+00
      6.663  0.1733E-01  0.1733E-01  0.1668E+00  0.1668E+00
      6.766  0.1601E-01  0.1601E-01  0.1685E+00  0.1685E+00
      6.869  0.1458E-01  0.1458E-01  0.1701E+00  0.1701E+00
      6.973  0.1377E-01  0.1377E-01  0.1715E+00  0.1715E+00
      7.076  0.1270E-01  0.1270E-01  0.1729E+00  0.1729E+00
      7.179  0.1161E-01  0.1161E-01  0.1741E+00  0.1741E+00
      7.282  0.1262E-01  0.1262E-01  0.1754E+00  0.1754E+00
      7.385  0.1562E-01  0.1562E-01  0.1769E+00  0.1769E+00
      7.489  0.1724E-01  0.1724E-01  0.1786E+00  0.1786E+00
      7.592  0.1491E-01  0.1491E-01  0.1802E+00  0.1802E+00
      7.695  0.1592E-01  0.1592E-01  0.1818E+00  0.1818E+00
      7.798  0.1706E-01  0.1706E-01  0.1836E+00  0.1836E+00
      7.902  0.1672E-01  0.1672E-01  0.1854E+00  0.1854E+00
      8.005  0.1645E-01  0.1645E-01  0.1871E+00  0.1871E+00
      8.108  0.1668E-01  0.1668E-01  0.1888E+00  0.1888E+00
      8.211  0.1779E-01  0.1779E-01  0.1906E+00  0.1906E+00
      8.315  0.1826E-01  0.1826E-01  0.1925E+00  0.1925E+00
      8.418  0.1885E-01  0.1885E-01  0.1943E+00  0.1943E+00
      8.521  0.2100E-01  0.2101E-01  0.1964E+00  0.1964E+00
      8.624  0.1993E-01  0.1993E-01  0.1985E+00  0.1985E+00
      8.727  0.1797E-01  0.1796E-01  0.2005E+00  0.2005E+00
      8.831  0.1689E-01  0.1689E-01  0.2023E+00  0.2023E+00
      8.934  0.1630E-01  0.1630E-01  0.2040E+00  0.2040E+00
      9.037  0.1614E-01  0.1614E-01  0.2056E+00  0.2056E+00
      9.140  0.1689E-01  0.1689E-01  0.2073E+00  0.2073E+00
      9.244  0.1735E-01  0.1735E-01  0.2091E+00  0.2091E+00
      9.347  0.1762E-01  0.1762E-01  0.2109E+00  0.2109E+00
      9.450  0.1799E-01  0.1799E-01  0.2128E+00  0.2128E+00
      9.553  0.1794E-01  0.1794E-01  0.2146E+00  0.2146E+00
      9.656  0.1717E-01  0.1717E-01  0.2164E+00  0.2164E+00
      9.760  0.1767E-01  0.1768E-01  0.2182E+00  0.2182E+00
      9.863  0.2078E-01  0.2085E-01  0.2201E+00  0.2201E+00
      9.966  0.1843E-01  0.1842E-01  0.2221E+00  0.2221E+00
     10.069  0.1772E-01  0.1772E-01  0.2240E+00  0.2240E+00
     10.173  0.1748E-01  0.1748E-01  0.2258E+00  0.2258E+00
     10.276  0.1544E-01  0.1544E-01  0.2275E+00  0.2275E+00
     10.379  0.1502E-01  0.1502E-01  0.2291E+00  0.2291E+00
     10.482  0.1520E-01  0.1520E-01  0.2306E+00  0.2306E+00
     10.585  0.1952E-01  0.1955E-01  0.2323E+00  0.2323E+00
     10.689  0.2089E-01  0.2089E-01  0.2343E+00  0.2343E+00
     10.792  0.1841E-01  0.1841E-01  0.2364E+00  0.2364E+00
     10.895  0.1599E-01  0.1599E-01  0.2381E+00  0.2381E+00
     10.998  0.1543E-01  0.1543E-01  0.2397E+00  0.2397E+00
     11.102  0.1823E-01  0.1823E-01  0.2415E+00  0.2415E+00
     11.205  0.2013E-01  0.2013E-01  0.2434E+00  0.2434E+00
     11.308  0.2021E-01  0.2021E-01  0.2455E+00  0.2455E+00
     11.411  0.1913E-01  0.1913E-01  0.2476E+00  0.2476E+00
     11.514  0.1787E-01  0.1787E-01  0.2495E+00  0.2495E+00
     11.618  0.1912E-01  0.1912E-01  0.2514E+00  0.2514E+00
     11.721  0.2016E-01  0.2016E-01  0.2534E+00  0.2534E+00
     11.824  0.1845E-01  0.1845E-01  0.2554E+00  0.2554E+00
     11.927  0.2023E-01  0.2022E-01  0.2574E+00  0.2574E+00
     12.031  0.1848E-01  0.1848E-01  0.2595E+00  0.2595E+00
     12.134  0.1663E-01  0.1663E-01  0.2613E+00  0.2613E+00
     12.237  0.1760E-01  0.1760E-01  0.2630E+00  0.2630E+00
     12.340  0.1932E-01  0.1932E-01  0.2649E+00  0.2649E+00
     12.443  0.2206E-01  0.2206E-01  0.2671E+00  0.2671E+00
     12.547  0.2133E-01  0.2133E-01  0.2692E+00  0.2692E+00
     12.650  0.2464E-01  0.2464E-01  0.2716E+00  0.2716E+00
     12.753  0.2592E-01  0.2592E-01  0.2743E+00  0.2743E+00
     12.856  0.2430E-01  0.2430E-01  0.2768E+00  0.2768E+00
     12.960  0.2046E-01  0.2046E-01  0.2791E+00  0.2791E+00
     13.063  0.2205E-01  0.2205E-01  0.2814E+00  0.2814E+00
     13.166  0.1941E-01  0.1942E-01  0.2835E+00  0.2835E+00
     13.269  0.1691E-01  0.1691E-01  0.2853E+00  0.2853E+00
     13.373  0.1969E-01  0.1969E-01  0.2872E+00  0.2872E+00
     13.476  0.1831E-01  0.1831E-01  0.2892E+00  0.2892E+00
     13.579  0.1658E-01  0.1658E-01  0.2910E+00  0.2910E+00
     13.682  0.1687E-01  0.1687E-01  0.2927E+00  0.2927E+00
     13.785  0.1949E-01  0.1949E-01  0.2946E+00  0.2946E+00
     13.889  0.1877E-01  0.1878E-01  0.2965E+00  0.2966E+00
     13.992  0.1823E-01  0.1822E-01  0.2985E+00  0.2985E+00
     14.095  0.1695E-01  0.1695E-01  0.3002E+00  0.3002E+00
     14.198  0.2029E-01  0.2029E-01  0.3021E+00  0.3021E+00
     14.302  0.2091E-01  0.2091E-01  0.3043E+00  0.3043E+00
     14.405  0.2077E-01  0.2077E-01  0.3065E+00  0.3065E+00
     14.508  0.1951E-01  0.1951E-01  0.3086E+00  0.3086E+00
     14.611  0.1727E-01  0.1727E-01  0.3104E+00  0.3104E+00
     14.714  0.1595E-01  0.1595E-01  0.3122E+00  0.3122E+00
     14.818  0.1506E-01  0.1505E-01  0.3137E+00  0.3138E+00
     14.921  0.1481E-01  0.1481E-01  0.3153E+00  0.3153E+00
     15.024  0.1504E-01  0.1504E-01  0.3168E+00  0.3168E+00
     15.127  0.1312E-01  0.1312E-01  0.3183E+00  0.3183E+00
     15.231  0.1079E-01  0.1079E-01  0.3195E+00  0.3195E+00
     15.334  0.9322E-02  0.9321E-02  0.3206E+00  0.3206E+00
     15.437  0.6925E-02  0.6924E-02  0.3214E+00  0.3214E+00
     15.540  0.4809E-02  0.4807E-02  0.3220E+00  0.3220E+00
     15.643  0.3580E-02  0.3580E-02  0.3225E+00  0.3225E+00
     15.747  0.2711E-02  0.2711E-02  0.3228E+00  0.3228E+00
     15.850  0.2092E-02  0.2091E-02  0.3230E+00  0.3230E+00
     15.953  0.8627E-03  0.8618E-03  0.3232E+00  0.3232E+00
     16.056  0.1132E-03  0.1125E-03  0.3232E+00  0.3232E+00
     16.160  0.0000E+00  0.0000E+00  0.3232E+00  0.3232E+00
     16.263  0.0000E+00  0.0000E+00  0.3232E+00  0.3232E+00
     16.366  0.0000E+00  0.0000E+00  0.3232E+00  0.3232E+00
     16.469  0.0000E+00  0.0000E+00  0.3232E+00  0.3232E+00
     16.572  0.0000E+00  0.0000E+00  0.3232E+00  0.3232E+00
     16.676  0.0000E+00  0.0000E+00  0.3232E+00  0.3232E+00
     16.779  0.0000E+00  0.0000E+00  0.3232E+00  0.3232E+00
     16.882  0.0000E+00  0.0000E+00  0.3232E+00  0.3232E+00
     16.985  0.0000E+00  0.0000E+00  0.3232E+00  0.3232E+00
     17.089  0.0000E+00  0.0000E+00  0.3232E+00  0.3232E+00
     17.192  0.0000E+00  0.0000E+00  0.3232E+00  0.3232E+00
     17.295  0.0000E+00  0.0000E+00  0.3232E+00  0.3232E+00
     17.398  0.0000E+00  0.0000E+00  0.3232E+00  0.3232E+00
     17.501  0.0000E+00  0.0000E+00  0.3232E+00  0.3232E+00
     17.50149009    -13.46588602  301     -2.39929019      1.00000000
    -13.466  0.0000E+00  0.0000E+00  0.0000E+00  0.0000E+00  0.0000E+00  0.0000E+00  0.0000E+00  0.0000E+00  0.0000E+00  0.0000E+00  0.0000E+00  0.0000E+00  0.0000E+00  0.0000E+00  0.0000E+00  0.0000E+00  0.0000E+00  0.0000E+00
    -13.363  0.0000E+00  0.0000E+00  0.0000E+00  0.0000E+00  0.0000E+00  0.0000E+00  0.0000E+00  0.0000E+00  0.0000E+00  0.0000E+00  0.0000E+00  0.0000E+00  0.0000E+00  0.0000E+00  0.0000E+00  0.0000E+00  0.0000E+00  0.0000E+00
    -13.259  0.0000E+00  0.0000E+00  0.0000E+00  0.0000E+00  0.0000E+00  0.0000E+00  0.0000E+00  0.0000E+00  0.0000E+00  0.0000E+00  0.0000E+00  0.0000E+00  0.0000E+00  0.0000E+00  0.0000E+00  0.0000E+00  0.0000E+00  0.0000E+00
    -13.156  0.0000E+00  0.0000E+00  0.0000E+00  0.0000E+00  0.0000E+00  0.0000E+00  0.0000E+00  0.0000E+00  0.0000E+00  0.0000E+00  0.0000E+00  0.0000E+00  0.0000E+00  0.0000E+00  0.0000E+00  0.0000E+00  0.0000E+00  0.0000E+00
    -13.053  0.0000E+00  0.0000E+00  0.0000E+00  0.0000E+00  0.0000E+00  0.0000E+00  0.0000E+00  0.0000E+00  0.0000E+00  0.0000E+00  0.0000E+00  0.0000E+00  0.0000E+00  0.0000E+00  0.0000E+00  0.0000E+00  0.0000E+00  0.0000E+00
    -12.950  0.0000E+00  0.0000E+00  0.0000E+00  0.0000E+00  0.0000E+00  0.0000E+00  0.0000E+00  0.0000E+00  0.0000E+00  0.0000E+00  0.0000E+00  0.0000E+00  0.0000E+00  0.0000E+00  0.0000E+00  0.0000E+00  0.0000E+00  0.0000E+00
    -12.847  0.0000E+00  0.0000E+00  0.0000E+00  0.0000E+00  0.0000E+00  0.0000E+00  0.0000E+00  0.0000E+00  0.0000E+00  0.0000E+00  0.0000E+00  0.0000E+00  0.0000E+00  0.0000E+00  0.0000E+00  0.0000E+00  0.0000E+00  0.0000E+00
    -12.743  0.0000E+00  0.0000E+00  0.0000E+00  0.0000E+00  0.0000E+00  0.0000E+00  0.0000E+00  0.0000E+00  0.0000E+00  0.0000E+00  0.0000E+00  0.0000E+00  0.0000E+00  0.0000E+00  0.0000E+00  0.0000E+00  0.0000E+00  0.0000E+00
    -12.640  0.0000E+00  0.0000E+00  0.0000E+00  0.0000E+00  0.0000E+00  0.0000E+00  0.0000E+00  0.0000E+00  0.0000E+00  0.0000E+00  0.0000E+00  0.0000E+00  0.0000E+00  0.0000E+00  0.0000E+00  0.0000E+00  0.0000E+00  0.0000E+00
    -12.537  0.0000E+00  0.0000E+00  0.0000E+00  0.0000E+00  0.0000E+00  0.0000E+00  0.0000E+00  0.0000E+00  0.0000E+00  0.0000E+00  0.0000E+00  0.0000E+00  0.0000E+00  0.0000E+00  0.0000E+00  0.0000E+00  0.0000E+00  0.0000E+00
    -12.434  0.0000E+00  0.0000E+00  0.0000E+00  0.0000E+00  0.0000E+00  0.0000E+00  0.0000E+00  0.0000E+00  0.0000E+00  0.0000E+00  0.0000E+00  0.0000E+00  0.0000E+00  0.0000E+00  0.0000E+00  0.0000E+00  0.0000E+00  0.0000E+00
    -12.330  0.0000E+00  0.0000E+00  0.0000E+00  0.0000E+00  0.0000E+00  0.0000E+00  0.0000E+00  0.0000E+00  0.0000E+00  0.0000E+00  0.0000E+00  0.0000E+00  0.0000E+00  0.0000E+00  0.0000E+00  0.0000E+00  0.0000E+00  0.0000E+00
    -12.227  0.0000E+00  0.0000E+00  0.0000E+00  0.0000E+00  0.0000E+00  0.0000E+00  0.0000E+00  0.0000E+00  0.0000E+00  0.0000E+00  0.0000E+00  0.0000E+00  0.0000E+00  0.0000E+00  0.0000E+00  0.0000E+00  0.0000E+00  0.0000E+00
    -12.124  0.0000E+00  0.0000E+00  0.0000E+00  0.0000E+00  0.0000E+00  0.0000E+00  0.0000E+00  0.0000E+00  0.0000E+00  0.0000E+00  0.0000E+00  0.0000E+00  0.0000E+00  0.0000E+00  0.0000E+00  0.0000E+00  0.0000E+00  0.0000E+00
    -12.021  0.1839E-03  0.1840E-03  0.1867E-05  0.1867E-05  0.8520E-06  0.8519E-06  0.1186E-05  0.1187E-05  0.0000E+00  0.0000E+00  0.0000E+00  0.0000E+00  0.0000E+00  0.0000E+00  0.0000E+00  0.0000E+00  0.0000E+00  0.0000E+00
    -11.918  0.4155E-03  0.4155E-03  0.4338E-05  0.4339E-05  0.2051E-05  0.2050E-05  0.2677E-05  0.2677E-05  0.0000E+00  0.0000E+00  0.0000E+00  0.0000E+00  0.0000E+00  0.0000E+00  0.0000E+00  0.0000E+00  0.0000E+00  0.0000E+00
    -11.814  0.3653E-03  0.3653E-03  0.3767E-05  0.3767E-05  0.2164E-05  0.2163E-05  0.2387E-05  0.2387E-05  0.0000E+00  0.0000E+00  0.0000E+00  0.0000E+00  0.0000E+00  0.0000E+00  0.0000E+00  0.0000E+00  0.0000E+00  0.0000E+00
    -11.711  0.2524E-03  0.2524E-03  0.2648E-05  0.2648E-05  0.1584E-05  0.1584E-05  0.1709E-05  0.1708E-05  0.0000E+00  0.0000E+00  0.0000E+00  0.0000E+00  0.0000E+00  0.0000E+00  0.0000E+00  0.0000E+00  0.0000E+00  0.0000E+00
    -11.608  0.2077E-03  0.2078E-03  0.2315E-05  0.2315E-05  0.1193E-05  0.1192E-05  0.1475E-05  0.1475E-05  0.0000E+00  0.0000E+00  0.0000E+00  0.0000E+00  0.0000E+00  0.0000E+00  0.0000E+00  0.0000E+00  0.0000E+00  0.0000E+00
    -11.505  0.2134E-03  0.2134E-03  0.2402E-05  0.2402E-05  0.1234E-05  0.1233E-05  0.1537E-05  0.1537E-05  0.0000E+00  0.0000E+00  0.0000E+00  0.0000E+00  0.0000E+00  0.0000E+00  0.0000E+00  0.0000E+00  0.0000E+00  0.0000E+00
    -11.401  0.2190E-03  0.2190E-03  0.2487E-05  0.2487E-05  0.1275E-05  0.1274E-05  0.1599E-05  0.1599E-05  0.0000E+00  0.0000E+00  0.0000E+00  0.0000E+00  0.0000E+00  0.0000E+00  0.0000E+00  0.0000E+00  0.0000E+00  0.0000E+00
    -11.298  0.2245E-03  0.2245E-03  0.2572E-05  0.2572E-05  0.1315E-05  0.1314E-05  0.1660E-05  0.1660E-05  0.0000E+00  0.0000E+00  0.0000E+00  0.0000E+00  0.0000E+00  0.0000E+00  0.0000E+00  0.0000E+00  0.0000E+00  0.0000E+00
    -11.195  0.2169E-03  0.2170E-03  0.2653E-05  0.2653E-05  0.1418E-05  0.1418E-05  0.1690E-05  0.1690E-05  0.0000E+00  0.0000E+00  0.0000E+00  0.0000E+00  0.0000E+00  0.0000E+00  0.0000E+00  0.0000E+00  0.0000E+00  0.0000E+00
    -11.092  0.2186E-03  0.2186E-03  0.2786E-05  0.2786E-05  0.1512E-05  0.1511E-05  0.1767E-05  0.1767E-05  0.0000E+00  0.0000E+00  0.0000E+00  0.0000E+00  0.0000E+00  0.0000E+00  0.0000E+00  0.0000E+00  0.0000E+00  0.0000E+00
    -10.988  0.2242E-03  0.2243E-03  0.2924E-05  0.2924E-05  0.1577E-05  0.1576E-05  0.1865E-05  0.1865E-05  0.0000E+00  0.0000E+00  0.0000E+00  0.0000E+00  0.0000E+00  0.0000E+00  0.0000E+00  0.0000E+00  0.0000E+00  0.0000E+00
    -10.885  0.2340E-03  0.2340E-03  0.3079E-05  0.3078E-05  0.1671E-05  0.1670E-05  0.1961E-05  0.1961E-05  0.0000E+00  0.0000E+00  0.0000E+00  0.0000E+00  0.0000E+00  0.0000E+00  0.0000E+00  0.0000E+00  0.0000E+00  0.0000E+00
    -10.782  0.2437E-03  0.2437E-03  0.3232E-05  0.3232E-05  0.1765E-05  0.1764E-05  0.2057E-05  0.2057E-05  0.0000E+00  0.0000E+00  0.0000E+00  0.0000E+00  0.0000E+00  0.0000E+00  0.0000E+00  0.0000E+00  0.0000E+00  0.0000E+00
    -10.679  0.2533E-03  0.2533E-03  0.3385E-05  0.3385E-05  0.1858E-05  0.1858E-05  0.2153E-05  0.2152E-05  0.0000E+00  0.0000E+00  0.0000E+00  0.0000E+00  0.0000E+00  0.0000E+00  0.0000E+00  0.0000E+00  0.0000E+00  0.0000E+00
    -10.576  0.2629E-03  0.2629E-03  0.3538E-05  0.3537E-05  0.1952E-05  0.1951E-05  0.2248E-05  0.2247E-05  0.0000E+00  0.0000E+00  0.0000E+00  0.0000E+00  0.0000E+00  0.0000E+00  0.0000E+00  0.0000E+00  0.0000E+00  0.0000E+00
    -10.472  0.2725E-03  0.2725E-03  0.3689E-05  0.3689E-05  0.2044E-05  0.2043E-05  0.2342E-05  0.2342E-05  0.0000E+00  0.0000E+00  0.0000E+00  0.0000E+00  0.0000E+00  0.0000E+00  0.0000E+00  0.0000E+00  0.0000E+00  0.0000E+00
    -10.369  0.8818E-02  0.8818E-02  0.1274E-03  0.1274E-03  0.1265E-03  0.1265E-03  0.7349E-04  0.7349E-04  0.0000E+00  0.0000E+00  0.0000E+00  0.0000E+00  0.0000E+00  0.0000E+00  0.0000E+00  0.0000E+00  0.0000E+00  0.0000E+00
    -10.266  0.3959E-01  0.3959E-01  0.5828E-03  0.5828E-03  0.5770E-03  0.5771E-03  0.3336E-03  0.3336E-03  0.0000E+00  0.0000E+00  0.0000E+00  0.0000E+00  0.0000E+00  0.0000E+00  0.0000E+00  0.0000E+00  0.0000E+00  0.0000E+00
    -10.163  0.3420E-01  0.3420E-01  0.5174E-03  0.5174E-03  0.4988E-03  0.4988E-03  0.2948E-03  0.2948E-03  0.0000E+00  0.0000E+00  0.0000E+00  0.0000E+00  0.0000E+00  0.0000E+00  0.0000E+00  0.0000E+00  0.0000E+00  0.0000E+00
    -10.059  0.3750E-01  0.3750E-01  0.5793E-03  0.5794E-03  0.5476E-03  0.5476E-03  0.3288E-03  0.3288E-03  0.0000E+00  0.0000E+00  0.0000E+00  0.0000E+00  0.0000E+00  0.0000E+00  0.0000E+00  0.0000E+00  0.0000E+00  0.0000E+00
     -9.956  0.3912E-01  0.3912E-01  0.6239E-03  0.6239E-03  0.5684E-03  0.5684E-03  0.3484E-03  0.3484E-03  0.0000E+00  0.0000E+00  0.0000E+00  0.0000E+00  0.0000E+00  0.0000E+00  0.0000E+00  0.0000E+00  0.0000E+00  0.0000E+00
     -9.853  0.4023E-01  0.4023E-01  0.6605E-03  0.6605E-03  0.5814E-03  0.5814E-03  0.3630E-03  0.3630E-03  0.0000E+00  0.0000E+00  0.0000E+00  0.0000E+00  0.0000E+00  0.0000E+00  0.0000E+00  0.0000E+00  0.0000E+00  0.0000E+00
     -9.750  0.3796E-01  0.3796E-01  0.6396E-03  0.6396E-03  0.5457E-03  0.5457E-03  0.3508E-03  0.3508E-03  0.0000E+00  0.0000E+00  0.0000E+00  0.0000E+00  0.0000E+00  0.0000E+00  0.0000E+00  0.0000E+00  0.0000E+00  0.0000E+00
     -9.647  0.3110E-01  0.3110E-01  0.5204E-03  0.5205E-03  0.4575E-03  0.4575E-03  0.2980E-03  0.2980E-03  0.0000E+00  0.0000E+00  0.0000E+00  0.0000E+00  0.0000E+00  0.0000E+00  0.0000E+00  0.0000E+00  0.0000E+00  0.0000E+00
     -9.543  0.5170E-01  0.5170E-01  0.8534E-03  0.8534E-03  0.7444E-03  0.7444E-03  0.4793E-03  0.4793E-03  0.0000E+00  0.0000E+00  0.0000E+00  0.0000E+00  0.0000E+00  0.0000E+00  0.0000E+00  0.0000E+00  0.0000E+00  0.0000E+00
     -9.440  0.8005E-01  0.8005E-01  0.1263E-02  0.1263E-02  0.9726E-03  0.9727E-03  0.7080E-03  0.7080E-03  0.0000E+00  0.0000E+00  0.0000E+00  0.0000E+00  0.0000E+00  0.0000E+00  0.0000E+00  0.0000E+00  0.0000E+00  0.0000E+00
     -9.337  0.6415E-01  0.6415E-01  0.1040E-02  0.1040E-02  0.8332E-03  0.8332E-03  0.5932E-03  0.5932E-03  0.0000E+00  0.0000E+00  0.0000E+00  0.0000E+00  0.0000E+00  0.0000E+00  0.0000E+00  0.0000E+00  0.0000E+00  0.0000E+00
     -9.234  0.5774E-01  0.5774E-01  0.9691E-03  0.9691E-03  0.7778E-03  0.7778E-03  0.5515E-03  0.5515E-03  0.0000E+00  0.0000E+00  0.0000E+00  0.0000E+00  0.0000E+00  0.0000E+00  0.0000E+00  0.0000E+00  0.0000E+00  0.0000E+00
     -9.130  0.6713E-01  0.6713E-01  0.1163E-02  0.1163E-02  0.9317E-03  0.9317E-03  0.6537E-03  0.6537E-03  0.0000E+00  0.0000E+00  0.0000E+00  0.0000E+00  0.0000E+00  0.0000E+00  0.0000E+00  0.0000E+00  0.0000E+00  0.0000E+00
     -9.027  0.7164E-01  0.7164E-01  0.1256E-02  0.1256E-02  0.1049E-02  0.1049E-02  0.7075E-03  0.7075E-03  0.0000E+00  0.0000E+00  0.0000E+00  0.0000E+00  0.0000E+00  0.0000E+00  0.0000E+00  0.0000E+00  0.0000E+00  0.0000E+00
     -8.924  0.7549E-01  0.7549E-01  0.1321E-02  0.1321E-02  0.1135E-02  0.1135E-02  0.7543E-03  0.7543E-03  0.0000E+00  0.0000E+00  0.0000E+00  0.0000E+00  0.0000E+00  0.0000E+00  0.0000E+00  0.0000E+00  0.0000E+00  0.0000E+00
     -8.821  0.8158E-01  0.8158E-01  0.1424E-02  0.1425E-02  0.1245E-02  0.1245E-02  0.8238E-03  0.8238E-03  0.0000E+00  0.0000E+00  0.0000E+00  0.0000E+00  0.0000E+00  0.0000E+00  0.0000E+00  0.0000E+00  0.0000E+00  0.0000E+00
     -8.718  0.1062E+00  0.1062E+00  0.1856E-02  0.1856E-02  0.1599E-02  0.1599E-02  0.1086E-02  0.1086E-02  0.0000E+00  0.0000E+00  0.0000E+00  0.0000E+00  0.0000E+00  0.0000E+00  0.0000E+00  0.0000E+00  0.0000E+00  0.0000E+00
     -8.614  0.1291E+00  0.1291E+00  0.2285E-02  0.2285E-02  0.1915E-02  0.1915E-02  0.1329E-02  0.1329E-02  0.0000E+00  0.0000E+00  0.0000E+00  0.0000E+00  0.0000E+00  0.0000E+00  0.0000E+00  0.0000E+00  0.0000E+00  0.0000E+00
     -8.511  0.1327E+00  0.1327E+00  0.2417E-02  0.2417E-02  0.1973E-02  0.1973E-02  0.1368E-02  0.1368E-02  0.0000E+00  0.0000E+00  0.0000E+00  0.0000E+00  0.0000E+00  0.0000E+00  0.0000E+00  0.0000E+00  0.0000E+00  0.0000E+00
     -8.408  0.1295E+00  0.1295E+00  0.2461E-02  0.2461E-02  0.1996E-02  0.1996E-02  0.1352E-02  0.1352E-02  0.0000E+00  0.0000E+00  0.0000E+00  0.0000E+00  0.0000E+00  0.0000E+00  0.0000E+00  0.0000E+00  0.0000E+00  0.0000E+00
     -8.305  0.1609E+00  0.1609E+00  0.3212E-02  0.3212E-02  0.2543E-02  0.2543E-02  0.1695E-02  0.1695E-02  0.0000E+00  0.0000E+00  0.0000E+00  0.0000E+00  0.0000E+00  0.0000E+00  0.0000E+00  0.0000E+00  0.0000E+00  0.0000E+00