Automatically generated mesh
      82
Reciprocal lattice
    0.00000000000000    0.00000000000000    0.00000000000000             1
    0.11111111111111    0.00000000000000    0.00000000000000             2
    0.22222222222222    0.00000000000000    0.00000000000000             2
    0.33333333333333    0.00000000000000    0.00000000000000             2
    0.44444444444444    0.00000000000000    0.00000000000000             2
    0.00000000000000    0.16666666666667    0.00000000000000             2
    0.11111111111111    0.16666666666667    0.00000000000000             2
    0.22222222222222    0.16666666666667    0.00000000000000             2
    0.33333333333333    0.16666666666667    0.00000000000000             2
    0.44444444444445    0.16666666666667    0.00000000000000             2
   -0.44444444444444    0.16666666666667    0.00000000000000             2
   -0.33333333333333    0.16666666666667    0.00000000000000             2
   -0.22222222222222    0.16666666666667    0.00000000000000             2
   -0.11111111111111    0.16666666666667    0.00000000000000             2
    0.00000000000000    0.33333333333333    0.00000000000000             2
    0.11111111111111    0.33333333333333    0.00000000000000             2
    0.22222222222222    0.33333333333333    0.00000000000000             2
    0.33333333333333    0.33333333333333    0.00000000000000             2
    0.44444444444445    0.33333333333333    0.00000000000000             2
   -0.44444444444444    0.33333333333333    0.00000000000000             2
   -0.33333333333333    0.33333333333333    0.00000000000000             2
   -0.22222222222222    0.33333333333333    0.00000000000000             2
   -0.11111111111111    0.33333333333333    0.00000000000000             2
    0.00000000000000    0.50000000000000    0.00000000000000             1
    0.11111111111111    0.50000000000000    0.00000000000000             2
    0.22222222222222    0.50000000000000    0.00000000000000             2
    0.33333333333333    0.50000000000000    0.00000000000000             2
    0.44444444444445    0.50000000000000    0.00000000000000             2
    0.00000000000000    0.00000000000000    0.33333333333333             2
    0.11111111111111    0.00000000000000    0.33333333333333             2
    0.22222222222222    0.00000000000000    0.33333333333333             2
    0.33333333333333    0.00000000000000    0.33333333333333             2
    0.44444444444444    0.00000000000000    0.33333333333333             2
   -0.44444444444444    0.00000000000000    0.33333333333333             2
   -0.33333333333333    0.00000000000000    0.33333333333333             2
   -0.22222222222222    0.00000000000000    0.33333333333333             2
   -0.11111111111111    0.00000000000000    0.33333333333333             2
    0.00000000000000    0.16666666666667    0.33333333333333             2
    0.11111111111111    0.16666666666667    0.33333333333333             2
    0.22222222222222    0.16666666666667    0.33333333333333             2
    0.33333333333333    0.16666666666667    0.33333333333333             2
    0.44444444444445    0.16666666666667    0.33333333333333             2
   -0.44444444444444    0.16666666666667    0.33333333333333             2
   -0.33333333333333    0.16666666666667    0.33333333333333             2
   -0.22222222222222    0.16666666666667    0.33333333333333             2
   -0.11111111111111    0.16666666666667    0.33333333333333             2
    0.00000000000000    0.33333333333333    0.33333333333333             2
    0.11111111111111    0.33333333333333    0.33333333333333             2
    0.22222222222222    0.33333333333333    0.33333333333333             2
    0.33333333333333    0.33333333333333    0.33333333333333             2
    0.44444444444445    0.33333333333333    0.33333333333333             2
   -0.44444444444444    0.33333333333333    0.33333333333333             2
   -0.33333333333333    0.33333333333333    0.33333333333333             2
   -0.22222222222222    0.33333333333333    0.33333333333333             2
   -0.11111111111111    0.33333333333333    0.33333333333333             2
    0.00000000000000    0.50000000000000    0.33333333333333             2
    0.11111111111111    0.50000000000000    0.33333333333333             2
    0.22222222222222    0.50000000000000    0.33333333333333             2
    0.33333333333333    0.50000000000000    0.33333333333333             2
    0.44444444444445    0.50000000000000    0.33333333333333             2
   -0.44444444444444    0.50000000000000    0.33333333333333             2
   -0.33333333333333    0.50000000000000    0.33333333333333             2
   -0.22222222222222    0.50000000000000    0.33333333333333             2
   -0.11111111111111    0.50000000000000    0.33333333333333             2
    0.00000000000000   -0.33333333333333    0.33333333333333             2
    0.11111111111111   -0.33333333333333    0.33333333333333             2
    0.22222222222222   -0.33333333333333    0.33333333333333             2
    0.33333333333333   -0.33333333333333    0.33333333333333             2
    0.44444444444445   -0.33333333333333    0.33333333333333             2
   -0.44444444444444   -0.33333333333333    0.33333333333333             2
   -0.33333333333333   -0.33333333333333    0.33333333333333             2
   -0.22222222222222   -0.33333333333333    0.33333333333333             2
   -0.11111111111111   -0.33333333333333    0.33333333333333             2
    0.00000000000000   -0.16666666666667    0.33333333333333             2
    0.11111111111111   -0.16666666666667    0.33333333333333             2
    0.22222222222222   -0.16666666666667    0.33333333333333             2
    0.33333333333333   -0.16666666666667    0.33333333333333             2
    0.44444444444444   -0.16666666666667    0.33333333333333             2
   -0.44444444444444   -0.16666666666667    0.33333333333333             2
   -0.33333333333333   -0.16666666666667    0.33333333333333             2
   -0.22222222222222   -0.16666666666667    0.33333333333333             2
   -0.11111111111111   -0.16666666666667    0.33333333333333             2
Tetrahedra
       484    0.00102880658436
         2         1         2         6        30
         2         2         6         7        30
         2         6         7        30        39
         2         1         6        29        30
         2         6        29        30        38
         2         6        30        38        39
         2         2         3         7        31
         2         3         7         8        31
         2         7         8        31        40
         2         2         7        30        31
         2         7        30        31        39
         2         7        31        39        40
         2         3         4         8        32
         2         4         8         9        32
         2         8         9        32        41
         2         3         8        31        32
         2         8        31        32        40
         2         8        32        40        41
         2         4         5         9        33
         2         5         9        10        33
         2         9        10        33        42
         2         4         9        32        33
         2         9        32        33        41
         2         9        33        41        42
         2         5         5        10        34
         2         5        10        11        34
         2        10        11        34        43
         2         5        10        33        34
         2        10        33        34        42
         2        10        34        42        43
         2         4         5        11        35
         2         4        11        12        35
         2        11        12        35        44
         2         5        11        34        35
         2        11        34        35        43
         2        11        35        43        44
         2         3         4        12        36
         2         3        12        13        36
         2        12        13        36        45
         2         4        12        35        36
         2        12        35        36        44
         2        12        36        44        45
         2         2         3        13        37
         2         2        13        14        37
         2        13        14        37        46
         2         3        13        36        37
         2        13        36        37        45
         2        13        37        45        46
         2         1         2        14        29
         2         1         6        14        29
         2         6        14        29        38
         2         2        14        29        37
         2        14        29        37        46
         2        14        29        38        46
         2         6         7        15        39
         2         7        15        16        39
         2        15        16        39        48
         2         6        15        38        39
         2        15        38        39        47
         2        15        39        47        48
         2         7         8        16        40
         2         8        16        17        40
         2        16        17        40        49
         2         7        16        39        40
         2        16        39        40        48
         2        16        40        48        49
         2         8         9        17        41
         2         9        17        18        41
         2        17        18        41        50
         2         8        17        40        41
         2        17        40        41        49
         2        17        41        49        50
         2         9        10        18        42
         2        10        18        19        42
         2        18        19        42        51
         2         9        18        41        42
         2        18        41        42        50
         2        18        42        50        51
         2        10        11        19        43
         2        11        19        20        43
         2        19        20        43        52
         2        10        19        42        43
         2        19        42        43        51
         2        19        43        51        52
         2        11        12        20        44
         2        12        20        21        44
         2        20        21        44        53
         2        11        20        43        44
         2        20        43        44        52
         2        20        44        52        53
         2        12        13        21        45
         2        13        21        22        45
         2        21        22        45        54
         2        12        21        44        45
         2        21        44        45        53
         2        21        45        53        54
         2        13        14        22        46
         2        14        22        23        46
         2        22        23        46        55
         2        13        22        45        46
         2        22        45        46        54
         2        22        46        54        55
         2         6        14        23        38
         2         6        15        23        38
         2        15        23        38        47
         2        14        23        38        46
         2        23        38        46        55
         2        23        38        47        55
         2        15        16        24        48
         2        16        24        25        48
         2        24        25        48        57
         2        15        24        47        48
         2        24        47        48        56
         2        24        48        56        57
         2        16        17        25        49
         2        17        25        26        49
         2        25        26        49        58
         2        16        25        48        49
         2        25        48        49        57
         2        25        49        57        58
         2        17        18        26        50
         2        18        26        27        50
         2        26        27        50        59
         2        17        26        49        50
         2        26        49        50        58
         2        26        50        58        59
         2        18        19        27        51
         2        19        27        28        51
         2        27        28        51        60
         2        18        27        50        51
         2        27        50        51        59
         2        27        51        59        60
         2        19        20        28        52
         2        20        28        28        52
         2        28        28        52        61
         2        19        28        51        52
         2        28        51        52        60
         2        28        52        60        61
         2        20        21        28        53
         2        21        27        28        53
         2        27        28        53        62
         2        20        28        52        53
         2        28        52        53        61
         2        28        53        61        62
         2        21        22        27        54
         2        22        26        27        54
         2        26        27        54        63
         2        21        27        53        54
         2        27        53        54        62
         2        27        54        62        63
         2        22        23        26        55
         2        23        25        26        55
         2        25        26        55        64
         2        22        26        54        55
         2        26        54        55        63
         2        26        55        63        64
         2        15        23        25        47
         2        15        24        25        47
         2        24        25        47        56
         2        23        25        47        55
         2        25        47        55        64
         2        25        47        56        64
         2        15        24        25        57
         2        15        23        25        57
         2        15        23        57        66
         2        15        24        56        57
         2        15        56        57        65
         2        15        57        65        66
         2        23        25        26        58
         2        22        23        26        58
         2        22        23        58        67
         2        23        25        57        58
         2        23        57        58        66
         2        23        58        66        67
         2        22        26        27        59
         2        21        22        27        59
         2        21        22        59        68
         2        22        26        58        59
         2        22        58        59        67
         2        22        59        67        68
         2        21        27        28        60
         2        20        21        28        60
         2        20        21        60        69
         2        21        27        59        60
         2        21        59        60        68
         2        21        60        68        69
         2        20        28        28        61
         2        19        20        28        61
         2        19        20        61        70
         2        20        28        60        61
         2        20        60        61        69
         2        20        61        69        70
         2        19        27        28        62
         2        18        19        27        62
         2        18        19        62        71
         2        19        28        61        62
         2        19        61        62        70
         2        19        62        70        71
         2        18        26        27        63
         2        17        18        26        63
         2        17        18        63        72
         2        18        27        62        63
         2        18        62        63        71
         2        18        63        71        72
         2        17        25        26        64
         2        16        17        25        64
         2        16        17        64        73
         2        17        26        63        64
         2        17        63        64        72
         2        17        64        72        73
         2        16        24        25        56
         2        15        16        24        56
         2        15        16        56        65
         2        16        25        56        64
         2        16        56        64        73
         2        16        56        65        73
         2         6        15        23        66
         2         6        14        23        66
         2         6        14        66        75
         2         6        15        65        66
         2         6        65        66        74
         2         6        66        74        75
         2        14        22        23        67
         2        13        14        22        67
         2        13        14        67        76
         2        14        23        66        67
         2        14        66        67        75
         2        14        67        75        76
         2        13        21        22        68
         2        12        13        21        68
         2        12        13        68        77
         2        13        22        67        68
         2        13        67        68        76
         2        13        68        76        77
         2        12        20        21        69
         2        11        12        20        69
         2        11        12        69        78
         2        12        21        68        69
         2        12        68        69        77
         2        12        69        77        78
         2        11        19        20        70
         2        10        11        19        70
         2        10        11        70        79
         2        11        20        69        70
         2        11        69        70        78
         2        11        70        78        79
         2        10        18        19        71
         2         9        10        18        71
         2         9        10        71        80
         2        10        19        70        71
         2        10        70        71        79
         2        10        71        79        80
         2         9        17        18        72
         2         8         9        17        72
         2         8         9        72        81
         2         9        18        71        72
         2         9        71        72        80
         2         9        72        80        81
         2         8        16        17        73
         2         7         8        16        73
         2         7         8        73        82
         2         8        17        72        73
         2         8        72        73        81
         2         8        73        81        82
         2         7        15        16        65
         2         6         7        15        65
         2         6         7        65        74
         2         7        16        65        73
         2         7        65        73        82
         2         7        65        74        82
         2         1         6        14        75
         2         1         2        14        75
         2         1         2        30        75
         2         1         6        74        75
         2         1        29        74        75
         2         1        29        30        75
         2         2        13        14        76
         2         2         3        13        76
         2         2         3        31        76
         2         2        14        75        76
         2         2        30        75        76
         2         2        30        31        76
         2         3        12        13        77
         2         3         4        12        77
         2         3         4        32        77
         2         3        13        76        77
         2         3        31        76        77
         2         3        31        32        77
         2         4        11        12        78
         2         4         5        11        78
         2         4         5        33        78
         2         4        12        77        78
         2         4        32        77        78
         2         4        32        33        78
         2         5        10        11        79
         2         5         5        10        79
         2         5         5        34        79
         2         5        11        78        79
         2         5        33        78        79
         2         5        33        34        79
         2         5         9        10        80
         2         4         5         9        80
         2         4         5        35        80
         2         5        10        79        80
         2         5        34        79        80
         2         5        34        35        80
         2         4         8         9        81
         2         3         4         8        81
         2         3         4        36        81
         2         4         9        80        81
         2         4        35        80        81
         2         4        35        36        81
         2         3         7         8        82
         2         2         3         7        82
         2         2         3        37        82
         2         3         8        81        82
         2         3        36        81        82
         2         3        36        37        82
         2         2         6         7        74
         2         1         2         6        74
         2         1         2        29        74
         2         2         7        74        82
         2         2        37        74        82
         2         2        29        37        74
         2        29        30        37        38
         2        30        37        38        39
         2        37        38        39        82
         2        29        29        37        38
         2        29        37        38        74
         2        37        38        74        82
         2        30        31        36        39
         2        31        36        39        40
         2        36        39        40        81
         2        30        36        37        39
         2        36        37        39        82
         2        36        39        81        82
         2        31        32        35        40
         2        32        35        40        41
         2        35        40        41        80
         2        31        35        36        40
         2        35        36        40        81
         2        35        40        80        81
         2        32        33        34        41
         2        33        34        41        42
         2        34        41        42        79
         2        32        34        35        41
         2        34        35        41        80
         2        34        41        79        80
         4        33        33        34        42
         2        33        34        42        43
         2        33        42        43        78
         2        33        34        42        79
         2        33        42        78        79
         2        32        34        35        43
         2        32        35        43        44
         2        32        43        44        77
         2        32        33        34        43
         2        32        33        43        78
         2        32        43        77        78
         2        31        35        36        44
         2        31        36        44        45
         2        31        44        45        76
         2        31        32        35        44
         2        31        32        44        77
         2        31        44        76        77
         2        30        36        37        45
         2        30        37        45        46
         2        30        45        46        75
         2        30        31        36        45
         2        30        31        45        76
         2        30        45        75        76
         2        29        29        37        46
         2        29        29        38        46
         2        29        38        46        74
         2        29        30        37        46
         2        29        30        46        75
         2        29        46        74        75
         2        38        39        47        82
         2        39        47        48        82
         2        47        48        73        82
         2        38        47        74        82
         2        47        65        74        82
         2        47        65        73        82
         2        39        40        48        81
         2        40        48        49        81
         2        48        49        72        81
         2        39        48        81        82
         2        48        73        81        82
         2        48        72        73        81
         2        40        41        49        80
         2        41        49        50        80
         2        49        50        71        80
         2        40        49        80        81
         2        49        72        80        81
         2        49        71        72        80
         2        41        42        50        79
         2        42        50        51        79
         2        50        51        70        79
         2        41        50        79        80
         2        50        71        79        80
         2        50        70        71        79
         2        42        43        51        78
         2        43        51        52        78
         2        51        52        69        78
         2        42        51        78        79
         2        51        70        78        79
         2        51        69        70        78
         2        43        44        52        77
         2        44        52        53        77
         2        52        53        68        77
         2        43        52        77        78
         2        52        69        77        78
         2        52        68        69        77
         2        44        45        53        76
         2        45        53        54        76
         2        53        54        67        76
         2        44        53        76        77
         2        53        68        76        77
         2        53        67        68        76
         2        45        46        54        75
         2        46        54        55        75
         2        54        55        66        75
         2        45        54        75        76
         2        54        67        75        76
         2        54        66        67        75
         2        38        46        55        74
         2        38        47        55        74
         2        47        55        65        74
         2        46        55        74        75
         2        55        66        74        75
         2        55        65        66        74
         2        47        48        56        73
         2        48        56        57        73
         2        56        57        64        73
         2        47        56        65        73
         2        56        56        65        73
         2        56        56        64        73
         2        48        49        57        72
         2        49        57        58        72
         2        57        58        63        72
         2        48        57        72        73
         2        57        64        72        73
         2        57        63        64        72
         2        49        50        58        71
         2        50        58        59        71
         2        58        59        62        71
         2        49        58        71        72
         2        58        63        71        72
         2        58        62        63        71
         2        50        51        59        70
         2        51        59        60        70
         2        59        60        61        70
         2        50        59        70        71
         2        59        62        70        71
         2        59        61        62        70
         2        51        52        60        69
         2        52        60        61        69
         4        60        60        61        69
         2        51        60        69        70
         2        60        61        69        70
         2        52        53        61        68
         2        53        61        62        68
         2        59        61        62        68
         2        52        61        68        69
         2        60        61        68        69