unknown system                          
           1
     4.959623    0.085141   -0.613355
    -0.067601    4.987151    0.093420
    -1.830673   -0.193333    6.105225
   Sr   Nb   H 
   2   1  12
Direct configuration=     1
   0.09303000  0.60670200  0.73601600
   0.37484000  0.10945500  0.28806200
   0.79999900  0.60689300  0.13753900
   0.19244600  0.60744900  0.36051600
   0.83470400  0.36425400  0.37428200
   0.24703200  0.10081100  0.62887900
   0.38780600  0.10491400  0.73922900
   0.99002700  0.85210700  0.02668300
   0.85175300  0.10520100  0.64684000
   0.99059600  0.36154300  0.02492900
   0.84703500  0.11294700  0.76697400
   0.49071400  0.84550000  0.02664700
   0.48913400  0.36782900  0.02526500
   0.63166200  0.60458900  0.81457000
   0.83694400  0.85262100  0.37643400
unknown system                          
           1
     5.006020    0.085729   -0.617735
    -0.068567    5.049555    0.095269
    -1.846642   -0.194343    6.158222
   Sr   Nb   H 
   2   1  12
Direct configuration=     2
   0.09345121  0.60673681  0.73682188
   0.37364127  0.10943027  0.28771901
   0.79936231  0.60684691  0.13734796
   0.19314507  0.60745654  0.36043534
   0.83525781  0.36360979  0.37428553
   0.24786001  0.10086934  0.62963721
   0.38660766  0.10491545  0.73859115
   0.98994404  0.85235917  0.02676635
   0.85140024  0.10525529  0.64781655
   0.99050605  0.36128093  0.02499694
   0.84694883  0.11283875  0.76586143
   0.49092732  0.84570112  0.02643149
   0.48942013  0.36771331  0.02506101
   0.63188399  0.60460121  0.81464172
   0.83736606  0.85320011  0.37645143
unknown system                          
           1
     5.145212    0.087493   -0.630875
    -0.071466    5.236768    0.100816
    -1.894549   -0.197374    6.317215
   Sr   Nb   H 
   2   1  12
Direct configuration=     3
   0.09470307  0.60683968  0.73921844
   0.37007869  0.10935701  0.28669970
   0.79747009  0.60671034  0.13678024
   0.19522265  0.60747899  0.36019498
   0.83690373  0.36170110  0.37429586
   0.25032084  0.10104200  0.63189169
   0.38304622  0.10491987  0.73669489
   0.98969747  0.85310630  0.02701422
   0.85035190  0.10541571  0.65072121
   0.99023873  0.36050441  0.02519914
   0.84669271  0.11251845  0.76255252
   0.49156129  0.84629712  0.02579030
   0.49027051  0.36737063  0.02445416
   0.63254373  0.60463738  0.81485487
   0.83862036  0.85491601  0.37650279
unknown system                          
           1
     5.068776    0.086524   -0.623659
    -0.069874    5.133961    0.097770
    -1.868241   -0.195709    6.229905
   Sr   Nb   H 
   2   1  12
Direct configuration=     4
   0.09403433  0.60678563  0.73793596
   0.37198169  0.10939578  0.28724408
   0.79848084  0.60678264  0.13708346
   0.19411290  0.60746695  0.36032439
   0.83602450  0.36271168  0.37429059
   0.24900632  0.10095091  0.63068571
   0.38494863  0.10491733  0.73770875
   0.98982919  0.85271075  0.02688157
   0.85091182  0.10533141  0.64916592
   0.99038150  0.36091564  0.02509067
   0.84682959  0.11268739  0.76432372
   0.49122268  0.84598137  0.02613388
   0.48981628  0.36755191  0.02477927
   0.63219132  0.60461824  0.81474100
   0.83795041  0.85400738  0.37647603
unknown system                          
           1
     5.046004    0.086176   -0.622781
    -0.069770    5.133130    0.098684
    -1.862411   -0.193966    6.200432
   Sr   Nb   H 
   2   1  12
Direct configuration=     5
   0.09465193  0.60682124  0.73922571
   0.37090201  0.10937674  0.28499047
   0.80167498  0.60696268  0.13709000
   0.19080226  0.60742811  0.35827492
   0.83590722  0.36447236  0.37272276
   0.24725580  0.10094053  0.62942088
   0.38622502  0.10499029  0.73890284
   0.98822894  0.85050893  0.02818174
   0.85060502  0.10512443  0.64572978
   0.98874112  0.36311835  0.02642867
   0.84647597  0.11284816  0.76738920
   0.49324262  0.84397551  0.02693653
   0.49183476  0.36953426  0.02558350
   0.63349337  0.60465421  0.81717405
   0.83768098  0.85205920  0.37481395
unknown system                          
           1
     5.052371    0.086273   -0.623026
    -0.069799    5.133362    0.098428
    -1.864041   -0.194454    6.208672
   Sr   Nb   H 
   2   1  12
Direct configuration=     6
   0.09447824  0.60681135  0.73886334
   0.37120565  0.10938196  0.28562365
   0.80077785  0.60691234  0.13708788
   0.19173246  0.60743887  0.35885096
   0.83594047  0.36397997  0.37316329
   0.24774769  0.10094337  0.62977635
   0.38586632  0.10496995  0.73856728
   0.98867813  0.85112466  0.02781655
   0.85069178  0.10518214  0.64669508
   0.98920166  0.36250250  0.02605305
   0.84657476  0.11280335  0.76652808
   0.49267510  0.84453642  0.02671077
   0.49126774  0.36898000  0.02535748
   0.63312725  0.60464426  0.81649044
   0.83775690  0.85260386  0.37528080
unknown system                          
           1
     5.039048    0.086160   -0.621546
    -0.069872    5.149494    0.099275
    -1.860935   -0.193410    6.179360
   Sr   Nb   H 
   2   1  12
Direct configuration=     7
   0.09518554  0.60685307  0.74030084
   0.36989778  0.10935281  0.28271008
   0.80210524  0.60699682  0.13770606
   0.18868041  0.60739702  0.35669826
   0.83607514  0.36595331  0.37146797
   0.24793484  0.10101165  0.63011384
   0.38497130  0.10499170  0.73813675
   0.98736084  0.84915448  0.02912075
   0.85008221  0.10529459  0.64821570
   0.98778790  0.36449943  0.02739379
   0.84629907  0.11263662  0.76457312
   0.49514688  0.84216419  0.02763210
   0.49379368  0.37138124  0.02629361
   0.63472850  0.60470718  0.81901765
   0.83767268  0.85042088  0.37348448
unknown system                          
           1
     5.041868    0.086184   -0.621860
    -0.069857    5.146080    0.099096
    -1.861593   -0.193631    6.185563
   Sr   Nb   H 
   2   1  12
Direct configuration=     8
   0.09503509  0.60684428  0.73999514
   0.37017603  0.10935893  0.28332968
   0.80182343  0.60697901  0.13757459
   0.18932857  0.60740582  0.35715607
   0.83604701  0.36553698  0.37182854
   0.24789505  0.10099725  0.63004207
   0.38516133  0.10498711  0.73822831
   0.98764001  0.84957013  0.02884336
   0.85021117  0.10527088  0.64789233
   0.98808758  0.36407815  0.02710871
   0.84635805  0.11267178  0.76498886
   0.49462213  0.84266467  0.02743611
   0.49325749  0.37087468  0.02609456
   0.63438809  0.60469393  0.81848021
   0.83769097  0.85088140  0.37386644
unknown system                          
           1
     5.048012    0.086258   -0.622602
    -0.070253    5.177112    0.100379
    -1.864181   -0.193242    6.190431
   Sr   Nb   H 
   2   1  12
Direct configuration=     9
   0.09560664  0.60688032  0.74102851
   0.36918102  0.10933978  0.28072949
   0.80021640  0.60690723  0.13865087
   0.18831084  0.60737723  0.35605479
   0.83654086  0.36668212  0.37099094
   0.24723981  0.10104593  0.62970996
   0.38510702  0.10503103  0.73842079
   0.98734849  0.84877867  0.02958460
   0.84973045  0.10526542  0.64752684
   0.98768698  0.36492826  0.02788450
   0.84585879  0.11261404  0.76485763
   0.49632823  0.84103885  0.02800455
   0.49506257  0.37258096  0.02668875
   0.63553179  0.60476588  0.81976589
   0.83797212  0.84957929  0.37296690
unknown system                          
           1
     5.055334    0.086346   -0.623487
    -0.070726    5.214095    0.101907
    -1.867266   -0.192779    6.196233
   Sr   Nb   H 
   2   1  12
Direct configuration=    10
   0.09628726  0.60692289  0.74225913
   0.36799590  0.10931741  0.27763297
   0.79830378  0.60682204  0.13993262
   0.18709910  0.60734349  0.35474329
   0.83712842  0.36803882  0.36999330
   0.24645975  0.10110363  0.62931446
   0.38504242  0.10508303  0.73865000
   0.98700174  0.84784097  0.03046745
   0.84915812  0.10525899  0.64709158
   0.98721029  0.36593524  0.02880825
   0.84526446  0.11254566  0.76470135
   0.49835932  0.83911277  0.02868171
   0.49721129  0.37460223  0.02739611
   0.63689352  0.60485096  0.82129698
   0.83830662  0.84803687  0.37189582
unknown system                          
           1
     5.060482    0.086399   -0.623212
    -0.071033    5.237976    0.102822
    -1.868266   -0.192569    6.200852
   Sr   Nb   H 
   2   1  12
Direct configuration=    11
   0.09648657  0.60693816  0.74273652
   0.36756211  0.10930912  0.27625225
   0.79853485  0.60684212  0.14009571
   0.18660444  0.60732065  0.35425330
   0.83744817  0.36840945  0.36985258
   0.24666455  0.10115307  0.62957897
   0.38442336  0.10509142  0.73826493
   0.98678033  0.84730909  0.03091883
   0.84885259  0.10526507  0.64698264
   0.98693896  0.36647890  0.02927061
   0.84491310  0.11250240  0.76448463
   0.49884455  0.83850946  0.02886756
   0.49773022  0.37522926  0.02759005
   0.63743722  0.60489610  0.82199927
   0.83850099  0.84756072  0.37171714
unknown system                          
           1
     5.069963    0.086497   -0.622704
    -0.071598    5.281961    0.104506
    -1.870106   -0.192183    6.209361
   Sr   Nb   H 
   2   1  12
Direct configuration=    12
   0.09685320  0.60696610  0.74361511
   0.36676416  0.10929408  0.27371110
   0.79895997  0.60687892  0.14039583
   0.18569436  0.60727884  0.35335160
   0.83803650  0.36908904  0.36959343
   0.24704132  0.10124369  0.63006576
   0.38328436  0.10510685  0.73755637
   0.98637291  0.84633381  0.03174977
   0.84829045  0.10527623  0.64678221
   0.98643961  0.36747568  0.03012163
   0.84426663  0.11242311  0.76408586
   0.49973738  0.83740326  0.02920958
   0.49868496  0.37637892  0.02794677
   0.63843750  0.60497878  0.82329171
   0.83885869  0.84668770  0.37138827
