Automatically generated mesh
      51
Reciprocal lattice
    0.00000000000000    0.00000000000000    0.00000000000000             1
    0.20000000000000    0.00000000000000    0.00000000000000             2
    0.40000000000000    0.00000000000000    0.00000000000000             2
    0.00000000000000    0.20000000000000    0.00000000000000             2
    0.20000000000000    0.20000000000000    0.00000000000000             2
    0.40000000000000    0.20000000000000    0.00000000000000             2
   -0.40000000000000    0.20000000000000    0.00000000000000             2
   -0.20000000000000    0.20000000000000    0.00000000000000             2
    0.00000000000000    0.40000000000000    0.00000000000000             2
    0.20000000000000    0.40000000000000    0.00000000000000             2
    0.40000000000000    0.40000000000000    0.00000000000000             2
   -0.40000000000000    0.40000000000000    0.00000000000000             2
   -0.20000000000000    0.40000000000000    0.00000000000000             2
    0.00000000000000    0.00000000000000    0.25000000000000             2
    0.20000000000000    0.00000000000000    0.25000000000000             2
    0.40000000000000    0.00000000000000    0.25000000000000             2
   -0.40000000000000    0.00000000000000    0.25000000000000             2
   -0.20000000000000    0.00000000000000    0.25000000000000             2
    0.00000000000000    0.20000000000000    0.25000000000000             2
    0.20000000000000    0.20000000000000    0.25000000000000             2
    0.40000000000000    0.20000000000000    0.25000000000000             2
   -0.40000000000000    0.20000000000000    0.25000000000000             2
   -0.20000000000000    0.20000000000000    0.25000000000000             2
    0.00000000000000    0.40000000000000    0.25000000000000             2
    0.20000000000000    0.40000000000000    0.25000000000000             2
    0.40000000000000    0.40000000000000    0.25000000000000             2
   -0.40000000000000    0.40000000000000    0.25000000000000             2
   -0.20000000000000    0.40000000000000    0.25000000000000             2
    0.00000000000000   -0.40000000000000    0.25000000000000             2
    0.20000000000000   -0.40000000000000    0.25000000000000             2
    0.40000000000000   -0.40000000000000    0.25000000000000             2
   -0.40000000000000   -0.40000000000000    0.25000000000000             2
   -0.20000000000000   -0.40000000000000    0.25000000000000             2
    0.00000000000000   -0.20000000000000    0.25000000000000             2
    0.20000000000000   -0.20000000000000    0.25000000000000             2
    0.40000000000000   -0.20000000000000    0.25000000000000             2
   -0.40000000000000   -0.20000000000000    0.25000000000000             2
   -0.20000000000000   -0.20000000000000    0.25000000000000             2
    0.00000000000000    0.00000000000000    0.50000000000000             1
    0.20000000000000    0.00000000000000    0.50000000000000             2
    0.40000000000000    0.00000000000000    0.50000000000000             2
    0.00000000000000    0.20000000000000    0.50000000000000             2
    0.20000000000000    0.20000000000000    0.50000000000000             2
    0.40000000000000    0.20000000000000    0.50000000000000             2
   -0.40000000000000    0.20000000000000    0.50000000000000             2
   -0.20000000000000    0.20000000000000    0.50000000000000             2
    0.00000000000000    0.40000000000000    0.50000000000000             2
    0.20000000000000    0.40000000000000    0.50000000000000             2
    0.40000000000000    0.40000000000000    0.50000000000000             2
   -0.40000000000000    0.40000000000000    0.50000000000000             2
   -0.20000000000000    0.40000000000000    0.50000000000000             2
Tetrahedra
       298    0.00166666666667
         2         1         2         5        14
         2         1         4         5        14
         2         4         5        14        19
         2         2         5        14        15
         2         5        14        15        20
         2         5        14        19        20
         2         2         3         6        15
         2         2         5         6        15
         2         5         6        15        20
         2         3         6        15        16
         2         6        15        16        21
         2         6        15        20        21
         2         3         3         7        16
         2         3         6         7        16
         2         6         7        16        21
         2         3         7        16        17
         2         7        16        17        22
         2         7        16        21        22
         2         2         3         8        17
         2         3         7         8        17
         2         7         8        17        22
         2         2         8        17        18
         2         8        17        18        23
         2         8        17        22        23
         2         1         2         4        18
         2         2         4         8        18
         2         4         8        18        23
         2         1         4        14        18
         2         4        14        18        19
         2         4        18        19        23
         2         4         5        10        19
         2         4         9        10        19
         2         9        10        19        24
         2         5        10        19        20
         2        10        19        20        25
         2        10        19        24        25
         2         5         6        11        20
         2         5        10        11        20
         2        10        11        20        25
         2         6        11        20        21
         2        11        20        21        26
         2        11        20        25        26
         2         6         7        12        21
         2         6        11        12        21
         2        11        12        21        26
         2         7        12        21        22
         2        12        21        22        27
         2        12        21        26        27
         2         7         8        13        22
         2         7        12        13        22
         2        12        13        22        27
         2         8        13        22        23
         2        13        22        23        28
         2        13        22        27        28
         2         4         8         9        23
         2         8         9        13        23
         2         9        13        23        28
         2         4         9        19        23
         2         9        19        23        24
         2         9        23        24        28
         2         9        10        13        24
         2         9         9        13        24
         2         9        13        24        29
         2        10        13        24        25
         2        13        24        25        30
         2        13        24        29        30
         2        10        11        12        25
         2        10        12        13        25
         2        12        13        25        30
         2        11        12        25        26
         2        12        25        26        31
         2        12        25        30        31
         4        11        11        12        26
         2        11        12        26        31
         2        11        12        26        27
         2        11        26        27        32
         2        11        26        31        32
         2        10        12        13        27
         2        10        11        12        27
         2        10        11        27        32
         2        10        13        27        28
         2        10        27        28        33
         2        10        27        32        33
         2         9         9        13        28
         2         9        10        13        28
         2         9        10        28        33
         2         9         9        24        28
         2         9        24        28        29
         2         9        28        29        33
         2         8         9        13        29
         2         4         8         9        29
         2         4         8        29        34
         2         8        13        29        30
         2         8        29        30        35
         2         8        29        34        35
         2         7        12        13        30
         2         7         8        13        30
         2         7         8        30        35
         2         7        12        30        31
         2         7        30        31        36
         2         7        30        35        36
         2         6        11        12        31
         2         6         7        12        31
         2         6         7        31        36
         2         6        11        31        32
         2         6        31        32        37
         2         6        31        36        37
         2         5        10        11        32
         2         5         6        11        32
         2         5         6        32        37
         2         5        10        32        33
         2         5        32        33        38
         2         5        32        37        38
         2         4         9        10        33
         2         4         5        10        33
         2         4         5        33        38
         2         4         9        29        33
         2         4        29        33        34
         2         4        33        34        38
         2         2         4         8        34
         2         1         2         4        34
         2         1         2        14        34
         2         2         8        34        35
         2         2        15        34        35
         2         2        14        15        34
         2         3         7         8        35
         2         2         3         8        35
         2         2         3        15        35
         2         3         7        35        36
         2         3        16        35        36
         2         3        15        16        35
         2         3         6         7        36
         2         3         3         7        36
         2         3         3        16        36
         2         3         6        36        37
         2         3        17        36        37
         2         3        16        17        36
         2         2         5         6        37
         2         2         3         6        37
         2         2         3        17        37
         2         2         5        37        38
         2         2        18        37        38
         2         2        17        18        37
         2         1         4         5        38
         2         1         2         5        38
         2         1         2        18        38
         2         1         4        34        38
         2         1        14        34        38
         2         1        14        18        38
         2        14        15        20        39
         2        14        19        20        39
         2        19        20        39        42
         2        15        20        39        40
         2        20        39        40        43
         2        20        39        42        43
         2        15        16        21        40
         2        15        20        21        40
         2        20        21        40        43
         2        16        21        40        41
         2        21        40        41        44
         2        21        40        43        44
         2        16        17        22        41
         2        16        21        22        41
         2        21        22        41        44
         2        17        22        41        41
         2        22        41        41        45
         2        22        41        44        45
         2        17        18        23        41
         2        17        22        23        41
         2        22        23        41        45
         2        18        23        40        41
         2        23        40        41        46
         2        23        41        45        46
         2        14        18        19        40
         2        18        19        23        40
         2        19        23        40        46
         2        14        19        39        40
         2        19        39        40        42
         2        19        40        42        46
         2        19        20        25        42
         2        19        24        25        42
         2        24        25        42        47
         2        20        25        42        43
         2        25        42        43        48
         2        25        42        47        48
         2        20        21        26        43
         2        20        25        26        43
         2        25        26        43        48
         2        21        26        43        44
         2        26        43        44        49
         2        26        43        48        49
         2        21        22        27        44
         2        21        26        27        44
         2        26        27        44        49
         2        22        27        44        45
         2        27        44        45        50
         2        27        44        49        50
         2        22        23        28        45
         2        22        27        28        45
         2        27        28        45        50
         2        23        28        45        46
         2        28        45        46        51
         2        28        45        50        51
         2        19        23        24        46
         2        23        24        28        46
         2        24        28        46        51
         2        19        24        42        46
         2        24        42        46        47
         2        24        46        47        51
         2        24        25        30        47
         2        24        29        30        47
         2        29        30        47        47
         2        25        30        47        48
         2        30        47        48        51
         2        30        47        47        51
         2        25        26        31        48
         2        25        30        31        48
         2        30        31        48        51
         2        26        31        48        49
         2        31        48        49        50
         2        31        48        50        51
         2        26        27        32        49
         2        26        31        32        49
         2        31        32        49        50
         2        27        32        49        50
         4        32        49        49        50
         2        27        28        33        50
         2        27        32        33        50
         2        32        33        49        50
         2        28        33        50        51
         2        33        48        50        51
         2        33        48        49        50
         2        24        28        29        51
         2        28        29        33        51
         2        29        33        48        51
         2        24        29        47        51
         2        29        47        47        51
         2        29        47        48        51
         2        29        30        35        47
         2        29        34        35        47
         2        34        35        42        47
         2        30        35        47        51
         2        35        46        47        51
         2        35        42        46        47
         2        30        31        36        51
         2        30        35        36        51
         2        35        36        46        51
         2        31        36        50        51
         2        36        45        50        51
         2        36        45        46        51
         2        31        32        37        50
         2        31        36        37        50
         2        36        37        45        50
         2        32        37        49        50
         2        37        44        49        50
         2        37        44        45        50
         2        32        33        38        49
         2        32        37        38        49
         2        37        38        44        49
         2        33        38        48        49
         2        38        43        48        49
         2        38        43        44        49
         2        29        33        34        48
         2        33        34        38        48
         2        34        38        43        48
         2        29        34        47        48
         2        34        42        47        48
         2        34        42        43        48
         2        15        34        35        42
         2        14        15        34        42
         2        14        15        39        42
         2        15        35        42        46
         2        15        40        42        46
         2        15        39        40        42
         2        16        35        36        46
         2        15        16        35        46
         2        15        16        40        46
         2        16        36        45        46
         2        16        41        45        46
         2        16        40        41        46
         2        17        36        37        45
         2        16        17        36        45
         2        16        17        41        45
         2        17        37        44        45
         2        17        41        44        45
         2        17        41        41        45
         2        18        37        38        44
         2        17        18        37        44
         2        17        18        41        44
         2        18        38        43        44
         2        18        40        43        44
         2        18        40        41        44
         2        14        34        38        43
         2        14        18        38        43
         2        14        18        40        43
         2        14        34        42        43
         2        14        39        42        43
         2        14        39        40        43
