   10   10   60    1
  0.1022333E+02  0.3076477E-09  0.6490284E-09  0.6720804E-09  0.5000000E-15
  1.000000000000000E-004
  CAR 
 unknown system                          
     39    418     28
 
  0.3742002E-15  0.3742002E-15  0.3742002E-15  0.1201923E-02
    1      -32.724421   1.000000
    2      -28.529523   1.000000
    3      -28.464640   1.000000
    4      -28.164419   1.000000
    5      -27.882566   1.000000
    6      -27.838209   1.000000
    7      -27.680421   1.000000
    8      -14.777036   1.000000
    9      -14.757746   1.000000
   10      -14.093665   1.000000
   11       -6.361187   1.000000
   12       -3.643607   1.000000
   13       -2.110180   1.000000
   14       -1.883794   1.000000
   15       -1.404475   1.000000
   16       -0.882583   1.000000
   17       -0.113737   1.000000
   18        1.825264   1.000000
   19        2.698996   1.000000
   20        2.897995   1.000000
   21        3.624861   0.000474
   22        3.926386   0.000000
   23        4.813212   0.000000
   24        4.857328   0.000000
   25        5.289596   0.000000
   26        6.391900   0.000000
   27        7.064852   0.000000
   28        7.641999   0.000000
 
  0.7692308E-01  0.3725319E-15  0.3755676E-15  0.2403846E-02
    1      -32.711509   1.000000
    2      -28.517900   1.000000
    3      -28.460095   1.000000
    4      -28.197158   1.000000
    5      -27.883836   1.000000
    6      -27.837391   1.000000
    7      -27.712815   1.000000
    8      -14.761554   1.000000
    9      -14.742327   1.000000
   10      -14.210888   1.000000
   11       -6.235202   1.000000
   12       -3.531047   1.000000
   13       -2.073968   1.000000
   14       -1.887902   1.000000
   15       -1.390041   1.000000
   16       -0.962775   1.000000
   17       -0.203318   1.000000
   18        1.875154   1.000000
   19        2.580572   1.000000
   20        2.663502   1.000000
   21        3.806061   0.000000
   22        3.998867   0.000000
   23        4.815551   0.000000
   24        4.976581   0.000000
   25        5.382430   0.000000
   26        6.458299   0.000000
   27        7.128746   0.000000
   28        7.689191   0.000000
 
  0.1538462E+00  0.3699298E-15  0.3747003E-15  0.2403846E-02
    1      -32.675485   1.000000
    2      -28.484664   1.000000
    3      -28.447674   1.000000
    4      -28.287382   1.000000
    5      -27.891798   1.000000
    6      -27.832293   1.000000
    7      -27.801597   1.000000
    8      -14.718930   1.000000
    9      -14.699440   1.000000
   10      -14.522864   1.000000
   11       -5.872522   1.000000
   12       -3.241675   1.000000
   13       -2.020714   1.000000
   14       -1.911386   1.000000
   15       -1.319289   1.000000
   16       -1.174836   1.000000
   17       -0.476998   1.000000
   18        1.925340   1.000000
   19        2.086431   1.000000
   20        2.724261   1.000000
   21        3.811173   0.000000
   22        4.345233   0.000000
   23        4.933825   0.000000
   24        5.361195   0.000000
   25        5.599785   0.000000
   26        6.624427   0.000000
   27        7.104580   0.000000
   28        7.838079   0.000000
 
  0.2307692E+00  0.3651593E-15  0.3642919E-15  0.2403846E-02
    1      -32.624013   1.000000
    2      -28.435955   1.000000
    3      -28.430056   1.000000
    4      -28.410274   1.000000
    5      -27.925863   1.000000
    6      -27.910604   1.000000
    7      -27.820607   1.000000
    8      -14.937276   1.000000
    9      -14.656808   1.000000
   10      -14.637360   1.000000
   11       -5.323751   1.000000
   12       -2.938553   1.000000
   13       -2.066093   1.000000
   14       -1.851281   1.000000
   15       -1.463693   1.000000
   16       -1.270813   1.000000
   17       -0.773092   1.000000
   18        1.598757   1.000000
   19        2.007249   1.000000
   20        3.165149   1.000022
   21        3.663392   0.000072
   22        4.337243   0.000000
   23        5.550745   0.000000
   24        5.748437   0.000000
   25        5.838328   0.000000
   26        6.767051   0.000000
   27        7.007164   0.000000
   28        7.797937   0.000000
 
  0.3076923E+00  0.3694961E-15  0.3677614E-15  0.2403846E-02
    1      -32.568447   1.000000
    2      -28.542707   1.000000
    3      -28.412176   1.000000
    4      -28.371238   1.000000
    5      -28.053224   1.000000
    6      -27.941492   1.000000
    7      -27.806092   1.000000
    8      -15.347081   1.000000
    9      -14.591270   1.000000
   10      -14.569451   1.000000
   11       -4.654946   1.000000
   12       -2.877382   1.000000
   13       -2.070725   1.000000
   14       -1.836243   1.000000
   15       -1.691406   1.000000
   16       -1.439417   1.000000
   17       -0.809608   1.000000
   18        1.408798   1.000000
   19        2.164458   1.000000
   20        3.312869   0.726898
   21        3.946398   0.000000
   22        4.043522   0.000000
   23        5.663360   0.000000
   24        5.853183   0.000000
   25        6.132974   0.000000
   26        6.866156   0.000000
   27        7.125576   0.000000
   28        7.928773   0.000000
 
  0.3846154E+00  0.3660267E-15  0.3677614E-15  0.2403846E-02
    1      -32.521642   1.000000
    2      -28.648409   1.000000
    3      -28.396637   1.000000
    4      -28.310375   1.000000
    5      -28.157366   1.000000
    6      -27.977470   1.000000
    7      -27.793268   1.000000
    8      -15.668744   1.000000
    9      -14.536157   1.000000
   10      -14.511372   1.000000
   11       -3.963351   1.000000
   12       -2.994281   1.000000
   13       -2.197979   1.000000
   14       -2.043806   1.000000
   15       -1.648686   1.000000
   16       -1.595791   1.000000
   17       -0.766808   1.000000
   18        1.573788   1.000000
   19        2.397433   1.000000
   20        3.172355   1.003120
   21        3.462394  -0.030902
   22        4.545382   0.000000
   23        5.302658   0.000000
   24        5.553695   0.000000
   25        6.656379   0.000000
   26        7.259904   0.000000
   27        7.367904   0.000000
   28        8.041512   0.000000
 
  0.4615385E+00  0.3599551E-15  0.3677614E-15  0.2403846E-02
    1      -32.494901   1.000000
    2      -28.707291   1.000000
    3      -28.387856   1.000000
    4      -28.267947   1.000000
    5      -28.215261   1.000000
    6      -28.005921   1.000000
    7      -27.785778   1.000000
    8      -15.843852   1.000000
    9      -14.504700   1.000000
   10      -14.477840   1.000000
   11       -3.410783   1.000000
   12       -3.135243   1.000000
   13       -2.335990   1.000000
   14       -2.083789   1.000000
   15       -1.802681   1.000000
   16       -1.680476   1.000000
   17       -0.715798   1.000000
   18        2.012213   1.000000
   19        2.524936   1.000000
   20        2.839731   1.000000
   21        3.206038   1.029090
   22        4.625841   0.000000
   23        5.145442   0.000000
   24        5.339981   0.000000
   25        7.195520   0.000000
   26        7.507005   0.000000
   27        7.867116   0.000000
   28        8.150503   0.000000
 
  0.3747003E-15  0.1250000E+00  0.3885781E-15  0.2403846E-02
    1      -32.724625   1.000000
    2      -28.509354   1.000000
    3      -28.463816   1.000000
    4      -28.163314   1.000000
    5      -27.898195   1.000000
    6      -27.845090   1.000000
    7      -27.681519   1.000000
    8      -14.778197   1.000000
    9      -14.763242   1.000000
   10      -14.093622   1.000000
   11       -6.254493   1.000000
   12       -3.681134   1.000000
   13       -2.144191   1.000000
   14       -1.899248   1.000000
   15       -1.471814   1.000000
   16       -0.848525   1.000000
   17       -0.132716   1.000000
   18        1.837939   1.000000
   19        2.676361   1.000000
   20        2.989183   0.999973
   21        3.691193   0.000015
   22        3.952808   0.000000
   23        4.681571   0.000000
   24        4.837444   0.000000
   25        5.294411   0.000000
   26        6.185951   0.000000
   27        7.075829   0.000000
   28        7.788137   0.000000
 
  0.7692308E-01  0.1250000E+00  0.3747003E-15  0.2403846E-02
    1      -32.711715   1.000000
    2      -28.499798   1.000000
    3      -28.459354   1.000000
    4      -28.196737   1.000000
    5      -27.900019   1.000000
    6      -27.842423   1.000000
    7      -27.712446   1.000000
    8      -14.762695   1.000000
    9      -14.747781   1.000000
   10      -14.210968   1.000000
   11       -6.131700   1.000000
   12       -3.569503   1.000000
   13       -2.115995   1.000000
   14       -1.910561   1.000000
   15       -1.461284   1.000000
   16       -0.922273   1.000000
   17       -0.219260   1.000000
   18        1.899949   1.000000
   19        2.459583   1.000000
   20        2.913969   1.000000
   21        3.815860   0.000000
   22        4.025613   0.000000
   23        4.684709   0.000000
   24        4.952127   0.000000
   25        5.404903   0.000000
   26        6.261683   0.000000
   27        7.133430   0.000000
   28        7.819596   0.000000
 
  0.1538462E+00  0.1250000E+00  0.3885781E-15  0.2403846E-02
    1      -32.675691   1.000000
    2      -28.472159   1.000000
    3      -28.446883   1.000000
    4      -28.286451   1.000000
    5      -27.910661   1.000000
    6      -27.834945   1.000000
    7      -27.795153   1.000000
    8      -14.720018   1.000000
    9      -14.704703   1.000000
   10      -14.522859   1.000000
   11       -5.776847   1.000000
   12       -3.275029   1.000000
   13       -2.084178   1.000000
   14       -1.949358   1.000000
   15       -1.446327   1.000000
   16       -1.075485   1.000000
   17       -0.468658   1.000000
   18        1.995117   1.000000
   19        2.039108   1.000000
   20        2.943142   0.999999
   21        3.754320   0.000000
   22        4.361179   0.000000
   23        4.854141   0.000000
   24        5.296784   0.000000
   25        5.639235   0.000000
   26        6.452917   0.000000
   27        7.134376   0.000000
   28        7.898184   0.000000
 
  0.2307692E+00  0.1250000E+00  0.3885781E-15  0.2403846E-02
    1      -32.624207   1.000000
    2      -28.449661   1.000000
    3      -28.429388   1.000000
    4      -28.390409   1.000000
    5      -27.952185   1.000000
    6      -27.890488   1.000000
    7      -27.820566   1.000000
    8      -14.937186   1.000000
    9      -14.657712   1.000000
   10      -14.642071   1.000000
   11       -5.239438   1.000000
   12       -2.954797   1.000000
   13       -2.140870   1.000000
   14       -1.924973   1.000000
   15       -1.577082   1.000000
   16       -1.203236   1.000000
   17       -0.718584   1.000000
   18        1.600419   1.000000
   19        2.158783   1.000000
   20        3.299911   0.839128
   21        3.621694   0.000543
   22        4.330235   0.000000
   23        5.516959   0.000000
   24        5.624981   0.000000
   25        5.882906   0.000000
   26        6.642137   0.000000
   27        7.108608   0.000000
   28        7.625659   0.000000
 
  0.3076923E+00  0.1250000E+00  0.3747003E-15  0.2403846E-02
    1      -32.568643   1.000000
    2      -28.552676   1.000000
    3      -28.411869   1.000000
    4      -28.366427   1.000000
    5      -28.053672   1.000000
    6      -27.934984   1.000000
    7      -27.805622   1.000000
    8      -15.347135   1.000000
    9      -14.592272   1.000000
   10      -14.573570   1.000000
   11       -4.587984   1.000000
   12       -2.873679   1.000000
   13       -2.179498   1.000000
   14       -1.926672   1.000000
   15       -1.718100   1.000000
   16       -1.437742   1.000000
   17       -0.759634   1.000000
   18        1.461365   1.000000
   19        2.323586   1.000000
   20        3.331465   0.539015
   21        3.979103   0.000000
   22        4.115946   0.000000
   23        5.578345   0.000000
   24        5.829559   0.000000
   25        6.133773   0.000000
   26        6.851900   0.000000
   27        7.272103   0.000000
   28        7.656107   0.000000
 
  0.3846154E+00  0.1250000E+00  0.3747003E-15  0.2403846E-02
    1      -32.521833   1.000000
    2      -28.656716   1.000000
    3      -28.396520   1.000000
    4      -28.328429   1.000000
    5      -28.137176   1.000000
    6      -27.969429   1.000000
    7      -27.792583   1.000000
    8      -15.668816   1.000000
    9      -14.537106   1.000000
   10      -14.515108   1.000000
   11       -3.923060   1.000000
   12       -2.986332   1.000000
   13       -2.308139   1.000000
   14       -2.087664   1.000000
   15       -1.649378   1.000000
   16       -1.617120   1.000000
   17       -0.762077   1.000000
   18        1.655940   1.000000
   19        2.526938   1.000000
   20        3.184250   1.010277
   21        3.557085   0.004088
   22        4.608785   0.000000
   23        5.259241   0.000000
   24        5.706754   0.000000
   25        6.641606   0.000000
   26        7.152122   0.000000
   27        7.440257   0.000000
   28        7.851448   0.000000
 
  0.4615385E+00  0.1250000E+00  0.3747003E-15  0.2403846E-02
    1      -32.495094   1.000000
    2      -28.715359   1.000000
    3      -28.387904   1.000000
    4      -28.317371   1.000000
    5      -28.165359   1.000000
    6      -27.996288   1.000000
    7      -27.785117   1.000000
    8      -15.844036   1.000000
    9      -14.505674   1.000000
   10      -14.481427   1.000000
   11       -3.405589   1.000000
   12       -3.127167   1.000000
   13       -2.426314   1.000000
   14       -2.140585   1.000000
   15       -1.788207   1.000000
   16       -1.661126   1.000000
   17       -0.747502   1.000000
   18        2.103376   1.000000
   19        2.582163   1.000000
   20        2.942961   0.999999
   21        3.269554   1.007933
   22        4.758732   0.000000
   23        4.976634   0.000000
   24        5.727098   0.000000
   25        7.160088   0.000000
   26        7.451878   0.000000
   27        7.604877   0.000000
   28        7.982487   0.000000
 
 -0.4615385E+00  0.1250000E+00  0.3608225E-15  0.2403846E-02
    1      -32.495093   1.000000
    2      -28.715142   1.000000
    3      -28.387803   1.000000
    4      -28.316315   1.000000
    5      -28.164479   1.000000
    6      -27.998261   1.000000
    7      -27.785052   1.000000
    8      -15.843943   1.000000
    9      -14.505672   1.000000
   10      -14.481403   1.000000
   11       -3.403689   1.000000
   12       -3.125861   1.000000
   13       -2.427129   1.000000
   14       -2.135213   1.000000
   15       -1.777691   1.000000
   16       -1.677614   1.000000
   17       -0.743279   1.000000
   18        2.109603   1.000000
   19        2.586646   1.000000
   20        2.946168   0.999998
   21        3.257931   1.036818
   22        4.771201   0.000000
   23        4.967004   0.000000
   24        5.719242   0.000000
   25        7.149854   0.000000
   26        7.459501   0.000000
   27        7.594435   0.000000
   28        7.958144   0.000000
 
 -0.3846154E+00  0.1250000E+00  0.3677614E-15  0.2403846E-02
    1      -32.521834   1.000000
    2      -28.656453   1.000000
    3      -28.396476   1.000000
    4      -28.325500   1.000000
    5      -28.135935   1.000000
    6      -27.974086   1.000000
    7      -27.792608   1.000000
    8      -15.668827   1.000000
    9      -14.537080   1.000000
   10      -14.515184   1.000000
   11       -3.918005   1.000000
   12       -2.987705   1.000000
   13       -2.313431   1.000000
   14       -2.082776   1.000000
   15       -1.648358   1.000000
   16       -1.622791   1.000000
   17       -0.754689   1.000000
   18        1.663453   1.000000
   19        2.537127   1.000000
   20        3.193360   1.017422
   21        3.532757   0.004871
   22        4.612267   0.000000
   23        5.258600   0.000000
   24        5.699731   0.000000
   25        6.622087   0.000000
   26        7.156312   0.000000
   27        7.445203   0.000000
   28        7.819977   0.000000
 
 -0.3076923E+00  0.1250000E+00  0.3747003E-15  0.2403846E-02
    1      -32.568648   1.000000
    2      -28.552073   1.000000
    3      -28.411879   1.000000
    4      -28.363156   1.000000
    5      -28.051742   1.000000
    6      -27.941221   1.000000
    7      -27.805715   1.000000
    8      -15.347150   1.000000
    9      -14.592373   1.000000
   10      -14.573788   1.000000
   11       -4.581061   1.000000
   12       -2.879137   1.000000
   13       -2.192977   1.000000
   14       -1.930811   1.000000
   15       -1.709080   1.000000
   16       -1.431030   1.000000
   17       -0.753318   1.000000
   18        1.468526   1.000000
   19        2.329631   1.000000
   20        3.332280   0.530409
   21        3.968506   0.000000
   22        4.095989   0.000000
   23        5.609476   0.000000
   24        5.820841   0.000000
   25        6.114032   0.000000
   26        6.849023   0.000000
   27        7.277967   0.000000
   28        7.634949   0.000000
 
 -0.2307692E+00  0.1250000E+00  0.4024558E-15  0.2403846E-02
    1      -32.624215   1.000000
    2      -28.447119   1.000000
    3      -28.429202   1.000000
    4      -28.389489   1.000000
    5      -27.948570   1.000000
    6      -27.898119   1.000000
    7      -27.820577   1.000000
    8      -14.937200   1.000000
    9      -14.657781   1.000000
   10      -14.642287   1.000000
   11       -5.232852   1.000000
   12       -2.963081   1.000000
   13       -2.151988   1.000000
   14       -1.927742   1.000000
   15       -1.558812   1.000000
   16       -1.200602   1.000000
   17       -0.714070   1.000000
   18        1.609658   1.000000
   19        2.161675   1.000000
   20        3.276830   0.980265
   21        3.620737   0.000565
   22        4.310932   0.000000
   23        5.511090   0.000000
   24        5.647137   0.000000
   25        5.879146   0.000000
   26        6.640106   0.000000
   27        7.120257   0.000000
   28        7.633432   0.000000
 
 -0.1538462E+00  0.1250000E+00  0.3885781E-15  0.2403846E-02
    1      -32.675699   1.000000
    2      -28.469799   1.000000
    3      -28.446763   1.000000
    4      -28.286252   1.000000
    5      -27.910904   1.000000
    6      -27.835886   1.000000
    7      -27.797131   1.000000
    8      -14.720134   1.000000
    9      -14.704838   1.000000
   10      -14.522890   1.000000
   11       -5.771720   1.000000
   12       -3.282170   1.000000
   13       -2.088636   1.000000
   14       -1.951760   1.000000
   15       -1.438651   1.000000
   16       -1.067111   1.000000
   17       -0.468510   1.000000
   18        2.001908   1.000000
   19        2.055558   1.000000
   20        2.898133   1.000000
   21        3.755558   0.000000
   22        4.342293   0.000000
   23        4.845732   0.000000
   24        5.319208   0.000000
   25        5.642456   0.000000
   26        6.455370   0.000000
   27        7.128152   0.000000
   28        7.917113   0.000000
 
 -0.7692308E-01  0.1250000E+00  0.3469447E-15  0.2403846E-02
    1      -32.711719   1.000000
    2      -28.498529   1.000000
    3      -28.459361   1.000000
    4      -28.196484   1.000000
    5      -27.900696   1.000000
    6      -27.842868   1.000000
    7      -27.713271   1.000000
    8      -14.762770   1.000000
    9      -14.747961   1.000000
   10      -14.210965   1.000000
   11       -6.128949   1.000000
   12       -3.572799   1.000000
   13       -2.117717   1.000000
   14       -1.913103   1.000000
   15       -1.460339   1.000000
   16       -0.915391   1.000000
   17       -0.219616   1.000000
   18        1.905323   1.000000
   19        2.484797   1.000000
   20        2.865578   1.000000
   21        3.800160   0.000000
   22        4.033673   0.000000
   23        4.674672   0.000000
   24        4.968991   0.000000
   25        5.407400   0.000000
   26        6.262612   0.000000
   27        7.126851   0.000000
   28        7.828141   0.000000
 
  0.3747003E-15  0.2500000E+00  0.3608225E-15  0.2403846E-02
    1      -32.725131   1.000000
    2      -28.464690   1.000000
    3      -28.451209   1.000000
    4      -28.160754   1.000000
    5      -27.953130   1.000000
    6      -27.851581   1.000000
    7      -27.684228   1.000000
    8      -14.781803   1.000000
    9      -14.776159   1.000000
   10      -14.093683   1.000000
   11       -5.957031   1.000000
   12       -3.830781   1.000000
   13       -2.249444   1.000000
   14       -1.983334   1.000000
   15       -1.500099   1.000000
   16       -0.784195   1.000000
   17       -0.230303   1.000000
   18        1.881333   1.000000
   19        2.693397   1.000000
   20        3.260737   1.031444
   21        3.800661   0.000000
   22        4.021445   0.000000
   23        4.325506   0.000000
   24        4.785090   0.000000
   25        5.419709   0.000000
   26        5.661902   0.000000
   27        7.058762   0.000000
   28        7.997541   0.000000
 
  0.7692308E-01  0.2500000E+00  0.4163336E-15  0.2403846E-02
    1      -32.712224   1.000000
    2      -28.460190   1.000000
    3      -28.445707   1.000000
    4      -28.196367   1.000000
    5      -27.951457   1.000000
    6      -27.847559   1.000000
    7      -27.713297   1.000000
    8      -14.765937   1.000000
    9      -14.760776   1.000000
   10      -14.211022   1.000000
   11       -5.840334   1.000000
   12       -3.720023   1.000000
   13       -2.242419   1.000000
   14       -2.000608   1.000000
   15       -1.490972   1.000000
   16       -0.844777   1.000000
   17       -0.311179   1.000000
   18        1.951696   1.000000
   19        2.537308   1.000000
   20        3.263826   1.024388
   21        3.801179   0.000000
   22        4.089051   0.000000
   23        4.352729   0.000000
   24        4.879351   0.000000
   25        5.491014   0.000000
   26        5.810191   0.000000
   27        7.125939   0.000000
   28        8.036073   0.000000
 
  0.1538462E+00  0.2500000E+00  0.4163336E-15  0.2403846E-02
    1      -32.676195   1.000000
    2      -28.448079   1.000000
    3      -28.431616   1.000000
    4      -28.286559   1.000000
    5      -27.954974   1.000000
    6      -27.837168   1.000000
    7      -27.790233   1.000000
    8      -14.722725   1.000000
    9      -14.717277   1.000000
   10      -14.523048   1.000000
   11       -5.501397   1.000000
   12       -3.424452   1.000000
   13       -2.264775   1.000000
   14       -2.047180   1.000000
   15       -1.505341   1.000000
   16       -0.966914   1.000000
   17       -0.521195   1.000000
   18        2.060995   1.000000
   19        2.251864   1.000000
   20        3.365722   0.199010
   21        3.637867   0.000263
   22        4.224634   0.000000
   23        4.740728   0.000000
   24        5.136456   0.000000
   25        5.683479   0.000000
   26        6.104434   0.000000
   27        7.148016   0.000000
   28        7.835474   0.000000
 
  0.2307692E+00  0.2500000E+00  0.4440892E-15  0.2403846E-02
    1      -32.624705   1.000000
    2      -28.458197   1.000000
    3      -28.428588   1.000000
    4      -28.364150   1.000000
    5      -27.979374   1.000000
    6      -27.881297   1.000000
    7      -27.820873   1.000000
    8      -14.937264   1.000000
    9      -14.660616   1.000000
   10      -14.653410   1.000000
   11       -4.991024   1.000000
   12       -3.065312   1.000000
   13       -2.371696   1.000000
   14       -2.085000   1.000000
   15       -1.627707   1.000000
   16       -1.149328   1.000000
   17       -0.672493   1.000000
   18        1.799134   1.000000
   19        2.444882   1.000000
   20        3.444412  -0.046566
   21        3.742298   0.000000
   22        4.208527   0.000000
   23        5.270182   0.000000
   24        5.455137   0.000000
   25        6.030343   0.000000
   26        6.346597   0.000000
   27        7.049111   0.000000
   28        7.472535   0.000000
 
  0.3076923E+00  0.2500000E+00  0.4440892E-15  0.2403846E-02
    1      -32.569117   1.000000
    2      -28.571164   1.000000
    3      -28.411293   1.000000
    4      -28.360479   1.000000
    5      -28.042570   1.000000
    6      -27.931750   1.000000
    7      -27.804727   1.000000
    8      -15.347332   1.000000
    9      -14.595286   1.000000
   10      -14.583391   1.000000
   11       -4.386461   1.000000
   12       -2.887015   1.000000
   13       -2.471001   1.000000
   14       -2.147932   1.000000
   15       -1.715205   1.000000
   16       -1.437269   1.000000
   17       -0.700687   1.000000
   18        1.728091   1.000000
   19        2.667710   1.000000
   20        3.342686   0.420701
   21        4.072120   0.000000
   22        4.328034   0.000000
   23        5.214803   0.000000
   24        5.879654   0.000000
   25        6.099369   0.000000
   26        6.723909   0.000000
   27        7.034389   0.000000
   28        7.629956   0.000000
 
  0.3846154E+00  0.2500000E+00  0.4163336E-15  0.2403846E-02
    1      -32.522301   1.000000
    2      -28.675055   1.000000
    3      -28.396464   1.000000
    4      -28.361691   1.000000
    5      -28.093094   1.000000
    6      -27.958150   1.000000
    7      -27.791104   1.000000
    8      -15.669008   1.000000
    9      -14.540234   1.000000
   10      -14.523946   1.000000
   11       -3.799298   1.000000
   12       -2.966637   1.000000
   13       -2.542534   1.000000
   14       -2.253905   1.000000
   15       -1.667663   1.000000
   16       -1.637033   1.000000
   17       -0.774602   1.000000
   18        1.943961   1.000000
   19        2.825394   1.000000
   20        3.259409   1.034107
   21        3.759303   0.000000
   22        4.796053   0.000000
   23        5.222510   0.000000
   24        5.892322   0.000000
   25        6.446474   0.000000
   26        6.758904   0.000000
   27        7.340941   0.000000
   28        7.694884   0.000000
 
  0.4615385E+00  0.2500000E+00  0.3885781E-15  0.2403846E-02
    1      -32.495558   1.000000
    2      -28.733650   1.000000
    3      -28.388913   1.000000
    4      -28.373506   1.000000
    5      -28.105048   1.000000
    6      -27.976340   1.000000
    7      -27.783415   1.000000
    8      -15.844256   1.000000
    9      -14.508766   1.000000
   10      -14.489905   1.000000
   11       -3.385522   1.000000
   12       -3.094176   1.000000
   13       -2.604021   1.000000
   14       -2.298362   1.000000
   15       -1.757359   1.000000
   16       -1.634456   1.000000
   17       -0.842184   1.000000
   18        2.346840   1.000000
   19        2.797349   1.000000
   20        3.205372   1.028450
   21        3.422955  -0.049169
   22        4.882847   0.000000
   23        5.246231   0.000000
   24        6.115608   0.000000
   25        6.526274   0.000000
   26        7.083047   0.000000
   27        7.523002   0.000000
   28        7.745900   0.000000
 
 -0.4615385E+00  0.2500000E+00  0.3885781E-15  0.2403846E-02
    1      -32.495556   1.000000
    2      -28.733464   1.000000
    3      -28.388834   1.000000
    4      -28.372612   1.000000
    5      -28.103028   1.000000
    6      -27.979432   1.000000
    7      -27.783449   1.000000
    8      -15.844187   1.000000
    9      -14.508744   1.000000
   10      -14.489999   1.000000
   11       -3.384298   1.000000
   12       -3.093236   1.000000
   13       -2.603632   1.000000
   14       -2.296053   1.000000
   15       -1.741440   1.000000
   16       -1.657360   1.000000
   17       -0.837518   1.000000
   18        2.357727   1.000000
   19        2.801240   1.000000
   20        3.221225   1.043060
   21        3.394679   0.014647
   22        4.902640   0.000000
   23        5.228011   0.000000
   24        6.118643   0.000000
   25        6.508630   0.000000
   26        7.077900   0.000000
   27        7.509646   0.000000
   28        7.739139   0.000000
 
 -0.3846154E+00  0.2500000E+00  0.3885781E-15  0.2403846E-02
    1      -32.522306   1.000000
    2      -28.674608   1.000000
    3      -28.396446   1.000000
    4      -28.358697   1.000000
    5      -28.089466   1.000000
    6      -27.965621   1.000000
    7      -27.791209   1.000000
    8      -15.669019   1.000000
    9      -14.540334   1.000000
   10      -14.524137   1.000000
   11       -3.791064   1.000000
   12       -2.970254   1.000000
   13       -2.545679   1.000000
   14       -2.255760   1.000000
   15       -1.660716   1.000000
   16       -1.648069   1.000000
   17       -0.766955   1.000000
   18        1.957753   1.000000
   19        2.839639   1.000000
   20        3.266597   1.016991
   21        3.723959   0.000002
   22        4.815414   0.000000
   23        5.217567   0.000000
   24        5.883983   0.000000
   25        6.416503   0.000000
   26        6.758337   0.000000
   27        7.308972   0.000000
   28        7.680848   0.000000
 
 -0.3076923E+00  0.2500000E+00  0.3885781E-15  0.2403846E-02
    1      -32.569129   1.000000
    2      -28.570301   1.000000
    3      -28.411301   1.000000
    4      -28.356080   1.000000
    5      -28.039366   1.000000
    6      -27.941086   1.000000
    7      -27.804854   1.000000
    8      -15.347392   1.000000
    9      -14.595482   1.000000
   10      -14.583656   1.000000
   11       -4.373995   1.000000
   12       -2.901417   1.000000
   13       -2.479563   1.000000
   14       -2.154819   1.000000
   15       -1.700240   1.000000
   16       -1.435631   1.000000
   17       -0.694734   1.000000
   18        1.738837   1.000000
   19        2.678170   1.000000
   20        3.343483   0.412392
   21        4.040952   0.000000
   22        4.308242   0.000000
   23        5.265004   0.000000
   24        5.850943   0.000000
   25        6.090449   0.000000
   26        6.714152   0.000000
   27        7.017027   0.000000
   28        7.620617   0.000000
 
 -0.2307692E+00  0.2500000E+00  0.3608225E-15  0.2403846E-02
    1      -32.624709   1.000000
    2      -28.455655   1.000000
    3      -28.428433   1.000000
    4      -28.361083   1.000000