       N       E                     dE             d eps       ncg     rms          rms(c)
DAV:   1     0.207680689314E+03    0.20768E+03   -0.12896E+04 24240   0.776E+02
DAV:   2    -0.349945145711E+02   -0.24268E+03   -0.23662E+03 28276   0.349E+02
DAV:   3    -0.489537107124E+02   -0.13959E+02   -0.13703E+02 40008   0.705E+01
DAV:   4    -0.496307589943E+02   -0.67705E+00   -0.67299E+00 38808   0.121E+01
DAV:   5    -0.496418334617E+02   -0.11074E-01   -0.11061E-01 38764   0.151E+00    0.394E+01
DAV:   6    -0.465398282516E+02    0.31020E+01   -0.88752E+00 35864   0.195E+01    0.156E+01
DAV:   7    -0.460586938692E+02    0.48113E+00   -0.27007E+00 34464   0.786E+00    0.803E+00
DAV:   8    -0.460401182361E+02    0.18576E-01   -0.18380E+00 37024   0.882E+00    0.426E+00
DAV:   9    -0.459633185821E+02    0.76800E-01   -0.62442E-01 35056   0.380E+00    0.224E+00
DAV:  10    -0.459627968340E+02    0.52175E-03   -0.64793E-02 33036   0.154E+00    0.450E-01
DAV:  11    -0.459627251395E+02    0.71695E-04   -0.55052E-03 33152   0.487E-01    0.163E-01
DAV:  12    -0.459633387671E+02   -0.61363E-03   -0.12346E-03 29856   0.184E-01    0.528E-02
DAV:  13    -0.459635258728E+02   -0.18711E-03   -0.47032E-04 26456   0.106E-01    0.258E-02
DAV:  14    -0.459635619190E+02   -0.36046E-04   -0.84358E-05 19168   0.479E-02
   1 F= -.45963562E+02 E0= -.45963428E+02  d E =-.459636E+02
       N       E                     dE             d eps       ncg     rms          rms(c)
DAV:   1    -0.460593338270E+02   -0.95808E-01   -0.20517E+00 24104   0.112E+01    0.307E+00
DAV:   2    -0.459976747979E+02    0.61659E-01   -0.34424E-01 38968   0.434E+00    0.922E-01
DAV:   3    -0.459846534023E+02    0.13021E-01   -0.92236E-02 36528   0.161E+00    0.626E-01
DAV:   4    -0.459802890467E+02    0.43644E-02   -0.55971E-02 42420   0.140E+00    0.588E-01
DAV:   5    -0.459784160555E+02    0.18730E-02   -0.10449E-02 44776   0.682E-01    0.399E-01
DAV:   6    -0.459787706154E+02   -0.35456E-03   -0.88513E-04 41528   0.136E-01    0.145E-01
DAV:   7    -0.459788181312E+02   -0.47516E-04   -0.92870E-04 44588   0.176E-01
   2 F= -.45978818E+02 E0= -.45978716E+02  d E =-.152562E-01
       N       E                     dE             d eps       ncg     rms          rms(c)
DAV:   1    -0.459803763867E+02   -0.16058E-02   -0.37024E-02 24732   0.152E+00    0.401E-01
DAV:   2    -0.459792579982E+02    0.11184E-02   -0.61837E-03 38776   0.586E-01    0.117E-01
DAV:   3    -0.459790245594E+02    0.23344E-03   -0.17076E-03 33368   0.209E-01    0.880E-02
DAV:   4    -0.459789476720E+02    0.76887E-04   -0.95291E-04 32924   0.196E-01
   3 F= -.45978948E+02 E0= -.45978853E+02  d E =-.153858E-01
       N       E                     dE             d eps       ncg     rms          rms(c)
DAV:   1    -0.459814150233E+02   -0.23905E-02   -0.11113E-01 26500   0.263E+00    0.243E-01
DAV:   2    -0.459811290398E+02    0.28598E-03   -0.11397E-02 29204   0.726E-01    0.154E-01
DAV:   3    -0.459809079903E+02    0.22105E-03   -0.13409E-03 33528   0.246E-01    0.111E-01
DAV:   4    -0.459808202624E+02    0.87728E-04   -0.88687E-04 28528   0.193E-01
   4 F= -.45980820E+02 E0= -.45980718E+02  d E =-.187259E-02
       N       E                     dE             d eps       ncg     rms          rms(c)
DAV:   1    -0.459872824651E+02   -0.63745E-02   -0.99497E-01 26576   0.789E+00    0.711E-01
DAV:   2    -0.459850473636E+02    0.22351E-02   -0.10068E-01 28840   0.215E+00    0.415E-01
DAV:   3    -0.459831066855E+02    0.19407E-02   -0.11017E-02 36600   0.708E-01    0.276E-01
DAV:   4    -0.459823709086E+02    0.73578E-03   -0.76213E-03 38424   0.557E-01    0.206E-01
DAV:   5    -0.459819879121E+02    0.38300E-03   -0.22471E-03 36600   0.291E-01    0.106E-01
DAV:   6    -0.459820017235E+02   -0.13811E-04   -0.13078E-04 16584   0.845E-02
   5 F= -.45982002E+02 E0= -.45982018E+02  d E =-.305405E-02
       N       E                     dE             d eps       ncg     rms          rms(c)
DAV:   1    -0.459731522455E+02    0.88357E-02   -0.65140E-01 26760   0.783E+00    0.360E-01
DAV:   2    -0.459836263687E+02   -0.10474E-01   -0.11718E-01 23464   0.200E+00    0.189E-01
DAV:   3    -0.459836331123E+02   -0.67435E-05   -0.29143E-03 33952   0.361E-01    0.129E-01
DAV:   4    -0.459835471945E+02    0.85918E-04   -0.12947E-03 31524   0.243E-01    0.639E-02
DAV:   5    -0.459835380729E+02    0.91216E-05   -0.41344E-04 21956   0.136E-01
   6 F= -.45983538E+02 E0= -.45983531E+02  d E =-.153635E-02
       N       E                     dE             d eps       ncg     rms          rms(c)
DAV:   1    -0.459833458749E+02    0.20132E-03   -0.16212E-02 26892   0.121E+00    0.653E-02
DAV:   2    -0.459835948940E+02   -0.24902E-03   -0.27262E-03 23704   0.312E-01    0.241E-02
DAV:   3    -0.459835884336E+02    0.64605E-05   -0.49323E-05 16612   0.571E-02
   7 F= -.45983588E+02 E0= -.45983585E+02  d E =-.158671E-02
