 running on   16 total cores
 distrk:  each k-point on   16 cores,    1 groups
 distr:  one band on    1 cores,   16 groups
 using from now: INCAR     
 vasp.5.4.4.18Apr17-6-g9f103f2a35 (build Nov 01 2019 12:17:22) complex          
  
 POSCAR found type information on POSCAR  Sr Nb H 
 POSCAR found :  3 types and      10 ions

 ----------------------------------------------------------------------------- 
|                                                                             |
|           W    W    AA    RRRRR   N    N  II  N    N   GGGG   !!!           |
|           W    W   A  A   R    R  NN   N  II  NN   N  G    G  !!!           |
|           W    W  A    A  R    R  N N  N  II  N N  N  G       !!!           |
|           W WW W  AAAAAA  RRRRR   N  N N  II  N  N N  G  GGG   !            |
|           WW  WW  A    A  R   R   N   NN  II  N   NN  G    G                |
|           W    W  A    A  R    R  N    N  II  N    N   GGGG   !!!           |
|                                                                             |
|      For optimal performance we recommend to set                            |
|        NCORE= 4 - approx SQRT( number of cores)                             |
|      NCORE specifies how many cores store one orbital (NPAR=cpu/NCORE).     |
|      This setting can  greatly improve the performance of VASP for DFT.     |
|      The default,   NCORE=1            might be grossly inefficient         |
|      on modern multi-core architectures or massively parallel machines.     |
|      Do your own testing !!!!                                               |
|      Unfortunately you need to use the default for GW and RPA calculations. |
|      (for HF NCORE is supported but not extensively tested yet)             |
|                                                                             |
 ----------------------------------------------------------------------------- 

 LDA part: xc-table for Pade appr. of Perdew
 POSCAR, INCAR and KPOINTS ok, starting setup
 FFT: planning ...
 WAVECAR not read
 entering main loop
       N       E                     dE             d eps       ncg     rms          rms(c)
DAV:   1     0.144889300382E+03    0.14489E+03   -0.13651E+04  7424   0.829E+02
DAV:   2    -0.312125329330E+02   -0.17610E+03   -0.16443E+03  8656   0.238E+02
DAV:   3    -0.399785378516E+02   -0.87660E+01   -0.86918E+01 14000   0.478E+01
DAV:   4    -0.400398793446E+02   -0.61341E-01   -0.61314E-01  7776   0.320E+00
DAV:   5    -0.400406793786E+02   -0.80003E-03   -0.79957E-03 11504   0.368E-01    0.360E+01
RMM:   6    -0.403942458975E+02   -0.35357E+00   -0.37622E+00  8005   0.822E+00    0.159E+01
RMM:   7    -0.399249567829E+02    0.46929E+00   -0.69799E-01  8119   0.472E+00    0.723E+00
RMM:   8    -0.399119888357E+02    0.12968E-01   -0.14102E-01  7784   0.242E+00    0.369E+00
RMM:   9    -0.399173476396E+02   -0.53588E-02   -0.35966E-02  7658   0.127E+00    0.154E+00
RMM:  10    -0.399212218554E+02   -0.38742E-02   -0.10951E-02  7298   0.710E-01    0.870E-01
RMM:  11    -0.399220479671E+02   -0.82611E-03   -0.19792E-03  6814   0.350E-01    0.205E-01
RMM:  12    -0.399223175770E+02   -0.26961E-03   -0.69779E-04  6024   0.166E-01
   1 F= -.39922318E+02 E0= -.39922318E+02  d E =-.399223E+02  mag=    -0.0030
 curvature:   0.00 expect dE= 0.000E+00 dE for cont linesearch  0.000E+00
 trial: gam= 0.00000 g(F)=  0.597E-02 g(S)=  0.511E-01 ort = 0.000E+00 (trialstep = 0.100E+01)
 search vector abs. value=  0.571E-01
 bond charge predicted
       N       E                     dE             d eps       ncg     rms          rms(c)
DAV:   1    -0.400994212951E+02   -0.17737E+00   -0.25144E+00 10288   0.107E+01    0.419E+00
RMM:   2    -0.399838956872E+02    0.11553E+00   -0.25882E-01  7756   0.279E+00    0.992E-01
RMM:   3    -0.399657953451E+02    0.18100E-01   -0.22347E-02  7900   0.124E+00    0.901E-01
RMM:   4    -0.399618850524E+02    0.39103E-02   -0.78435E-03  7787   0.631E-01    0.810E-01
RMM:   5    -0.399615857716E+02    0.29928E-03   -0.39100E-03  7457   0.431E-01
   2 F= -.39961586E+02 E0= -.39961586E+02  d E =-.392682E-01  mag=    -0.0000
 trial-energy change:   -0.039268  1 .order   -0.046917   -0.057054   -0.036780
 step:   2.8142(harm=  2.8142)  dis= 0.02141  next Energy=   -40.002598 (dE=-0.803E-01)
 bond charge predicted
       N       E                     dE             d eps       ncg     rms          rms(c)
DAV:   1    -0.403975815155E+02   -0.43570E+00   -0.80702E+00  7456   0.191E+01    0.743E+00
RMM:   2    -0.400408784901E+02    0.35670E+00   -0.83206E-01  7680   0.500E+00    0.187E+00
RMM:   3    -0.399680560719E+02    0.72822E-01   -0.74167E-02  7755   0.221E+00    0.164E+00
RMM:   4    -0.399563244596E+02    0.11732E-01   -0.23462E-02  8127   0.104E+00    0.159E+00
RMM:   5    -0.399552809202E+02    0.10435E-02   -0.17740E-02  8813   0.860E-01    0.451E-01
RMM:   6    -0.399568179649E+02   -0.15370E-02   -0.13128E-02  8371   0.430E-01    0.119E-01
RMM:   7    -0.399571564761E+02   -0.33851E-03   -0.26658E-03  7442   0.341E-01
   3 F= -.39957156E+02 E0= -.39957156E+02  d E =-.348389E-01  mag=    -0.0000
 curvature:  -1.41 expect dE=-0.561E-01 dE for cont linesearch -0.169E-01
 ZBRENT: interpolating
 opt :   2.0592  next Energy=   -39.967052 (dE=-0.447E-01)
 bond charge predicted
       N       E                     dE             d eps       ncg     rms          rms(c)
DAV:   1    -0.400443576611E+02   -0.87540E-01   -0.14193E+00 10240   0.778E+00    0.300E+00
RMM:   2    -0.399894195307E+02    0.54938E-01   -0.14658E-01  7755   0.212E+00    0.780E-01
RMM:   3    -0.399739332818E+02    0.15486E-01   -0.13234E-02  7952   0.948E-01    0.587E-01
RMM:   4    -0.399707188561E+02    0.32144E-02   -0.62659E-03  7701   0.547E-01    0.505E-01
RMM:   5    -0.399707442998E+02   -0.25444E-04   -0.24169E-03  7036   0.328E-01
   4 F= -.39970744E+02 E0= -.39970744E+02  d E =-.484267E-01  mag=     0.0000
 curvature:  -0.82 expect dE=-0.165E-01 dE for cont linesearch -0.246E-02
 trial: gam= 0.00000 g(F)=  0.158E-01 g(S)=  0.428E-02 ort =-0.131E-01 (trialstep = 0.121E+01)
 search vector abs. value=  0.200E-01
 bond charge predicted
       N       E                     dE             d eps       ncg     rms          rms(c)
DAV:   1    -0.399916553345E+02   -0.20936E-01   -0.11165E+00  9280   0.755E+00    0.177E+00
RMM:   2    -0.399853526380E+02    0.63027E-02   -0.50344E-02  8114   0.117E+00    0.565E-01
RMM:   3    -0.399814898343E+02    0.38628E-02   -0.55485E-03  7945   0.543E-01    0.343E-01
RMM:   4    -0.399817023813E+02   -0.21255E-03   -0.33708E-03  6785   0.294E-01
   5 F= -.39981702E+02 E0= -.39981702E+02  d E =-.109581E-01  mag=     0.0000
 trial-energy change:   -0.010958  1 .order   -0.014440   -0.024282   -0.004599
 step:   1.4950(harm=  1.4950)  dis= 0.01344  next Energy=   -39.985722 (dE=-0.150E-01)
 bond charge predicted
       N       E                     dE             d eps       ncg     rms          rms(c)
DAV:   1    -0.399822730158E+02   -0.78318E-03   -0.61214E-02 12144   0.182E+00    0.447E-01
RMM:   2    -0.399821788314E+02    0.94184E-04   -0.27859E-03  7257   0.300E-01
   6 F= -.39982179E+02 E0= -.39982179E+02  d E =-.114345E-01  mag=    -0.0000
 curvature:  -0.75 expect dE=-0.527E-02 dE for cont linesearch -0.223E-04
 trial: gam= 0.31339 g(F)=  0.551E-02 g(S)=  0.155E-02 ort = 0.773E-03 (trialstep = 0.127E+01)
 search vector abs. value=  0.951E-02
 bond charge predicted
       N       E                     dE             d eps       ncg     rms          rms(c)
DAV:   1    -0.399871659241E+02   -0.48929E-02   -0.82247E-01  9280   0.667E+00    0.402E-01
RMM:   2    -0.399867726899E+02    0.39323E-03   -0.37473E-02  7582   0.935E-01    0.332E-01
RMM:   3    -0.399865324303E+02    0.24026E-03   -0.19115E-03  6586   0.520E-01
   7 F= -.39986532E+02 E0= -.39986532E+02  d E =-.435360E-02  mag=    -0.0000
 trial-energy change:   -0.004354  1 .order   -0.005908   -0.009253   -0.002562
 step:   1.7542(harm=  1.7542)  dis= 0.01483  next Energy=   -39.988577 (dE=-0.640E-02)
 bond charge predicted
       N       E                     dE             d eps       ncg     rms          rms(c)
DAV:   1    -0.399869144188E+02   -0.14173E-03   -0.12043E-01 10816   0.255E+00    0.284E-01
RMM:   2    -0.399862177142E+02    0.69670E-03   -0.58778E-03  7464   0.372E-01    0.131E-01
RMM:   3    -0.399863294990E+02   -0.11178E-03   -0.30617E-04  4444   0.210E-01
   8 F= -.39986329E+02 E0= -.39986329E+02  d E =-.415067E-02  mag=    -0.0000
 curvature:  -1.14 expect dE=-0.202E-01 dE for cont linesearch -0.493E-05
 trial: gam= 2.43226 g(F)=  0.762E-02 g(S)=  0.100E-01 ort =-0.203E-03 (trialstep = 0.178E+00)
 search vector abs. value=  0.729E-01
 reached required accuracy - stopping structural energy minimisation
