   8   8   1   0
  0.8277220E+01  0.3435546E-09  0.3435996E-09  0.5609636E-09  0.5000000E-15
  1.000000000000000E-004
  CAR 
 unknown system                          
     23.55173768    -35.02037239  301      3.43869569      1.00000000
    -35.020  0.0000E+00  0.0000E+00  0.0000E+00  0.0000E+00
    -34.825  0.0000E+00  0.0000E+00  0.0000E+00  0.0000E+00
    -34.630  0.0000E+00  0.0000E+00  0.0000E+00  0.0000E+00
    -34.435  0.0000E+00  0.0000E+00  0.0000E+00  0.0000E+00
    -34.239  0.0000E+00  0.0000E+00  0.0000E+00  0.0000E+00
    -34.044  0.0000E+00  0.0000E+00  0.0000E+00  0.0000E+00
    -33.849  0.0000E+00  0.0000E+00  0.0000E+00  0.0000E+00
    -33.654  0.0000E+00  0.0000E+00  0.0000E+00  0.0000E+00
    -33.458  0.0000E+00  0.0000E+00  0.0000E+00  0.0000E+00
    -33.263  0.0000E+00  0.0000E+00  0.0000E+00  0.0000E+00
    -33.068  0.0000E+00  0.0000E+00  0.0000E+00  0.0000E+00
    -32.873  0.0000E+00  0.0000E+00  0.0000E+00  0.0000E+00
    -32.677  0.0000E+00  0.0000E+00  0.0000E+00  0.0000E+00
    -32.482  0.0000E+00  0.0000E+00  0.0000E+00  0.0000E+00
    -32.287  0.1046E+00  0.1046E+00  0.6919E-02  0.6919E-02
    -32.092  0.0000E+00  0.0000E+00  0.1010E-01  0.1010E-01
    -31.897  0.0000E+00  0.0000E+00  0.1010E-01  0.1010E-01
    -31.701  0.0000E+00  0.0000E+00  0.1010E-01  0.1010E-01
    -31.506  0.0000E+00  0.0000E+00  0.1010E-01  0.1010E-01
    -31.311  0.0000E+00  0.0000E+00  0.1010E-01  0.1010E-01
    -31.116  0.0000E+00  0.0000E+00  0.1010E-01  0.1010E-01
    -30.920  0.0000E+00  0.0000E+00  0.1010E-01  0.1010E-01
    -30.725  0.0000E+00  0.0000E+00  0.1010E-01  0.1010E-01
    -30.530  0.0000E+00  0.0000E+00  0.1010E-01  0.1010E-01
    -30.335  0.0000E+00  0.0000E+00  0.1010E-01  0.1010E-01
    -30.139  0.0000E+00  0.0000E+00  0.1010E-01  0.1010E-01
    -29.944  0.0000E+00  0.0000E+00  0.1010E-01  0.1010E-01
    -29.749  0.0000E+00  0.0000E+00  0.1010E-01  0.1010E-01
    -29.554  0.0000E+00  0.0000E+00  0.1010E-01  0.1010E-01
    -29.358  0.0000E+00  0.0000E+00  0.1010E-01  0.1010E-01
    -29.163  0.0000E+00  0.0000E+00  0.1010E-01  0.1010E-01
    -28.968  0.0000E+00  0.0000E+00  0.1010E-01  0.1010E-01
    -28.773  0.0000E+00  0.0000E+00  0.1010E-01  0.1010E-01
    -28.577  0.0000E+00  0.0000E+00  0.1010E-01  0.1010E-01
    -28.382  0.0000E+00  0.0000E+00  0.1010E-01  0.1010E-01
    -28.187  0.0000E+00  0.0000E+00  0.1010E-01  0.1010E-01
    -27.992  0.9379E-01  0.9379E-01  0.1810E-01  0.1810E-01
    -27.796  0.0000E+00  0.0000E+00  0.4040E-01  0.4040E-01
    -27.601  0.0000E+00  0.0000E+00  0.4040E-01  0.4040E-01
    -27.406  0.0000E+00  0.0000E+00  0.4040E-01  0.4040E-01
    -27.211  0.0000E+00  0.0000E+00  0.4040E-01  0.4040E-01
    -27.016  0.0000E+00  0.0000E+00  0.4040E-01  0.4040E-01
    -26.820  0.0000E+00  0.0000E+00  0.4040E-01  0.4040E-01
    -26.625  0.0000E+00  0.0000E+00  0.4040E-01  0.4040E-01
    -26.430  0.0000E+00  0.0000E+00  0.4040E-01  0.4040E-01
    -26.235  0.0000E+00  0.0000E+00  0.4040E-01  0.4040E-01
    -26.039  0.0000E+00  0.0000E+00  0.4040E-01  0.4040E-01
    -25.844  0.0000E+00  0.0000E+00  0.4040E-01  0.4040E-01
    -25.649  0.0000E+00  0.0000E+00  0.4040E-01  0.4040E-01
    -25.454  0.0000E+00  0.0000E+00  0.4040E-01  0.4040E-01
    -25.258  0.0000E+00  0.0000E+00  0.4040E-01  0.4040E-01
    -25.063  0.0000E+00  0.0000E+00  0.4040E-01  0.4040E-01
    -24.868  0.0000E+00  0.0000E+00  0.4040E-01  0.4040E-01
    -24.673  0.0000E+00  0.0000E+00  0.4040E-01  0.4040E-01
    -24.477  0.0000E+00  0.0000E+00  0.4040E-01  0.4040E-01
    -24.282  0.0000E+00  0.0000E+00  0.4040E-01  0.4040E-01
    -24.087  0.0000E+00  0.0000E+00  0.4040E-01  0.4040E-01
    -23.892  0.0000E+00  0.0000E+00  0.4040E-01  0.4040E-01
    -23.696  0.0000E+00  0.0000E+00  0.4040E-01  0.4040E-01
    -23.501  0.0000E+00  0.0000E+00  0.4040E-01  0.4040E-01
    -23.306  0.0000E+00  0.0000E+00  0.4040E-01  0.4040E-01
    -23.111  0.0000E+00  0.0000E+00  0.4040E-01  0.4040E-01
    -22.915  0.0000E+00  0.0000E+00  0.4040E-01  0.4040E-01
    -22.720  0.0000E+00  0.0000E+00  0.4040E-01  0.4040E-01
    -22.525  0.0000E+00  0.0000E+00  0.4040E-01  0.4040E-01
    -22.330  0.0000E+00  0.0000E+00  0.4040E-01  0.4040E-01
    -22.135  0.0000E+00  0.0000E+00  0.4040E-01  0.4040E-01
    -21.939  0.0000E+00  0.0000E+00  0.4040E-01  0.4040E-01
    -21.744  0.0000E+00  0.0000E+00  0.4040E-01  0.4040E-01
    -21.549  0.0000E+00  0.0000E+00  0.4040E-01  0.4040E-01
    -21.354  0.0000E+00  0.0000E+00  0.4040E-01  0.4040E-01
    -21.158  0.0000E+00  0.0000E+00  0.4040E-01  0.4040E-01
    -20.963  0.0000E+00  0.0000E+00  0.4040E-01  0.4040E-01
    -20.768  0.0000E+00  0.0000E+00  0.4040E-01  0.4040E-01
    -20.573  0.0000E+00  0.0000E+00  0.4040E-01  0.4040E-01
    -20.377  0.0000E+00  0.0000E+00  0.4040E-01  0.4040E-01
    -20.182  0.0000E+00  0.0000E+00  0.4040E-01  0.4040E-01
    -19.987  0.0000E+00  0.0000E+00  0.4040E-01  0.4040E-01
    -19.792  0.0000E+00  0.0000E+00  0.4040E-01  0.4040E-01
    -19.596  0.0000E+00  0.0000E+00  0.4040E-01  0.4040E-01
    -19.401  0.0000E+00  0.0000E+00  0.4040E-01  0.4040E-01
    -19.206  0.0000E+00  0.0000E+00  0.4040E-01  0.4040E-01
    -19.011  0.0000E+00  0.0000E+00  0.4040E-01  0.4040E-01
    -18.815  0.0000E+00  0.0000E+00  0.4040E-01  0.4040E-01
    -18.620  0.0000E+00  0.0000E+00  0.4040E-01  0.4040E-01
    -18.425  0.0000E+00  0.0000E+00  0.4040E-01  0.4040E-01
    -18.230  0.0000E+00  0.0000E+00  0.4040E-01  0.4040E-01
    -18.034  0.0000E+00  0.0000E+00  0.4040E-01  0.4040E-01
    -17.839  0.0000E+00  0.0000E+00  0.4040E-01  0.4040E-01
    -17.644  0.0000E+00  0.0000E+00  0.4040E-01  0.4040E-01
    -17.449  0.0000E+00  0.0000E+00  0.4040E-01  0.4040E-01
    -17.253  0.0000E+00  0.0000E+00  0.4040E-01  0.4040E-01
    -17.058  0.0000E+00  0.0000E+00  0.4040E-01  0.4040E-01
    -16.863  0.0000E+00  0.0000E+00  0.4040E-01  0.4040E-01
    -16.668  0.0000E+00  0.0000E+00  0.4040E-01  0.4040E-01
    -16.473  0.0000E+00  0.0000E+00  0.4040E-01  0.4040E-01
    -16.277  0.0000E+00  0.0000E+00  0.4040E-01  0.4040E-01
    -16.082  0.0000E+00  0.0000E+00  0.4040E-01  0.4040E-01
    -15.887  0.0000E+00  0.0000E+00  0.4040E-01  0.4040E-01
    -15.692  0.0000E+00  0.0000E+00  0.4040E-01  0.4040E-01
    -15.496  0.0000E+00  0.0000E+00  0.4040E-01  0.4040E-01
    -15.301  0.0000E+00  0.0000E+00  0.4040E-01  0.4040E-01
    -15.106  0.0000E+00  0.0000E+00  0.4040E-01  0.4040E-01
    -14.911  0.0000E+00  0.0000E+00  0.4040E-01  0.4040E-01
    -14.715  0.2437E-01  0.2437E-01  0.4514E-01  0.4514E-01
    -14.520  0.2934E-01  0.2934E-01  0.4996E-01  0.4996E-01
    -14.325  0.2931E-01  0.2931E-01  0.5485E-01  0.5485E-01
    -14.130  0.2214E-01  0.2214E-01  0.7028E-01  0.7028E-01
    -13.934  0.0000E+00  0.0000E+00  0.7071E-01  0.7071E-01
    -13.739  0.0000E+00  0.0000E+00  0.7071E-01  0.7071E-01
    -13.544  0.0000E+00  0.0000E+00  0.7071E-01  0.7071E-01
    -13.349  0.0000E+00  0.0000E+00  0.7071E-01  0.7071E-01
    -13.153  0.0000E+00  0.0000E+00  0.7071E-01  0.7071E-01
    -12.958  0.0000E+00  0.0000E+00  0.7071E-01  0.7071E-01
    -12.763  0.0000E+00  0.0000E+00  0.7071E-01  0.7071E-01
    -12.568  0.0000E+00  0.0000E+00  0.7071E-01  0.7071E-01
    -12.372  0.0000E+00  0.0000E+00  0.7071E-01  0.7071E-01
    -12.177  0.0000E+00  0.0000E+00  0.7071E-01  0.7071E-01
    -11.982  0.0000E+00  0.0000E+00  0.7071E-01  0.7071E-01
    -11.787  0.0000E+00  0.0000E+00  0.7071E-01  0.7071E-01
    -11.592  0.0000E+00  0.0000E+00  0.7071E-01  0.7071E-01
    -11.396  0.0000E+00  0.0000E+00  0.7071E-01  0.7071E-01
    -11.201  0.0000E+00  0.0000E+00  0.7071E-01  0.7071E-01
    -11.006  0.0000E+00  0.0000E+00  0.7071E-01  0.7071E-01
    -10.811  0.0000E+00  0.0000E+00  0.7071E-01  0.7071E-01
    -10.615  0.0000E+00  0.0000E+00  0.7071E-01  0.7071E-01
    -10.420  0.0000E+00  0.0000E+00  0.7071E-01  0.7071E-01
    -10.225  0.0000E+00  0.0000E+00  0.7071E-01  0.7071E-01
    -10.030  0.0000E+00  0.0000E+00  0.7071E-01  0.7071E-01
     -9.834  0.0000E+00  0.0000E+00  0.7071E-01  0.7071E-01
     -9.639  0.0000E+00  0.0000E+00  0.7071E-01  0.7071E-01
     -9.444  0.0000E+00  0.0000E+00  0.7071E-01  0.7071E-01
     -9.249  0.0000E+00  0.0000E+00  0.7071E-01  0.7071E-01
     -9.053  0.0000E+00  0.0000E+00  0.7071E-01  0.7071E-01
     -8.858  0.0000E+00  0.0000E+00  0.7071E-01  0.7071E-01
     -8.663  0.0000E+00  0.0000E+00  0.7071E-01  0.7071E-01
     -8.468  0.0000E+00  0.0000E+00  0.7071E-01  0.7071E-01
     -8.272  0.0000E+00  0.0000E+00  0.7071E-01  0.7071E-01
     -8.077  0.0000E+00  0.0000E+00  0.7071E-01  0.7071E-01
     -7.882  0.0000E+00  0.0000E+00  0.7071E-01  0.7071E-01
     -7.687  0.0000E+00  0.0000E+00  0.7071E-01  0.7071E-01
     -7.491  0.0000E+00  0.0000E+00  0.7071E-01  0.7071E-01
     -7.296  0.0000E+00  0.0000E+00  0.7071E-01  0.7071E-01
     -7.101  0.0000E+00  0.0000E+00  0.7071E-01  0.7071E-01
     -6.906  0.0000E+00  0.0000E+00  0.7071E-01  0.7071E-01
     -6.711  0.0000E+00  0.0000E+00  0.7071E-01  0.7071E-01
     -6.515  0.0000E+00  0.0000E+00  0.7071E-01  0.7071E-01
     -6.320  0.0000E+00  0.0000E+00  0.7071E-01  0.7071E-01
     -6.125  0.0000E+00  0.0000E+00  0.7071E-01  0.7071E-01
     -5.930  0.0000E+00  0.0000E+00  0.7071E-01  0.7071E-01
     -5.734  0.2022E-03  0.2022E-03  0.7072E-01  0.7072E-01
     -5.539  0.8696E-03  0.8696E-03  0.7082E-01  0.7082E-01
     -5.344  0.1480E-02  0.1480E-02  0.7105E-01  0.7105E-01
     -5.149  0.1815E-02  0.1815E-02  0.7137E-01  0.7137E-01
     -4.953  0.2388E-02  0.2388E-02  0.7178E-01  0.7178E-01
     -4.758  0.3095E-02  0.3095E-02  0.7231E-01  0.7231E-01
     -4.563  0.3579E-02  0.3579E-02  0.7297E-01  0.7297E-01
     -4.368  0.4230E-02  0.4230E-02  0.7373E-01  0.7373E-01
     -4.172  0.4759E-02  0.4759E-02  0.7461E-01  0.7461E-01
     -3.977  0.8077E-02  0.8077E-02  0.7578E-01  0.7578E-01
     -3.782  0.5890E-02  0.5890E-02  0.7719E-01  0.7719E-01
     -3.587  0.4537E-02  0.4537E-02  0.7814E-01  0.7814E-01
     -3.391  0.4544E-02  0.4544E-02  0.7901E-01  0.7901E-01
     -3.196  0.5159E-02  0.5159E-02  0.7998E-01  0.7998E-01
     -3.001  0.4889E-02  0.4889E-02  0.8096E-01  0.8096E-01
     -2.806  0.4617E-02  0.4617E-02  0.8189E-01  0.8189E-01
     -2.610  0.5471E-02  0.5471E-02  0.8287E-01  0.8287E-01
     -2.415  0.9220E-02  0.9220E-02  0.8419E-01  0.8419E-01
     -2.220  0.1056E-01  0.1056E-01  0.8625E-01  0.8625E-01
     -2.025  0.1588E-01  0.1588E-01  0.8876E-01  0.8876E-01
     -1.830  0.1911E-01  0.1911E-01  0.9214E-01  0.9214E-01
     -1.634  0.2084E-01  0.2084E-01  0.9611E-01  0.9611E-01
     -1.439  0.2012E-01  0.2012E-01  0.1004E+00  0.1004E+00
     -1.244  0.2204E-01  0.2204E-01  0.1043E+00  0.1043E+00
     -1.049  0.1624E-01  0.1624E-01  0.1076E+00  0.1076E+00
     -0.853  0.1369E-01  0.1369E-01  0.1105E+00  0.1105E+00
     -0.658  0.1021E-01  0.1021E-01  0.1128E+00  0.1128E+00
     -0.463  0.9248E-02  0.9248E-02  0.1146E+00  0.1146E+00
     -0.268  0.9510E-02  0.9510E-02  0.1165E+00  0.1165E+00
     -0.072  0.8501E-02  0.8501E-02  0.1182E+00  0.1182E+00
      0.123  0.3471E-02  0.3471E-02  0.1191E+00  0.1191E+00
      0.318  0.3515E-02  0.3515E-02  0.1198E+00  0.1198E+00
      0.513  0.3527E-02  0.3527E-02  0.1205E+00  0.1205E+00
      0.709  0.3881E-02  0.3881E-02  0.1212E+00  0.1212E+00
      0.904  0.4008E-02  0.4008E-02  0.1220E+00  0.1220E+00
      1.099  0.4514E-02  0.4514E-02  0.1228E+00  0.1228E+00
      1.294  0.4826E-02  0.4826E-02  0.1237E+00  0.1237E+00
      1.490  0.5039E-02  0.5039E-02  0.1247E+00  0.1247E+00
      1.685  0.7508E-02  0.7508E-02  0.1259E+00  0.1259E+00
      1.880  0.7594E-02  0.7594E-02  0.1274E+00  0.1274E+00
      2.075  0.8158E-02  0.8158E-02  0.1289E+00  0.1289E+00
      2.271  0.7696E-02  0.7696E-02  0.1305E+00  0.1305E+00
      2.466  0.6864E-02  0.6864E-02  0.1320E+00  0.1320E+00
      2.661  0.5837E-02  0.5837E-02  0.1332E+00  0.1332E+00
      2.856  0.3935E-02  0.3935E-02  0.1342E+00  0.1342E+00
      3.051  0.3215E-02  0.3215E-02  0.1348E+00  0.1348E+00
      3.247  0.4075E-02  0.4075E-02  0.1355E+00  0.1355E+00
      3.442  0.4852E-02  0.4852E-02  0.1364E+00  0.1364E+00
      3.637  0.5782E-02  0.5782E-02  0.1374E+00  0.1374E+00
      3.832  0.5167E-02  0.5167E-02  0.1386E+00  0.1386E+00
      4.028  0.6822E-02  0.6822E-02  0.1396E+00  0.1396E+00
      4.223  0.4903E-02  0.4903E-02  0.1409E+00  0.1409E+00
      4.418  0.3912E-02  0.3912E-02  0.1415E+00  0.1415E+00
      4.613  0.7853E-02  0.7853E-02  0.1428E+00  0.1428E+00
      4.809  0.9113E-02  0.9113E-02  0.1446E+00  0.1446E+00
      5.004  0.1289E-01  0.1289E-01  0.1470E+00  0.1470E+00
      5.199  0.1337E-01  0.1337E-01  0.1492E+00  0.1492E+00
      5.394  0.2504E-01  0.2504E-01  0.1533E+00  0.1533E+00
      5.590  0.9319E-02  0.9319E-02  0.1557E+00  0.1557E+00
      5.785  0.8750E-02  0.8750E-02  0.1582E+00  0.1582E+00
      5.980  0.8782E-02  0.8782E-02  0.1597E+00  0.1597E+00
      6.175  0.1251E-01  0.1251E-01  0.1618E+00  0.1618E+00
      6.371  0.1370E-01  0.1370E-01  0.1641E+00  0.1641E+00
      6.566  0.1402E-01  0.1402E-01  0.1669E+00  0.1669E+00
      6.761  0.8585E-02  0.8585E-02  0.1691E+00  0.1691E+00
      6.956  0.1238E-01  0.1238E-01  0.1709E+00  0.1709E+00
      7.152  0.2036E-01  0.2036E-01  0.1741E+00  0.1741E+00
      7.347  0.1369E-01  0.1369E-01  0.1777E+00  0.1777E+00
      7.542  0.1261E-01  0.1261E-01  0.1806E+00  0.1806E+00
      7.737  0.1989E-01  0.1989E-01  0.1830E+00  0.1830E+00
      7.933  0.1825E-01  0.1825E-01  0.1877E+00  0.1877E+00
      8.128  0.1265E-01  0.1265E-01  0.1906E+00  0.1906E+00
      8.323  0.1819E-01  0.1819E-01  0.1938E+00  0.1938E+00
      8.518  0.2116E-01  0.2116E-01  0.1976E+00  0.1976E+00
      8.713  0.1206E-01  0.1206E-01  0.2012E+00  0.2012E+00
      8.909  0.1291E-01  0.1291E-01  0.2033E+00  0.2033E+00
      9.104  0.2860E-01  0.2860E-01  0.2074E+00  0.2074E+00
      9.299  0.8308E-02  0.8308E-02  0.2113E+00  0.2113E+00
      9.494  0.1549E-01  0.1549E-01  0.2134E+00  0.2134E+00
      9.690  0.1736E-01  0.1736E-01  0.2171E+00  0.2171E+00
      9.885  0.1450E-01  0.1450E-01  0.2204E+00  0.2204E+00
     10.080  0.1341E-01  0.1341E-01  0.2229E+00  0.2229E+00
     10.275  0.1422E-01  0.1422E-01  0.2255E+00  0.2255E+00
     10.471  0.2210E-01  0.2210E-01  0.2288E+00  0.2288E+00
     10.666  0.1695E-01  0.1695E-01  0.2332E+00  0.2332E+00
     10.861  0.1290E-01  0.1290E-01  0.2362E+00  0.2362E+00
     11.056  0.1065E-01  0.1065E-01  0.2385E+00  0.2385E+00
     11.252  0.1014E-01  0.1014E-01  0.2406E+00  0.2406E+00
     11.447  0.5961E-02  0.5961E-02  0.2418E+00  0.2418E+00
     11.642  0.1117E-01  0.1117E-01  0.2432E+00  0.2432E+00
     11.837  0.1008E-01  0.1008E-01  0.2453E+00  0.2453E+00
     12.033  0.1082E-01  0.1082E-01  0.2473E+00  0.2473E+00
     12.228  0.1627E-01  0.1627E-01  0.2496E+00  0.2496E+00
     12.423  0.7403E-02  0.7403E-02  0.2516E+00  0.2516E+00
     12.618  0.7532E-02  0.7532E-02  0.2530E+00  0.2530E+00
     12.814  0.1818E-01  0.1818E-01  0.2550E+00  0.2550E+00
     13.009  0.1756E-01  0.1756E-01  0.2586E+00  0.2586E+00
     13.204  0.1418E-01  0.1418E-01  0.2617E+00  0.2617E+00
     13.399  0.4319E-02  0.4319E-02  0.2632E+00  0.2632E+00
     13.594  0.3712E-02  0.3712E-02  0.2640E+00  0.2640E+00
     13.790  0.8195E-02  0.8195E-02  0.2651E+00  0.2651E+00
     13.985  0.8626E-02  0.8626E-02  0.2667E+00  0.2667E+00
     14.180  0.1231E-01  0.1231E-01  0.2689E+00  0.2689E+00
     14.375  0.1156E-01  0.1156E-01  0.2712E+00  0.2712E+00
     14.571  0.9001E-02  0.9001E-02  0.2733E+00  0.2733E+00
     14.766  0.9856E-02  0.9856E-02  0.2750E+00  0.2750E+00
     14.961  0.1058E-01  0.1058E-01  0.2770E+00  0.2770E+00
     15.156  0.9884E-02  0.9884E-02  0.2791E+00  0.2791E+00
     15.352  0.7825E-02  0.7825E-02  0.2807E+00  0.2807E+00
     15.547  0.5273E-02  0.5273E-02  0.2821E+00  0.2821E+00
     15.742  0.3688E-02  0.3688E-02  0.2829E+00  0.2829E+00
     15.937  0.3779E-02  0.3779E-02  0.2836E+00  0.2836E+00
     16.133  0.6684E-02  0.6684E-02  0.2846E+00  0.2846E+00
     16.328  0.1110E-01  0.1110E-01  0.2863E+00  0.2863E+00
     16.523  0.8974E-02  0.8974E-02  0.2883E+00  0.2883E+00
     16.718  0.1049E-01  0.1049E-01  0.2901E+00  0.2901E+00
     16.914  0.1140E-01  0.1140E-01  0.2924E+00  0.2924E+00
     17.109  0.1020E-01  0.1020E-01  0.2945E+00  0.2945E+00
     17.304  0.1039E-01  0.1039E-01  0.2965E+00  0.2965E+00
     17.499  0.1281E-01  0.1281E-01  0.2988E+00  0.2988E+00
     17.695  0.8089E-02  0.8089E-02  0.3008E+00  0.3008E+00
     17.890  0.3430E-02  0.3430E-02  0.3022E+00  0.3022E+00
     18.085  0.3365E-02  0.3365E-02  0.3028E+00  0.3028E+00
     18.280  0.4472E-02  0.4472E-02  0.3036E+00  0.3036E+00
     18.475  0.1124E-01  0.1124E-01  0.3051E+00  0.3051E+00
     18.671  0.1268E-01  0.1268E-01  0.3074E+00  0.3074E+00
     18.866  0.1296E-01  0.1296E-01  0.3099E+00  0.3099E+00
     19.061  0.1145E-01  0.1145E-01  0.3122E+00  0.3122E+00
     19.256  0.1760E-01  0.1760E-01  0.3151E+00  0.3151E+00
     19.452  0.1207E-01  0.1207E-01  0.3179E+00  0.3179E+00
     19.647  0.9105E-02  0.9106E-02  0.3199E+00  0.3199E+00
     19.842  0.6529E-02  0.6527E-02  0.3217E+00  0.3217E+00
     20.037  0.3379E-02  0.3379E-02  0.3227E+00  0.3227E+00
     20.233  0.8541E-03  0.8543E-03  0.3230E+00  0.3230E+00
     20.428  0.3966E-03  0.3967E-03  0.3231E+00  0.3231E+00
     20.623  0.1998E-03  0.1999E-03  0.3232E+00  0.3232E+00
     20.818  0.8727E-04  0.8726E-04  0.3232E+00  0.3232E+00
     21.014  0.0000E+00  0.0000E+00  0.3232E+00  0.3232E+00
     21.209  0.0000E+00  0.0000E+00  0.3232E+00  0.3232E+00
     21.404  0.0000E+00  0.0000E+00  0.3232E+00  0.3232E+00
     21.599  0.0000E+00  0.0000E+00  0.3232E+00  0.3232E+00
     21.795  0.0000E+00  0.0000E+00  0.3232E+00  0.3232E+00
     21.990  0.0000E+00  0.0000E+00  0.3232E+00  0.3232E+00
     22.185  0.0000E+00  0.0000E+00  0.3232E+00  0.3232E+00
     22.380  0.0000E+00  0.0000E+00  0.3232E+00  0.3232E+00
     22.576  0.0000E+00  0.0000E+00  0.3232E+00  0.3232E+00
     22.771  0.0000E+00  0.0000E+00  0.3232E+00  0.3232E+00
     22.966  0.0000E+00  0.0000E+00  0.3232E+00  0.3232E+00
     23.161  0.0000E+00  0.0000E+00  0.3232E+00  0.3232E+00
     23.356  0.0000E+00  0.0000E+00  0.3232E+00  0.3232E+00
     23.552  0.0000E+00  0.0000E+00  0.3232E+00  0.3232E+00
     23.55173768    -35.02037239  301      3.43869569      1.00000000
    -35.020  0.0000E+00  0.0000E+00  0.0000E+00  0.0000E+00  0.0000E+00  0.0000E+00  0.0000E+00  0.0000E+00  0.0000E+00  0.0000E+00  0.0000E+00  0.0000E+00  0.0000E+00  0.0000E+00  0.0000E+00  0.0000E+00  0.0000E+00  0.0000E+00
    -34.825  0.0000E+00  0.0000E+00  0.0000E+00  0.0000E+00  0.0000E+00  0.0000E+00  0.0000E+00  0.0000E+00  0.0000E+00  0.0000E+00  0.0000E+00  0.0000E+00  0.0000E+00  0.0000E+00  0.0000E+00  0.0000E+00  0.0000E+00  0.0000E+00
    -34.630  0.0000E+00  0.0000E+00  0.0000E+00  0.0000E+00  0.0000E+00  0.0000E+00  0.0000E+00  0.0000E+00  0.0000E+00  0.0000E+00  0.0000E+00  0.0000E+00  0.0000E+00  0.0000E+00  0.0000E+00  0.0000E+00  0.0000E+00  0.0000E+00
    -34.435  0.0000E+00  0.0000E+00  0.0000E+00  0.0000E+00  0.0000E+00  0.0000E+00  0.0000E+00  0.0000E+00  0.0000E+00  0.0000E+00  0.0000E+00  0.0000E+00  0.0000E+00  0.0000E+00  0.0000E+00  0.0000E+00  0.0000E+00  0.0000E+00
    -34.239  0.0000E+00  0.0000E+00  0.0000E+00  0.0000E+00  0.0000E+00  0.0000E+00  0.0000E+00  0.0000E+00  0.0000E+00  0.0000E+00  0.0000E+00  0.0000E+00  0.0000E+00  0.0000E+00  0.0000E+00  0.0000E+00  0.0000E+00  0.0000E+00
    -34.044  0.0000E+00  0.0000E+00  0.0000E+00  0.0000E+00  0.0000E+00  0.0000E+00  0.0000E+00  0.0000E+00  0.0000E+00  0.0000E+00  0.0000E+00  0.0000E+00  0.0000E+00  0.0000E+00  0.0000E+00  0.0000E+00  0.0000E+00  0.0000E+00
    -33.849  0.0000E+00  0.0000E+00  0.0000E+00  0.0000E+00  0.0000E+00  0.0000E+00  0.0000E+00  0.0000E+00  0.0000E+00  0.0000E+00  0.0000E+00  0.0000E+00  0.0000E+00  0.0000E+00  0.0000E+00  0.0000E+00  0.0000E+00  0.0000E+00
    -33.654  0.0000E+00  0.0000E+00  0.0000E+00  0.0000E+00  0.0000E+00  0.0000E+00  0.0000E+00  0.0000E+00  0.0000E+00  0.0000E+00  0.0000E+00  0.0000E+00  0.0000E+00  0.0000E+00  0.0000E+00  0.0000E+00  0.0000E+00  0.0000E+00
    -33.458  0.0000E+00  0.0000E+00  0.0000E+00  0.0000E+00  0.0000E+00  0.0000E+00  0.0000E+00  0.0000E+00  0.0000E+00  0.0000E+00  0.0000E+00  0.0000E+00  0.0000E+00  0.0000E+00  0.0000E+00  0.0000E+00  0.0000E+00  0.0000E+00
    -33.263  0.0000E+00  0.0000E+00  0.0000E+00  0.0000E+00  0.0000E+00  0.0000E+00  0.0000E+00  0.0000E+00  0.0000E+00  0.0000E+00  0.0000E+00  0.0000E+00  0.0000E+00  0.0000E+00  0.0000E+00  0.0000E+00  0.0000E+00  0.0000E+00
    -33.068  0.0000E+00  0.0000E+00  0.0000E+00  0.0000E+00  0.0000E+00  0.0000E+00  0.0000E+00  0.0000E+00  0.0000E+00  0.0000E+00  0.0000E+00  0.0000E+00  0.0000E+00  0.0000E+00  0.0000E+00  0.0000E+00  0.0000E+00  0.0000E+00
    -32.873  0.0000E+00  0.0000E+00  0.0000E+00  0.0000E+00  0.0000E+00  0.0000E+00  0.0000E+00  0.0000E+00  0.0000E+00  0.0000E+00  0.0000E+00  0.0000E+00  0.0000E+00  0.0000E+00  0.0000E+00  0.0000E+00  0.0000E+00  0.0000E+00
    -32.677  0.0000E+00  0.0000E+00  0.0000E+00  0.0000E+00  0.0000E+00  0.0000E+00  0.0000E+00  0.0000E+00  0.0000E+00  0.0000E+00  0.0000E+00  0.0000E+00  0.0000E+00  0.0000E+00  0.0000E+00  0.0000E+00  0.0000E+00  0.0000E+00
    -32.482  0.0000E+00  0.0000E+00  0.0000E+00  0.0000E+00  0.0000E+00  0.0000E+00  0.0000E+00  0.0000E+00  0.0000E+00  0.0000E+00  0.0000E+00  0.0000E+00  0.0000E+00  0.0000E+00  0.0000E+00  0.0000E+00  0.0000E+00  0.0000E+00
    -32.287  0.1013E+02  0.1013E+02  0.6519E-04  0.6519E-04  0.3255E-08  0.3254E-08  0.6518E-04  0.6518E-04  0.2463E-06  0.2463E-06  0.2774E-09  0.2773E-09  0.7382E-04  0.7382E-04  0.6860E-08  0.6862E-08  0.3754E-04  0.3754E-04
    -32.092  0.0000E+00  0.0000E+00  0.0000E+00  0.0000E+00  0.0000E+00  0.0000E+00  0.0000E+00  0.0000E+00  0.0000E+00  0.0000E+00  0.0000E+00  0.0000E+00  0.0000E+00  0.0000E+00  0.0000E+00  0.0000E+00  0.0000E+00  0.0000E+00
    -31.897  0.0000E+00  0.0000E+00  0.0000E+00  0.0000E+00  0.0000E+00  0.0000E+00  0.0000E+00  0.0000E+00  0.0000E+00  0.0000E+00  0.0000E+00  0.0000E+00  0.0000E+00  0.0000E+00  0.0000E+00  0.0000E+00  0.0000E+00  0.0000E+00
    -31.701  0.0000E+00  0.0000E+00  0.0000E+00  0.0000E+00  0.0000E+00  0.0000E+00  0.0000E+00  0.0000E+00  0.0000E+00  0.0000E+00  0.0000E+00  0.0000E+00  0.0000E+00  0.0000E+00  0.0000E+00  0.0000E+00  0.0000E+00  0.0000E+00
    -31.506  0.0000E+00  0.0000E+00  0.0000E+00  0.0000E+00  0.0000E+00  0.0000E+00  0.0000E+00  0.0000E+00  0.0000E+00  0.0000E+00  0.0000E+00  0.0000E+00  0.0000E+00  0.0000E+00  0.0000E+00  0.0000E+00  0.0000E+00  0.0000E+00
    -31.311  0.0000E+00  0.0000E+00  0.0000E+00  0.0000E+00  0.0000E+00  0.0000E+00  0.0000E+00  0.0000E+00  0.0000E+00  0.0000E+00  0.0000E+00  0.0000E+00  0.0000E+00  0.0000E+00  0.0000E+00  0.0000E+00  0.0000E+00  0.0000E+00
    -31.116  0.0000E+00  0.0000E+00  0.0000E+00  0.0000E+00  0.0000E+00  0.0000E+00  0.0000E+00  0.0000E+00  0.0000E+00  0.0000E+00  0.0000E+00  0.0000E+00  0.0000E+00  0.0000E+00  0.0000E+00  0.0000E+00  0.0000E+00  0.0000E+00
    -30.920  0.0000E+00  0.0000E+00  0.0000E+00  0.0000E+00  0.0000E+00  0.0000E+00  0.0000E+00  0.0000E+00  0.0000E+00  0.0000E+00  0.0000E+00  0.0000E+00  0.0000E+00  0.0000E+00  0.0000E+00  0.0000E+00  0.0000E+00  0.0000E+00
    -30.725  0.0000E+00  0.0000E+00  0.0000E+00  0.0000E+00  0.0000E+00  0.0000E+00  0.0000E+00  0.0000E+00  0.0000E+00  0.0000E+00  0.0000E+00  0.0000E+00  0.0000E+00  0.0000E+00  0.0000E+00  0.0000E+00  0.0000E+00  0.0000E+00
    -30.530  0.0000E+00  0.0000E+00  0.0000E+00  0.0000E+00  0.0000E+00  0.0000E+00  0.0000E+00  0.0000E+00  0.0000E+00  0.0000E+00  0.0000E+00  0.0000E+00  0.0000E+00  0.0000E+00  0.0000E+00  0.0000E+00  0.0000E+00  0.0000E+00
    -30.335  0.0000E+00  0.0000E+00  0.0000E+00  0.0000E+00  0.0000E+00  0.0000E+00  0.0000E+00  0.0000E+00  0.0000E+00  0.0000E+00  0.0000E+00  0.0000E+00  0.0000E+00  0.0000E+00  0.0000E+00  0.0000E+00  0.0000E+00  0.0000E+00
    -30.139  0.0000E+00  0.0000E+00  0.0000E+00  0.0000E+00  0.0000E+00  0.0000E+00  0.0000E+00  0.0000E+00  0.0000E+00  0.0000E+00  0.0000E+00  0.0000E+00  0.0000E+00  0.0000E+00  0.0000E+00  0.0000E+00  0.0000E+00  0.0000E+00
    -29.944  0.0000E+00  0.0000E+00  0.0000E+00  0.0000E+00  0.0000E+00  0.0000E+00  0.0000E+00  0.0000E+00  0.0000E+00  0.0000E+00  0.0000E+00  0.0000E+00  0.0000E+00  0.0000E+00  0.0000E+00  0.0000E+00  0.0000E+00  0.0000E+00
    -29.749  0.0000E+00  0.0000E+00  0.0000E+00  0.0000E+00  0.0000E+00  0.0000E+00  0.0000E+00  0.0000E+00  0.0000E+00  0.0000E+00  0.0000E+00  0.0000E+00  0.0000E+00  0.0000E+00  0.0000E+00  0.0000E+00  0.0000E+00  0.0000E+00
    -29.554  0.0000E+00  0.0000E+00  0.0000E+00  0.0000E+00  0.0000E+00  0.0000E+00  0.0000E+00  0.0000E+00  0.0000E+00  0.0000E+00  0.0000E+00  0.0000E+00  0.0000E+00  0.0000E+00  0.0000E+00  0.0000E+00  0.0000E+00  0.0000E+00
    -29.358  0.0000E+00  0.0000E+00  0.0000E+00  0.0000E+00  0.0000E+00  0.0000E+00  0.0000E+00  0.0000E+00  0.0000E+00  0.0000E+00  0.0000E+00  0.0000E+00  0.0000E+00  0.0000E+00  0.0000E+00  0.0000E+00  0.0000E+00  0.0000E+00
    -29.163  0.0000E+00  0.0000E+00  0.0000E+00  0.0000E+00  0.0000E+00  0.0000E+00  0.0000E+00  0.0000E+00  0.0000E+00  0.0000E+00  0.0000E+00  0.0000E+00  0.0000E+00  0.0000E+00  0.0000E+00  0.0000E+00  0.0000E+00  0.0000E+00
    -28.968  0.0000E+00  0.0000E+00  0.0000E+00  0.0000E+00  0.0000E+00  0.0000E+00  0.0000E+00  0.0000E+00  0.0000E+00  0.0000E+00  0.0000E+00  0.0000E+00  0.0000E+00  0.0000E+00  0.0000E+00  0.0000E+00  0.0000E+00  0.0000E+00
    -28.773  0.0000E+00  0.0000E+00  0.0000E+00  0.0000E+00  0.0000E+00  0.0000E+00  0.0000E+00  0.0000E+00  0.0000E+00  0.0000E+00  0.0000E+00  0.0000E+00  0.0000E+00  0.0000E+00  0.0000E+00  0.0000E+00  0.0000E+00  0.0000E+00
    -28.577  0.0000E+00  0.0000E+00  0.0000E+00  0.0000E+00  0.0000E+00  0.0000E+00  0.0000E+00  0.0000E+00  0.0000E+00  0.0000E+00  0.0000E+00  0.0000E+00  0.0000E+00  0.0000E+00  0.0000E+00  0.0000E+00  0.0000E+00  0.0000E+00
    -28.382  0.0000E+00  0.0000E+00  0.0000E+00  0.0000E+00  0.0000E+00  0.0000E+00  0.0000E+00  0.0000E+00  0.0000E+00  0.0000E+00  0.0000E+00  0.0000E+00  0.0000E+00  0.0000E+00  0.0000E+00  0.0000E+00  0.0000E+00  0.0000E+00
    -28.187  0.0000E+00  0.0000E+00  0.0000E+00  0.0000E+00  0.0000E+00  0.0000E+00  0.0000E+00  0.0000E+00  0.0000E+00  0.0000E+00  0.0000E+00  0.0000E+00  0.0000E+00  0.0000E+00  0.0000E+00  0.0000E+00  0.0000E+00  0.0000E+00
    -27.992  0.2212E-03  0.2212E-03  0.1599E-04  0.1599E-04  0.5431E-04  0.5431E-04  0.1564E-04  0.1565E-04  0.7963E-06  0.7964E-06  0.8693E-05  0.8692E-05  0.5390E-05  0.5390E-05  0.8505E-05  0.8506E-05  0.9567E-06  0.9567E-06
    -27.796  0.0000E+00  0.0000E+00  0.0000E+00  0.0000E+00  0.0000E+00  0.0000E+00  0.0000E+00  0.0000E+00  0.0000E+00  0.0000E+00  0.0000E+00  0.0000E+00  0.0000E+00  0.0000E+00  0.0000E+00  0.0000E+00  0.0000E+00  0.0000E+00
    -27.601  0.0000E+00  0.0000E+00  0.0000E+00  0.0000E+00  0.0000E+00  0.0000E+00  0.0000E+00  0.0000E+00  0.0000E+00  0.0000E+00  0.0000E+00  0.0000E+00  0.0000E+00  0.0000E+00  0.0000E+00  0.0000E+00  0.0000E+00  0.0000E+00
    -27.406  0.0000E+00  0.0000E+00  0.0000E+00  0.0000E+00  0.0000E+00  0.0000E+00  0.0000E+00  0.0000E+00  0.0000E+00  0.0000E+00  0.0000E+00  0.0000E+00  0.0000E+00  0.0000E+00  0.0000E+00  0.0000E+00  0.0000E+00  0.0000E+00
    -27.211  0.0000E+00  0.0000E+00  0.0000E+00  0.0000E+00  0.0000E+00  0.0000E+00  0.0000E+00  0.0000E+00  0.0000E+00  0.0000E+00  0.0000E+00  0.0000E+00  0.0000E+00  0.0000E+00  0.0000E+00  0.0000E+00  0.0000E+00  0.0000E+00
    -27.016  0.0000E+00  0.0000E+00  0.0000E+00  0.0000E+00  0.0000E+00  0.0000E+00  0.0000E+00  0.0000E+00  0.0000E+00  0.0000E+00  0.0000E+00  0.0000E+00  0.0000E+00  0.0000E+00  0.0000E+00  0.0000E+00  0.0000E+00  0.0000E+00
    -26.820  0.0000E+00  0.0000E+00  0.0000E+00  0.0000E+00  0.0000E+00  0.0000E+00  0.0000E+00  0.0000E+00  0.0000E+00  0.0000E+00  0.0000E+00  0.0000E+00  0.0000E+00  0.0000E+00  0.0000E+00  0.0000E+00  0.0000E+00  0.0000E+00
    -26.625  0.0000E+00  0.0000E+00  0.0000E+00  0.0000E+00  0.0000E+00  0.0000E+00  0.0000E+00  0.0000E+00  0.0000E+00  0.0000E+00  0.0000E+00  0.0000E+00  0.0000E+00  0.0000E+00  0.0000E+00  0.0000E+00  0.0000E+00  0.0000E+00
    -26.430  0.0000E+00  0.0000E+00  0.0000E+00  0.0000E+00  0.0000E+00  0.0000E+00  0.0000E+00  0.0000E+00  0.0000E+00  0.0000E+00  0.0000E+00  0.0000E+00  0.0000E+00  0.0000E+00  0.0000E+00  0.0000E+00  0.0000E+00  0.0000E+00
    -26.235  0.0000E+00  0.0000E+00  0.0000E+00  0.0000E+00  0.0000E+00  0.0000E+00  0.0000E+00  0.0000E+00  0.0000E+00  0.0000E+00  0.0000E+00  0.0000E+00  0.0000E+00  0.0000E+00  0.0000E+00  0.0000E+00  0.0000E+00  0.0000E+00
    -26.039  0.0000E+00  0.0000E+00  0.0000E+00  0.0000E+00  0.0000E+00  0.0000E+00  0.0000E+00  0.0000E+00  0.0000E+00  0.0000E+00  0.0000E+00  0.0000E+00  0.0000E+00  0.0000E+00  0.0000E+00  0.0000E+00  0.0000E+00  0.0000E+00
    -25.844  0.0000E+00  0.0000E+00  0.0000E+00  0.0000E+00  0.0000E+00  0.0000E+00  0.0000E+00  0.0000E+00  0.0000E+00  0.0000E+00  0.0000E+00  0.0000E+00  0.0000E+00  0.0000E+00  0.0000E+00  0.0000E+00  0.0000E+00  0.0000E+00
    -25.649  0.0000E+00  0.0000E+00  0.0000E+00  0.0000E+00  0.0000E+00  0.0000E+00  0.0000E+00  0.0000E+00  0.0000E+00  0.0000E+00  0.0000E+00  0.0000E+00  0.0000E+00  0.0000E+00  0.0000E+00  0.0000E+00  0.0000E+00  0.0000E+00
    -25.454  0.0000E+00  0.0000E+00  0.0000E+00  0.0000E+00  0.0000E+00  0.0000E+00  0.0000E+00  0.0000E+00  0.0000E+00  0.0000E+00  0.0000E+00  0.0000E+00  0.0000E+00  0.0000E+00  0.0000E+00  0.0000E+00  0.0000E+00  0.0000E+00
    -25.258  0.0000E+00  0.0000E+00  0.0000E+00  0.0000E+00  0.0000E+00  0.0000E+00  0.0000E+00  0.0000E+00  0.0000E+00  0.0000E+00  0.0000E+00  0.0000E+00  0.0000E+00  0.0000E+00  0.0000E+00  0.0000E+00  0.0000E+00  0.0000E+00