   10   10   99    2
  0.8668804E+01  0.3210805E-09  0.5367520E-09  0.5173096E-09  0.5000000E-15
  1.000000000000000E-004
  CAR 
 unknown system                          
     29     58     32
 
  0.3742002E-15  0.3742002E-15  0.3742002E-15  0.8928571E-02
    1      -33.773666    -33.740697   1.000000   1.000000
    2      -29.796931    -29.389480   1.000000   1.000000
    3      -29.663885    -29.297579   1.000000   1.000000
    4      -29.612360    -29.132998   1.000000   1.000000
    5      -15.876473    -15.849337   1.000000   1.000000
    6      -15.790606    -15.761582   1.000000   1.000000
    7      -15.325627    -15.266687   1.000000   1.000000
    8       -7.291223     -7.192549   1.000000   1.000000
    9       -5.060882     -4.990649   1.000000   1.000000
   10       -2.818918     -2.687116   1.000000   1.000000
   11       -2.466766     -2.351860   1.000000   1.000000
   12       -2.032382     -1.927730   1.000000   1.000000
   13       -1.286022     -1.010169   1.000000   1.000000
   14       -0.881907     -0.803631   1.000000   1.000000
   15        2.484474      2.814067   0.744006   0.000000
   16        2.641436      3.023655   0.000000   0.000000
   17        2.708607      3.258759   0.000000   0.000000
   18        4.663120      4.806491   0.000000   0.000000
   19        5.063054      5.542120   0.000000   0.000000
   20        6.480033      6.649620   0.000000   0.000000
   21        6.855045      6.981379   0.000000   0.000000
   22        7.730434      7.842850   0.000000   0.000000
   23        7.977039      8.038291   0.000000   0.000000
   24        8.085000      8.158167   0.000000   0.000000
   25        8.711562      8.818572   0.000000   0.000000
   26        8.963324      9.074227   0.000000   0.000000
   27       10.214417     10.302797   0.000000   0.000000
   28       11.069578     11.242678   0.000000   0.000000
   29       11.725821     11.930061   0.000000   0.000000
   30       12.465064     12.645172   0.000000   0.000000
   31       13.066258     13.255993   0.000000   0.000000
   32       14.449759     14.532840   0.000000   0.000000
 
  0.1428571E+00  0.3738329E-15  0.3781697E-15  0.1785714E-01
    1      -33.747895    -33.715639   1.000000   1.000000
    2      -29.788930    -29.381322   1.000000   1.000000
    3      -29.679611    -29.365730   1.000000   1.000000
    4      -29.655874    -29.124841   1.000000   1.000000
    5      -15.839004    -15.812551   1.000000   1.000000
    6      -15.751798    -15.723500   1.000000   1.000000
    7      -15.593402    -15.525325   1.000000   1.000000
    8       -7.021091     -6.924349   1.000000   1.000000
    9       -4.841465     -4.773610   1.000000   1.000000
   10       -2.666583     -2.545900   1.000000   1.000000
   11       -2.377130     -2.257495   1.000000   1.000000
   12       -2.117956     -1.995722   1.000000   1.000000
   13       -1.406592     -1.253347   1.000000   1.000000
   14       -1.235434     -1.035880   1.000000   1.000000
   15        2.052190      2.572645   1.063050   0.030864
   16        2.865642      3.159115   0.000000   0.000000
   17        3.210213      3.535065   0.000000   0.000000
   18        4.828740      5.208768   0.000000   0.000000
   19        5.661041      5.962305   0.000000   0.000000
   20        6.110430      6.279202   0.000000   0.000000
   21        6.774546      6.865374   0.000000   0.000000
   22        7.055180      7.199911   0.000000   0.000000
   23        7.632687      7.744999   0.000000   0.000000
   24        7.990363      8.116800   0.000000   0.000000
   25        8.819702      8.922033   0.000000   0.000000
   26        9.145013      9.250218   0.000000   0.000000
   27        9.946242     10.024340   0.000000   0.000000
   28       11.117673     11.415921   0.000000   0.000000
   29       11.605991     11.751018   0.000000   0.000000
   30       12.495736     12.606788   0.000000   0.000000
   31       12.918753     13.012530   0.000000   0.000000
   32       14.493632     14.640498   0.000000   0.000000
 
  0.2857143E+00  0.3747003E-15  0.3816392E-15  0.1785714E-01
    1      -33.689193    -33.658585   1.000000   1.000000
    2      -29.827824    -29.515990   1.000000   1.000000
    3      -29.770860    -29.362780   1.000000   1.000000
    4      -29.637804    -29.106439   1.000000   1.000000
    5      -16.147047    -16.062069   1.000000   1.000000
    6      -15.753010    -15.728170   1.000000   1.000000
    7      -15.662262    -15.635414   1.000000   1.000000
    8       -6.425793     -6.331999   1.000000   1.000000
    9       -4.249167     -4.188463   1.000000   1.000000
   10       -2.606135     -2.465220   1.000000   1.000000
   11       -2.344410     -2.230958   1.000000   1.000000
   12       -2.115213     -1.985374   1.000000   1.000000
   13       -1.918477     -1.792626   1.000000   1.000000
   14       -1.643259     -1.439944   1.000000   1.000000
   15        1.684777      2.245315   1.000000   0.959281
   16        3.483743      3.747228   0.000000   0.000000
   17        4.260019      4.458905   0.000000   0.000000
   18        4.788316      5.157860   0.000000   0.000000
   19        5.472145      5.652331   0.000000   0.000000
   20        5.987408      6.193206   0.000000   0.000000
   21        6.352834      6.487767   0.000000   0.000000
   22        7.195084      7.385536   0.000000   0.000000
   23        7.384807      7.552058   0.000000   0.000000
   24        7.824656      8.000244   0.000000   0.000000
   25        8.451108      8.582240   0.000000   0.000000
   26        8.851909      8.986673   0.000000   0.000000
   27       10.284706     10.394257   0.000000   0.000000
   28       10.807224     10.952050   0.000000   0.000000
   29       11.088031     11.224604   0.000000   0.000000
   30       12.236868     12.393342   0.000000   0.000000
   31       12.822576     12.993658   0.000000   0.000000
   32       14.505034     14.678086   0.000000   0.000000
 
  0.4285714E+00  0.3751340E-15  0.3469447E-15  0.1785714E-01
    1      -33.641294    -33.612056   1.000000   1.000000
    2      -29.943845    -29.633557   1.000000   1.000000
    3      -29.756346    -29.347893   1.000000   1.000000
    4      -29.623248    -29.091616   1.000000   1.000000
    5      -16.552613    -16.456305   1.000000   1.000000
    6      -15.682131    -15.658660   1.000000   1.000000
    7      -15.588494    -15.563042   1.000000   1.000000
    8       -5.968836     -5.876158   1.000000   1.000000
    9       -3.451916     -3.410465   1.000000   1.000000
   10       -2.790396     -2.622961   1.000000   1.000000
   11       -2.548871     -2.391548   1.000000   1.000000
   12       -2.412235     -2.313278   1.000000   1.000000
   13       -2.038732     -1.872863   1.000000   1.000000
   14       -1.924112     -1.792089   1.000000   1.000000
   15        1.865515      2.522638   1.000000   0.085489
   16        3.975746      4.243192   0.000000   0.000000
   17        4.714590      4.902288   0.000000   0.000000
   18        4.750894      4.923009   0.000000   0.000000
   19        5.435522      5.639168   0.000000   0.000000
   20        5.765901      5.899621   0.000000   0.000000
   21        6.187525      6.306584   0.000000   0.000000
   22        6.446770      6.672399   0.000000   0.000000
   23        7.383546      7.521178   0.000000   0.000000
   24        8.173258      8.451317   0.000000   0.000000
   25        8.474291      8.555217   0.000000   0.000000
   26        9.095955      9.346468   0.000000   0.000000
   27        9.568790      9.677366   0.000000   0.000000
   28       10.757621     10.885151   0.000000   0.000000
   29       11.565581     11.658487   0.000000   0.000000
   30       12.351994     12.534630   0.000000   0.000000
   31       13.077041     13.311675   0.000000   0.000000
   32       13.661353     13.840463   0.000000   0.000000
 
  0.3738329E-15  0.2500000E+00  0.3885781E-15  0.1785714E-01
    1      -33.773731    -33.740744   1.000000   1.000000
    2      -29.796997    -29.389545   1.000000   1.000000
    3      -29.663692    -29.297572   1.000000   1.000000
    4      -29.612353    -29.132816   1.000000   1.000000
    5      -15.882831    -15.855513   1.000000   1.000000
    6      -15.795178    -15.766206   1.000000   1.000000
    7      -15.325635    -15.266691   1.000000   1.000000
    8       -7.035667     -6.941259   1.000000   1.000000
    9       -5.343653     -5.265608   1.000000   1.000000
   10       -3.018560     -2.887887   1.000000   1.000000
   11       -2.319992     -2.227177   1.000000   1.000000
   12       -2.048262     -1.917525   1.000000   1.000000
   13       -1.238252     -1.064244   1.000000   1.000000
   14       -0.815753     -0.626321   1.000000   1.000000
   15        2.425811      2.757396   0.889194   0.000000
   16        2.652155      3.017740   0.000000   0.000000
   17        2.700544      3.269999   0.000000   0.000000
   18        4.463731      4.718806   0.000000   0.000000
   19        5.416027      5.660446   0.000000   0.000000
   20        6.172614      6.441479   0.000000   0.000000
   21        6.787345      6.921332   0.000000   0.000000
   22        7.670409      7.764960   0.000000   0.000000
   23        7.783567      7.854886   0.000000   0.000000
   24        8.028310      8.092742   0.000000   0.000000
   25        8.474898      8.567734   0.000000   0.000000
   26        9.451912      9.581341   0.000000   0.000000
   27       10.357856     10.479542   0.000000   0.000000
   28       11.388221     11.540941   0.000000   0.000000
   29       11.909724     12.081524   0.000000   0.000000
   30       13.039289     13.206269   0.000000   0.000000
   31       13.834181     13.976378   0.000000   0.000000
   32       14.619857     14.785700   0.000000   0.000000
 
  0.1428571E+00  0.2500000E+00  0.3747003E-15  0.1785714E-01
    1      -33.747932    -33.715662   1.000000   1.000000
    2      -29.788995    -29.381388   1.000000   1.000000
    3      -29.679628    -29.365747   1.000000   1.000000
    4      -29.655743    -29.124720   1.000000   1.000000
    5      -15.844653    -15.818049   1.000000   1.000000
    6      -15.755643    -15.727392   1.000000   1.000000
    7      -15.592528    -15.524488   1.000000   1.000000
    8       -6.799392     -6.706667   1.000000   1.000000
    9       -5.092727     -5.016187   1.000000   1.000000
   10       -2.813632     -2.688895   1.000000   1.000000
   11       -2.327697     -2.228341   1.000000   1.000000
   12       -2.068201     -1.936667   1.000000   1.000000
   13       -1.462736     -1.334061   1.000000   1.000000
   14       -1.087183     -0.854263   1.000000   1.000000
   15        2.014709      2.541500   1.062153   0.001954
   16        2.775820      3.082435   0.000000   0.000000
   17        3.381873      3.730120   0.000000   0.000000
   18        4.594456      4.887199   0.000000   0.000000
   19        5.593108      5.807800   0.000000   0.000000
   20        6.108802      6.366742   0.000000   0.000000
   21        6.695193      6.858978   0.000000   0.000000
   22        7.026661      7.121069   0.000000   0.000000
   23        7.733645      7.846021   0.000000   0.000000
   24        8.138029      8.265055   0.000000   0.000000
   25        8.714445      8.807507   0.000000   0.000000
   26        9.309427      9.407633   0.000000   0.000000
   27       10.208862     10.320482   0.000000   0.000000
   28       11.199586     11.418153   0.000000   0.000000
   29       11.544058     11.683048   0.000000   0.000000
   30       12.521381     12.635613   0.000000   0.000000
   31       13.324769     13.471769   0.000000   0.000000
   32       14.460049     14.639310   0.000000   0.000000
 
  0.2857143E+00  0.2500000E+00  0.3747003E-15  0.1785714E-01
    1      -33.689163    -33.658551   1.000000   1.000000
    2      -29.827896    -29.516059   1.000000   1.000000
    3      -29.770917    -29.362839   1.000000   1.000000
    4      -29.637830    -29.106472   1.000000   1.000000
    5      -16.144973    -16.060068   1.000000   1.000000
    6      -15.757062    -15.732138   1.000000   1.000000
    7      -15.664343    -15.637545   1.000000   1.000000
    8       -6.310339     -6.219835   1.000000   1.000000
    9       -4.388988     -4.316618   1.000000   1.000000
   10       -2.603846     -2.452558   1.000000   1.000000
   11       -2.419182     -2.321525   1.000000   1.000000
   12       -2.152718     -2.031565   1.000000   1.000000
   13       -1.993921     -1.856365   1.000000   1.000000
   14       -1.401896     -1.200239   1.000000   1.000000
   15        1.899819      2.490049   1.000000   0.125562
   16        3.009826      3.295778   0.000000   0.000000
   17        4.131705      4.346563   0.000000   0.000000
   18        4.874802      5.150429   0.000000   0.000000
   19        5.717325      5.901438   0.000000   0.000000
   20        5.874915      6.046346   0.000000   0.000000
   21        6.598242      6.798442   0.000000   0.000000
   22        6.976087      7.106209   0.000000   0.000000
   23        7.465317      7.671420   0.000000   0.000000
   24        7.960362      8.113423   0.000000   0.000000
   25        8.245589      8.400365   0.000000   0.000000
   26        9.146577      9.263985   0.000000   0.000000
   27       10.073685     10.197453   0.000000   0.000000
   28       10.644889     10.784634   0.000000   0.000000
   29       11.273256     11.387104   0.000000   0.000000
   30       12.532767     12.660371   0.000000   0.000000
   31       12.792449     13.025083   0.000000   0.000000
   32       13.833578     14.020807   0.000000   0.000000
 
  0.4285714E+00  0.2500000E+00  0.3191891E-15  0.1785714E-01
    1      -33.641207    -33.611973   1.000000   1.000000
    2      -29.943958    -29.633667   1.000000   1.000000
    3      -29.756400    -29.347949   1.000000   1.000000
    4      -29.623404    -29.091775   1.000000   1.000000
    5      -16.549878    -16.453642   1.000000   1.000000
    6      -15.684964    -15.661471   1.000000   1.000000
    7      -15.589149    -15.563755   1.000000   1.000000
    8       -5.957568     -5.867489   1.000000   1.000000
    9       -3.451657     -3.389654   1.000000   1.000000
   10       -2.843543     -2.669284   1.000000   1.000000
   11       -2.653498     -2.517588   1.000000   1.000000
   12       -2.462210     -2.342977   1.000000   1.000000
   13       -2.231800     -2.116884   1.000000   1.000000
   14       -1.392388     -1.229415   1.000000   1.000000
   15        2.137689      2.814699   1.000000  -0.035704
   16        3.286095      3.570729   0.000000   0.000000
   17        4.516804      4.693184   0.000000   0.000000
   18        4.605532      4.826519   0.000000   0.000000
   19        5.507746      5.602300   0.000000   0.000000
   20        5.893768      6.079170   0.000000   0.000000
   21        6.576674      6.651688   0.000000   0.000000
   22        6.853433      7.010201   0.000000   0.000000
   23        6.986018      7.220659   0.000000   0.000000
   24        8.201790      8.374018   0.000000   0.000000
   25        8.584755      8.798541   0.000000   0.000000
   26        9.076132      9.276761   0.000000   0.000000
   27        9.560466      9.635760   0.000000   0.000000
   28       10.421515     10.556340   0.000000   0.000000
   29       11.447328     11.583748   0.000000   0.000000
   30       12.466800     12.657759   0.000000   0.000000
   31       13.087991     13.315232   0.000000   0.000000
   32       13.921689     14.045821   0.000000   0.000000
 
 -0.4285714E+00  0.2500000E+00  0.3885781E-15  0.1785714E-01
    1      -33.641207    -33.611973   1.000000   1.000000
    2      -29.943958    -29.633667   1.000000   1.000000
    3      -29.756400    -29.347949   1.000000   1.000000
    4      -29.623404    -29.091775   1.000000   1.000000
    5      -16.549878    -16.453642   1.000000   1.000000
    6      -15.684965    -15.661471   1.000000   1.000000
    7      -15.589148    -15.563754   1.000000   1.000000
    8       -5.957520     -5.867441   1.000000   1.000000
    9       -3.451690     -3.389681   1.000000   1.000000
   10       -2.844029     -2.669905   1.000000   1.000000
   11       -2.652902     -2.516808   1.000000   1.000000
   12       -2.462697     -2.343552   1.000000   1.000000
   13       -2.231670     -2.116759   1.000000   1.000000
   14       -1.392115     -1.229066   1.000000   1.000000
   15        2.137685      2.814703   1.000000  -0.048493
   16        3.286213      3.570776   0.000000   0.000000
   17        4.516249      4.692694   0.000000   0.000000
   18        4.605488      4.826236   0.000000   0.000000
   19        5.507316      5.602041   0.000000   0.000000
   20        5.894955      6.080301   0.000000   0.000000
   21        6.576755      6.651860   0.000000   0.000000
   22        6.853915      7.010580   0.000000   0.000000
   23        6.985350      7.220080   0.000000   0.000000
   24        8.201741      8.374243   0.000000   0.000000
   25        8.584749      8.798869   0.000000   0.000000
   26        9.076532      9.276442   0.000000   0.000000
   27        9.560586      9.636151   0.000000   0.000000
   28       10.420866     10.555579   0.000000   0.000000
   29       11.446495     11.583036   0.000000   0.000000
   30       12.467783     12.658623   0.000000   0.000000
   31       13.087656     13.314897   0.000000   0.000000
   32       13.922034     14.046188   0.000000   0.000000
 
 -0.2857143E+00  0.2500000E+00  0.3538836E-15  0.1785714E-01
    1      -33.689163    -33.658551   1.000000   1.000000
    2      -29.827896    -29.516059   1.000000   1.000000
    3      -29.770917    -29.362839   1.000000   1.000000
    4      -29.637830    -29.106473   1.000000   1.000000
    5      -16.144973    -16.060068   1.000000   1.000000
    6      -15.757063    -15.732140   1.000000   1.000000
    7      -15.664340    -15.637543   1.000000   1.000000
    8       -6.310292     -6.219791   1.000000   1.000000
    9       -4.388924     -4.316551   1.000000   1.000000
   10       -2.604367     -2.453107   1.000000   1.000000
   11       -2.419132     -2.321522   1.000000   1.000000
   12       -2.152640     -2.031368   1.000000   1.000000
   13       -1.994326     -1.856933   1.000000   1.000000
   14       -1.401125     -1.199258   1.000000   1.000000
   15        1.899728      2.489845   1.000000   0.133818
   16        3.009826      3.295637   0.000000   0.000000
   17        4.131501      4.346397   0.000000   0.000000
   18        4.874393      5.149870   0.000000   0.000000
   19        5.718735      5.902750   0.000000   0.000000
   20        5.874574      6.046230   0.000000   0.000000
   21        6.597711      6.798187   0.000000   0.000000
   22        6.975996      7.105995   0.000000   0.000000
   23        7.465939      7.672110   0.000000   0.000000
   24        7.960483      8.113503   0.000000   0.000000
   25        8.245882      8.400737   0.000000   0.000000
   26        9.147037      9.264383   0.000000   0.000000
   27       10.073417     10.197176   0.000000   0.000000
   28       10.644057     10.783773   0.000000   0.000000
   29       11.273237     11.387122   0.000000   0.000000
   30       12.532479     12.660160   0.000000   0.000000
   31       12.791625     13.024222   0.000000   0.000000
   32       13.832937     14.020074   0.000000   0.000000
 
 -0.1428571E+00  0.2500000E+00  0.3955170E-15  0.1785714E-01
    1      -33.747932    -33.715662   1.000000   1.000000
    2      -29.788995    -29.381389   1.000000   1.000000
    3      -29.679629    -29.365746   1.000000   1.000000
    4      -29.655743    -29.124720   1.000000   1.000000
    5      -15.844653    -15.818049   1.000000   1.000000
    6      -15.755641    -15.727390   1.000000   1.000000
    7      -15.592529    -15.524489   1.000000   1.000000
    8       -6.799398     -6.706674   1.000000   1.000000
    9       -5.092609     -5.016066   1.000000   1.000000
   10       -2.813601     -2.688884   1.000000   1.000000
   11       -2.328079     -2.228703   1.000000   1.000000
   12       -2.068397     -1.936855   1.000000   1.000000
   13       -1.462704     -1.334126   1.000000   1.000000
   14       -1.086685     -0.853592   1.000000   1.000000
   15        2.014447      2.541116   1.060088   0.024096
   16        2.775771      3.082232   0.000000   0.000000
   17        3.382148      3.730296   0.000000   0.000000
   18        4.594256      4.887305   0.000000   0.000000
   19        5.593248      5.808052   0.000000   0.000000
   20        6.108682      6.366641   0.000000   0.000000
   21        6.694876      6.858516   0.000000   0.000000
   22        7.027159      7.121458   0.000000   0.000000
   23        7.734033      7.846606   0.000000   0.000000
   24        8.138371      8.265240   0.000000   0.000000
   25        8.714280      8.807284   0.000000   0.000000
   26        9.309631      9.407897   0.000000   0.000000
   27       10.209036     10.320840   0.000000   0.000000
   28       11.200154     11.418789   0.000000   0.000000
   29       11.543522     11.682384   0.000000   0.000000
   30       12.520074     12.634565   0.000000   0.000000
   31       13.324898     13.471645   0.000000   0.000000
   32       14.459112     14.638144   0.000000   0.000000
 
  0.3738329E-15  0.5000000E+00  0.3330669E-15  0.8928571E-02
    1      -33.773795    -33.740790   1.000000   1.000000
    2      -29.797060    -29.389609   1.000000   1.000000
    3      -29.663492    -29.297563   1.000000   1.000000
    4      -29.612344    -29.132628   1.000000   1.000000
    5      -15.889726    -15.862202   1.000000   1.000000
    6      -15.799075    -15.770182   1.000000   1.000000
    7      -15.325624    -15.266675   1.000000   1.000000
    8       -6.644454     -6.559835   1.000000   1.000000
    9       -5.750836     -5.660162   1.000000   1.000000
   10       -3.219981     -3.094759   1.000000   1.000000
   11       -2.237911     -2.124029   1.000000   1.000000
   12       -1.991239     -1.872357   1.000000   1.000000
   13       -1.095454     -1.030201   1.000000   1.000000
   14       -0.866811     -0.561997   1.000000   1.000000
   15        2.458510      2.836497   0.852327   0.000000
   16        2.662750      3.011486   0.000000   0.000000
   17        2.693086      3.281940   0.000000   0.000000
   18        4.119129      4.284100   0.000000   0.000000
   19        5.732498      5.943912   0.000000   0.000000
   20        6.220218      6.565961   0.000000   0.000000
   21        6.701269      6.844874   0.000000   0.000000
   22        7.472748      7.539210   0.000000   0.000000
   23        7.588036      7.660530   0.000000   0.000000
   24        8.028400      8.090307   0.000000   0.000000
   25        8.064769      8.167162   0.000000   0.000000
   26        9.780518      9.894782   0.000000   0.000000
   27       11.109532     11.198891   0.000000   0.000000
   28       11.376184     11.543400   0.000000   0.000000
   29       13.231527     13.418966   0.000000   0.000000
   30       13.414565     13.627260   0.000000   0.000000
   31       13.994216     14.100785   0.000000   0.000000
   32       14.145587     14.256995   0.000000   0.000000
 
  0.1428571E+00  0.5000000E+00  0.3330669E-15  0.1785714E-01
    1      -33.747969    -33.715685   1.000000   1.000000
    2      -29.789059    -29.381455   1.000000   1.000000
    3      -29.679645    -29.365761   1.000000   1.000000
    4      -29.655614    -29.124601   1.000000   1.000000
    5      -15.850675    -15.823910   1.000000   1.000000
    6      -15.758981    -15.730801   1.000000   1.000000
    7      -15.591717    -15.523701   1.000000   1.000000
    8       -6.486976     -6.402469   1.000000   1.000000
    9       -5.422674     -5.334043   1.000000   1.000000
   10       -3.016557     -2.895878   1.000000   1.000000
   11       -2.230517     -2.118986   1.000000   1.000000
   12       -2.023273     -1.903393   1.000000   1.000000
   13       -1.400148     -1.312849   1.000000   1.000000
   14       -1.052550     -0.773423   1.000000   1.000000
   15        2.050464      2.641867   1.044064   0.000000
   16        2.604954      2.894569   0.000000   0.000000
   17        3.518016      3.839918   0.000000   0.000000
   18        4.467374      4.715860   0.000000   0.000000
   19        5.613689      5.795215   0.000000   0.000000
   20        5.999945      6.255493   0.000000   0.000000
   21        6.397102      6.610679   0.000000   0.000000
   22        6.995239      7.076044   0.000000   0.000000
   23        7.800465      7.913305   0.000000   0.000000
   24        8.667906      8.770109   0.000000   0.000000
   25        8.990106      9.092290   0.000000   0.000000
   26        9.213366      9.316502   0.000000   0.000000
   27       10.091078     10.240757   0.000000   0.000000
   28       11.212423     11.322083   0.000000   0.000000
   29       11.767623     11.951178   0.000000   0.000000
   30       12.558879     12.669008   0.000000   0.000000
   31       13.566161     13.796040   0.000000   0.000000
   32       14.118535     14.300209   0.000000   0.000000
 
  0.2857143E+00  0.5000000E+00  0.3608225E-15  0.1785714E-01
    1      -33.689133    -33.658516   1.000000   1.000000
    2      -29.827965    -29.516126   1.000000   1.000000
    3      -29.770975    -29.362900   1.000000   1.000000
    4      -29.637855    -29.106503   1.000000   1.000000
    5      -16.142868    -16.058031   1.000000   1.000000
    6      -15.761294    -15.736286   1.000000   1.000000
    7      -15.666245    -15.639502   1.000000   1.000000
    8       -6.176694     -6.091170   1.000000   1.000000
    9       -4.540228     -4.454512   1.000000   1.000000
   10       -2.717631     -2.580102   1.000000   1.000000
   11       -2.383992     -2.285870   1.000000   1.000000
   12       -2.241639     -2.115317   1.000000   1.000000
   13       -1.945424     -1.805023   1.000000   1.000000
   14       -1.191197     -0.993561   1.000000   1.000000
   15        2.004628      2.620579   1.000000   0.000000
   16        2.656527      2.950996   0.000000   0.000000
   17        4.142838      4.365444   0.000000   0.000000
   18        5.047492      5.268455   0.000000   0.000000
   19        5.481518      5.686624   0.000000   0.000000
   20        5.919535      6.112377   0.000000   0.000000
   21        6.343693      6.497717   0.000000   0.000000
   22        7.372681      7.507635   0.000000   0.000000
   23        7.658292      7.780562   0.000000   0.000000
   24        7.855037      8.054162   0.000000   0.000000
   25        8.501898      8.702927   0.000000   0.000000
   26        9.279396      9.392898   0.000000   0.000000
   27        9.927089     10.035865   0.000000   0.000000
   28       10.390541     10.526560   0.000000   0.000000
   29       10.959189     11.087207   0.000000   0.000000
   30       12.597472     12.736657   0.000000   0.000000
   31       13.203241     13.378889   0.000000   0.000000
   32       13.810339     14.030256   0.000000   0.000000
 
  0.4285714E+00  0.5000000E+00  0.4163336E-15  0.1785714E-01
    1      -33.641121    -33.611890   1.000000   1.000000
    2      -29.944069    -29.633774   1.000000   1.000000
    3      -29.756452    -29.348003   1.000000   1.000000
    4      -29.623557    -29.091932   1.000000   1.000000
    5      -16.547135    -16.450970   1.000000   1.000000
    6      -15.687828    -15.664313   1.000000   1.000000
    7      -15.589752    -15.564414   1.000000   1.000000
    8       -5.943449     -5.856401   1.000000   1.000000
    9       -3.495513     -3.402514   1.000000   1.000000
   10       -2.861528     -2.690479   1.000000   1.000000
   11       -2.768595     -2.623547   1.000000   1.000000
   12       -2.514351     -2.429620   1.000000   1.000000
   13       -2.168778     -2.056421   1.000000   1.000000
   14       -1.035907     -0.876253   1.000000   1.000000
   15        2.219715      2.872472   1.000000   0.000000
   16        2.866393      3.185326   0.000000   0.000000
   17        4.404022      4.675004   0.000000   0.000000
   18        4.632469      4.808293   0.000000   0.000000
   19        5.420455      5.504237   0.000000   0.000000
   20        5.861288      5.940370   0.000000   0.000000
   21        6.553820      6.747273   0.000000   0.000000
   22        7.009560      7.214594   0.000000   0.000000
   23        7.422038      7.642921   0.000000   0.000000
   24        7.955601      8.125846   0.000000   0.000000
   25        8.569322      8.639831   0.000000   0.000000
   26        8.941515      9.084756   0.000000   0.000000
   27        9.814545      9.956303   0.000000   0.000000
   28       10.540464     10.599337   0.000000   0.000000
   29       11.119157     11.333881   0.000000   0.000000
   30       12.650198     12.829720   0.000000   0.000000
   31       13.064610     13.290729   0.000000   0.000000
   32       13.489635     13.785533   0.000000   0.000000
 
  0.3747003E-15  0.3712308E-15  0.2500000E+00  0.1785714E-01
    1      -33.773669    -33.740687   1.000000   1.000000
    2      -29.797167    -29.389736   1.000000   1.000000
    3      -29.663739    -29.297566   1.000000   1.000000
    4      -29.612348    -29.132851   1.000000   1.000000
    5      -15.880546    -15.853428   1.000000   1.000000
    6      -15.798216    -15.768928   1.000000   1.000000
    7      -15.325557    -15.266618   1.000000   1.000000
    8       -7.005223     -6.911152   1.000000   1.000000
    9       -5.405824     -5.326925   1.000000   1.000000
   10       -2.832400     -2.712622   1.000000   1.000000
   11       -2.552676     -2.429159   1.000000   1.000000
   12       -2.106936     -1.994220   1.000000   1.000000
   13       -1.115195     -0.827352   1.000000   1.000000
   14       -0.784455     -0.715068   1.000000   1.000000
   15        2.545936      2.883467   0.477753   0.000000
   16        2.648313      3.006327   0.000000   0.000000