       N       E                     dE             d eps       ncg     rms          rms(c)
DAV:   1     0.172011181791E+03    0.17201E+03   -0.14360E+04 18576   0.737E+02
DAV:   2    -0.485923634471E+02   -0.22060E+03   -0.21388E+03 23248   0.279E+02
DAV:   3    -0.629202268384E+02   -0.14328E+02   -0.14268E+02 27696   0.557E+01
DAV:   4    -0.637585673490E+02   -0.83834E+00   -0.83658E+00 30280   0.119E+01
DAV:   5    -0.637748323868E+02   -0.16265E-01   -0.16264E-01 27408   0.150E+00    0.398E+01
DAV:   6    -0.603676282907E+02    0.34072E+01   -0.76916E+00 27216   0.162E+01    0.174E+01
DAV:   7    -0.596434609965E+02    0.72417E+00   -0.22515E+00 26520   0.674E+00    0.979E+00
DAV:   8    -0.595915289288E+02    0.51932E-01   -0.66019E-01 29224   0.428E+00    0.249E+00
DAV:   9    -0.595851693063E+02    0.63596E-02   -0.65749E-02 23008   0.134E+00    0.415E-01
DAV:  10    -0.595854680728E+02   -0.29877E-03   -0.84437E-03 26048   0.431E-01    0.223E-01
DAV:  11    -0.595856598874E+02   -0.19181E-03   -0.53163E-04 24656   0.148E-01    0.837E-02
DAV:  12    -0.595857234342E+02   -0.63547E-04   -0.17370E-04 20232   0.755E-02
   1 F= -.59585723E+02 E0= -.59585795E+02  d E =-.595857E+02
       N       E                     dE             d eps       ncg     rms          rms(c)
DAV:   1    -0.595869591373E+02   -0.12992E-02   -0.75992E-02 21168   0.197E+00    0.326E-01
DAV:   2    -0.595868296701E+02    0.12947E-03   -0.93436E-03 24264   0.586E-01    0.112E-01
DAV:   3    -0.595866588060E+02    0.17086E-03   -0.55107E-04 26896   0.134E-01    0.593E-02
DAV:   4    -0.595866085644E+02    0.50242E-04   -0.14735E-04 16304   0.736E-02
   2 F= -.59586609E+02 E0= -.59586685E+02  d E =-.885130E-03
       N       E                     dE             d eps       ncg     rms          rms(c)
DAV:   1    -0.595866179349E+02    0.40871E-04   -0.58794E-04 22512   0.183E-01    0.538E-02
DAV:   2    -0.595866141177E+02    0.38172E-05   -0.63766E-05 12080   0.526E-02
   3 F= -.59586614E+02 E0= -.59586691E+02  d E =-.890684E-03
