       N       E                     dE             d eps       ncg     rms          rms(c)
DAV:   1    -0.128611658891E+02   -0.12861E+02   -0.66842E+03  5888   0.428E+02
DAV:   2    -0.496931065614E+02   -0.36832E+02   -0.35645E+02  7808   0.810E+01
DAV:   3    -0.508594386186E+02   -0.11663E+01   -0.11654E+01  7280   0.121E+01
DAV:   4    -0.508611177308E+02   -0.16791E-02   -0.16791E-02  7520   0.573E-01
DAV:   5    -0.508611212019E+02   -0.34712E-05   -0.34712E-05  5952   0.265E-02    0.182E+01
RMM:   6    -0.508853648472E+02   -0.24244E-01   -0.42797E+00  5888   0.659E+00    0.857E+00
RMM:   7    -0.552553405991E+02   -0.43700E+01   -0.32466E+00  5888   0.544E+00    0.323E+00
RMM:   8    -0.552256848844E+02    0.29656E-01   -0.30182E-01  5888   0.183E+00    0.984E-01
RMM:   9    -0.552430080732E+02   -0.17323E-01   -0.14612E-02  5888   0.467E-01    0.415E-01
RMM:  10    -0.552526627495E+02   -0.96547E-02   -0.46606E-03  5888   0.264E-01    0.148E-01
RMM:  11    -0.552535996791E+02   -0.93693E-03   -0.76541E-04  4738   0.122E-01    0.635E-02
RMM:  12    -0.552538951496E+02   -0.29547E-03   -0.19804E-04  4423   0.587E-02
   1 F= -.55253895E+02 E0= -.55253895E+02  d E =-.552539E+02  mag=    -0.0003
       N       E                     dE             d eps       ncg     rms          rms(c)
DAV:   1    -0.553868816627E+02   -0.13328E+00   -0.27371E-01  7360   0.218E+00    0.441E-01
RMM:   2    -0.553846765659E+02    0.22051E-02   -0.30134E-03  5745   0.205E-01    0.253E-01
RMM:   3    -0.553836180117E+02    0.10586E-02   -0.10962E-03  3523   0.101E-01    0.140E-02
RMM:   4    -0.553836228242E+02   -0.48124E-05   -0.21445E-05  2630   0.195E-02
   2 F= -.55383623E+02 E0= -.55383623E+02  d E =-.129728E+00  mag=    -0.0000
       N       E                     dE             d eps       ncg     rms          rms(c)
DAV:   1    -0.556081341376E+02   -0.22452E+00   -0.23103E+00  6448   0.614E+00    0.127E+00
RMM:   2    -0.555889883586E+02    0.19146E-01   -0.26710E-02  5888   0.589E-01    0.724E-01
RMM:   3    -0.555798189880E+02    0.91694E-02   -0.10002E-02  5888   0.291E-01    0.435E-02
RMM:   4    -0.555798450135E+02   -0.26026E-04   -0.49149E-05  3248   0.310E-02
   3 F= -.55579845E+02 E0= -.55579845E+02  d E =-.325950E+00  mag=     0.0000
       N       E                     dE             d eps       ncg     rms          rms(c)
DAV:   1    -0.556261247957E+02   -0.46306E-01   -0.10052E-01  7968   0.109E+00    0.226E-01
RMM:   2    -0.556255236770E+02    0.60112E-03   -0.15419E-03  4500   0.142E-01
   4 F= -.55625524E+02 E0= -.55625524E+02  d E =-.456787E-01  mag=     0.0000
       N       E                     dE             d eps       ncg     rms          rms(c)
DAV:   1    -0.557486824648E+02   -0.12256E+00   -0.87540E-01  6048   0.322E+00    0.671E-01
RMM:   2    -0.557433002809E+02    0.53822E-02   -0.13093E-02  5888   0.403E-01    0.385E-01
RMM:   3    -0.557406015375E+02    0.26987E-02   -0.30789E-03  5751   0.150E-01    0.189E-02
RMM:   4    -0.557406093327E+02   -0.77952E-05   -0.19369E-05  3017   0.207E-02
   5 F= -.55740609E+02 E0= -.55740609E+02  d E =-.160764E+00  mag=     0.0000
       N       E                     dE             d eps       ncg     rms          rms(c)
DAV:   1    -0.559044022652E+02   -0.16380E+00   -0.36898E+00  6400   0.651E+00    0.136E+00
RMM:   2    -0.558815111864E+02    0.22891E-01   -0.58491E-02  5888   0.836E-01    0.782E-01
RMM:   3    -0.558699730124E+02    0.11538E-01   -0.13728E-02  5888   0.311E-01    0.400E-02
RMM:   4    -0.558699929494E+02   -0.19937E-04   -0.57940E-05  3497   0.329E-02
   6 F= -.55869993E+02 E0= -.55869993E+02  d E =-.290148E+00  mag=     0.0000
       N       E                     dE             d eps       ncg     rms          rms(c)
DAV:   1    -0.558871368719E+02   -0.17164E-01   -0.70702E-01  7616   0.286E+00    0.611E-01
RMM:   2    -0.558823667441E+02    0.47701E-02   -0.10696E-02  5870   0.355E-01    0.347E-01
RMM:   3    -0.558800943691E+02    0.22724E-02   -0.27695E-03  5728   0.139E-01    0.201E-02
RMM:   4    -0.558801045067E+02   -0.10138E-04   -0.21114E-05  3067   0.226E-02
   7 F= -.55880105E+02 E0= -.55880105E+02  d E =-.300259E+00  mag=     0.0000
       N       E                     dE             d eps       ncg     rms          rms(c)
DAV:   1    -0.559093636687E+02   -0.29269E-01   -0.19507E-01  6624   0.159E+00    0.375E-01
RMM:   2    -0.559074473578E+02    0.19163E-02   -0.25214E-03  5685   0.167E-01    0.211E-01
RMM:   3    -0.559066085392E+02    0.83882E-03   -0.99227E-04  3484   0.870E-02
   8 F= -.55906609E+02 E0= -.55906609E+02  d E =-.265040E-01  mag=    -0.0000
       N       E                     dE             d eps       ncg     rms          rms(c)
DAV:   1    -0.559726471302E+02   -0.65200E-01   -0.16814E+00  6272   0.455E+00    0.109E+00
RMM:   2    -0.559558633044E+02    0.16784E-01   -0.22389E-02  5888   0.485E-01    0.610E-01
RMM:   3    -0.559485013287E+02    0.73620E-02   -0.91385E-03  5888   0.254E-01    0.379E-02
RMM:   4    -0.559485236813E+02   -0.22353E-04   -0.45967E-05  3202   0.289E-02
   9 F= -.55948524E+02 E0= -.55948524E+02  d E =-.684192E-01  mag=    -0.0000
       N       E                     dE             d eps       ncg     rms          rms(c)
DAV:   1    -0.559589110776E+02   -0.10410E-01   -0.15170E-01  7856   0.136E+00    0.216E-01
RMM:   2    -0.559584638696E+02    0.44721E-03   -0.28772E-03  5608   0.199E-01
  10 F= -.55958464E+02 E0= -.55958464E+02  d E =-.994019E-02  mag=    -0.0000
       N       E                     dE             d eps       ncg     rms          rms(c)
DAV:   1    -0.559585975263E+02    0.31355E-03   -0.23639E-02  8096   0.552E-01    0.914E-02
RMM:   2    -0.559584991335E+02    0.98393E-04   -0.20373E-04  3194   0.530E-02
  11 F= -.55958499E+02 E0= -.55958499E+02  d E =-.997545E-02  mag=    -0.0000
       N       E                     dE             d eps       ncg     rms          rms(c)
DAV:   1    -0.559653616909E+02   -0.67642E-02   -0.19494E-02  7680   0.494E-01    0.673E-02
RMM:   2    -0.559653937841E+02   -0.32093E-04   -0.47081E-04  3114   0.834E-02
  12 F= -.55965394E+02 E0= -.55965394E+02  d E =-.689465E-02  mag=    -0.0000
       N       E                     dE             d eps       ncg     rms          rms(c)
DAV:   1    -0.559819363813E+02   -0.16575E-01   -0.18318E-01  7584   0.151E+00    0.202E-01
RMM:   2    -0.559822661351E+02   -0.32975E-03   -0.44412E-03  5722   0.243E-01
  13 F= -.55982266E+02 E0= -.55982266E+02  d E =-.237670E-01  mag=    -0.0000
       N       E                     dE             d eps       ncg     rms          rms(c)
DAV:   1    -0.559866596016E+02   -0.47232E-02   -0.44189E-02  8512   0.750E-01    0.128E-01
RMM:   2    -0.559865879724E+02    0.71629E-04   -0.76718E-04  4023   0.107E-01
  14 F= -.55986588E+02 E0= -.55986588E+02  d E =-.432184E-02  mag=    -0.0000
       N       E                     dE             d eps       ncg     rms          rms(c)
DAV:   1    -0.559871205987E+02   -0.46100E-03   -0.16429E-02  7904   0.475E-01    0.101E-01
RMM:   2    -0.559870557662E+02    0.64833E-04   -0.20239E-04  3057   0.567E-02
  15 F= -.55987056E+02 E0= -.55987056E+02  d E =-.478963E-02  mag=    -0.0000
