  17  17   1   0
  0.5952949E+01  0.2831802E-09  0.4661236E-09  0.8091803E-09  0.5000000E-15
  1.000000000000000E-004
  CAR 
 unknown system                          
     15.98304561    -13.44128989  301     -2.36522648      1.00000000
    -13.441  0.0000E+00  0.0000E+00  0.0000E+00  0.0000E+00
    -13.343  0.0000E+00  0.0000E+00  0.0000E+00  0.0000E+00
    -13.245  0.0000E+00  0.0000E+00  0.0000E+00  0.0000E+00
    -13.147  0.0000E+00  0.0000E+00  0.0000E+00  0.0000E+00
    -13.049  0.0000E+00  0.0000E+00  0.0000E+00  0.0000E+00
    -12.951  0.0000E+00  0.0000E+00  0.0000E+00  0.0000E+00
    -12.853  0.0000E+00  0.0000E+00  0.0000E+00  0.0000E+00
    -12.755  0.0000E+00  0.0000E+00  0.0000E+00  0.0000E+00
    -12.657  0.0000E+00  0.0000E+00  0.0000E+00  0.0000E+00
    -12.559  0.0000E+00  0.0000E+00  0.0000E+00  0.0000E+00
    -12.460  0.0000E+00  0.0000E+00  0.0000E+00  0.0000E+00
    -12.362  0.0000E+00  0.0000E+00  0.0000E+00  0.0000E+00
    -12.264  0.0000E+00  0.0000E+00  0.0000E+00  0.0000E+00
    -12.166  0.0000E+00  0.0000E+00  0.0000E+00  0.0000E+00
    -12.068  0.2471E-02  0.2463E-02  0.3646E-04  0.3623E-04
    -11.970  0.7698E-02  0.7695E-02  0.5749E-03  0.5743E-03
    -11.872  0.9471E-02  0.9477E-02  0.1555E-02  0.1555E-02
    -11.774  0.6324E-02  0.6326E-02  0.2320E-02  0.2319E-02
    -11.676  0.3725E-02  0.3725E-02  0.2756E-02  0.2756E-02
    -11.578  0.3724E-02  0.3724E-02  0.3122E-02  0.3121E-02
    -11.480  0.3722E-02  0.3722E-02  0.3487E-02  0.3487E-02
    -11.382  0.3721E-02  0.3721E-02  0.3852E-02  0.3852E-02
    -11.284  0.3453E-02  0.3455E-02  0.4215E-02  0.4215E-02
    -11.185  0.2920E-02  0.2920E-02  0.4526E-02  0.4526E-02
    -11.087  0.2297E-02  0.2297E-02  0.4776E-02  0.4776E-02
    -10.989  0.2297E-02  0.2297E-02  0.5001E-02  0.5001E-02
    -10.891  0.2296E-02  0.2296E-02  0.5227E-02  0.5226E-02
    -10.793  0.2296E-02  0.2296E-02  0.5452E-02  0.5452E-02
    -10.695  0.2295E-02  0.2295E-02  0.5677E-02  0.5677E-02
    -10.597  0.2295E-02  0.2295E-02  0.5902E-02  0.5902E-02
    -10.499  0.2294E-02  0.2294E-02  0.6127E-02  0.6127E-02
    -10.401  0.6264E-02  0.6260E-02  0.6494E-02  0.6493E-02
    -10.303  0.8690E-02  0.8692E-02  0.7314E-02  0.7313E-02
    -10.205  0.8113E-02  0.8112E-02  0.8113E-02  0.8113E-02
    -10.107  0.9336E-02  0.9333E-02  0.8945E-02  0.8945E-02
    -10.008  0.1066E-01  0.1066E-01  0.9964E-02  0.9963E-02
     -9.910  0.8057E-02  0.8059E-02  0.1087E-01  0.1087E-01
     -9.812  0.6996E-02  0.6996E-02  0.1159E-01  0.1159E-01
     -9.714  0.8881E-02  0.8873E-02  0.1231E-01  0.1231E-01
     -9.616  0.1585E-01  0.1584E-01  0.1360E-01  0.1359E-01
     -9.518  0.1730E-01  0.1730E-01  0.1524E-01  0.1524E-01
     -9.420  0.1374E-01  0.1375E-01  0.1684E-01  0.1684E-01
     -9.322  0.1496E-01  0.1496E-01  0.1821E-01  0.1821E-01
     -9.224  0.1649E-01  0.1649E-01  0.1971E-01  0.1971E-01
     -9.126  0.1952E-01  0.1952E-01  0.2149E-01  0.2148E-01
     -9.028  0.2172E-01  0.2173E-01  0.2363E-01  0.2363E-01
     -8.930  0.1975E-01  0.1975E-01  0.2566E-01  0.2565E-01
     -8.831  0.1854E-01  0.1853E-01  0.2748E-01  0.2748E-01
     -8.733  0.2133E-01  0.2133E-01  0.2947E-01  0.2947E-01
     -8.635  0.2861E-01  0.2862E-01  0.3188E-01  0.3188E-01
     -8.537  0.3273E-01  0.3273E-01  0.3479E-01  0.3478E-01
     -8.439  0.2800E-01  0.2800E-01  0.3781E-01  0.3781E-01
     -8.341  0.2605E-01  0.2604E-01  0.4046E-01  0.4046E-01
     -8.243  0.3526E-01  0.3526E-01  0.4373E-01  0.4373E-01
     -8.145  0.3838E-01  0.3838E-01  0.4724E-01  0.4724E-01
     -8.047  0.3967E-01  0.3968E-01  0.5139E-01  0.5138E-01
     -7.949  0.2966E-01  0.2966E-01  0.5476E-01  0.5476E-01
     -7.851  0.4336E-01  0.4333E-01  0.5809E-01  0.5808E-01
     -7.753  0.2846E-01  0.2843E-01  0.6235E-01  0.6235E-01
     -7.655  0.5762E-01  0.5769E-01  0.6794E-01  0.6793E-01
     -7.556  0.5138E-01  0.5137E-01  0.7164E-01  0.7163E-01
     -7.458  0.4857E-01  0.4861E-01  0.7661E-01  0.7661E-01
     -7.360  0.7400E-02  0.7435E-02  0.8074E-01  0.8074E-01
     -7.262  0.0000E+00  0.0000E+00  0.8081E-01  0.8081E-01
     -7.164  0.0000E+00  0.0000E+00  0.8081E-01  0.8081E-01
     -7.066  0.0000E+00  0.0000E+00  0.8081E-01  0.8081E-01
     -6.968  0.0000E+00  0.0000E+00  0.8081E-01  0.8081E-01
     -6.870  0.0000E+00  0.0000E+00  0.8081E-01  0.8081E-01
     -6.772  0.0000E+00  0.0000E+00  0.8081E-01  0.8081E-01
     -6.674  0.0000E+00  0.0000E+00  0.8081E-01  0.8081E-01
     -6.576  0.0000E+00  0.0000E+00  0.8081E-01  0.8081E-01
     -6.478  0.1560E-01  0.1561E-01  0.8157E-01  0.8157E-01
     -6.379  0.1047E-02  0.1047E-02  0.8204E-01  0.8204E-01
     -6.281  0.1047E-02  0.1047E-02  0.8215E-01  0.8215E-01
     -6.183  0.1047E-02  0.1047E-02  0.8225E-01  0.8225E-01
     -6.085  0.1047E-02  0.1047E-02  0.8235E-01  0.8235E-01
     -5.987  0.1047E-02  0.1047E-02  0.8245E-01  0.8245E-01
     -5.889  0.1047E-02  0.1047E-02  0.8256E-01  0.8256E-01
     -5.791  0.1047E-02  0.1047E-02  0.8266E-01  0.8266E-01
     -5.693  0.1047E-02  0.1047E-02  0.8276E-01  0.8276E-01
     -5.595  0.1047E-02  0.1047E-02  0.8287E-01  0.8287E-01
     -5.497  0.1047E-02  0.1047E-02  0.8297E-01  0.8297E-01
     -5.399  0.1047E-02  0.1047E-02  0.8307E-01  0.8307E-01
     -5.301  0.1047E-02  0.1047E-02  0.8317E-01  0.8317E-01
     -5.202  0.1047E-02  0.1047E-02  0.8328E-01  0.8328E-01
     -5.104  0.1047E-02  0.1047E-02  0.8338E-01  0.8338E-01
     -5.006  0.1047E-02  0.1047E-02  0.8348E-01  0.8348E-01
     -4.908  0.1047E-02  0.1047E-02  0.8358E-01  0.8358E-01
     -4.810  0.1047E-02  0.1047E-02  0.8369E-01  0.8369E-01
     -4.712  0.1047E-02  0.1047E-02  0.8379E-01  0.8379E-01
     -4.614  0.1047E-02  0.1047E-02  0.8389E-01  0.8389E-01
     -4.516  0.1047E-02  0.1047E-02  0.8400E-01  0.8400E-01
     -4.418  0.1047E-02  0.1047E-02  0.8410E-01  0.8410E-01
     -4.320  0.8507E-03  0.8507E-03  0.8420E-01  0.8420E-01
     -4.222  0.8507E-03  0.8507E-03  0.8428E-01  0.8428E-01
     -4.124  0.8507E-03  0.8507E-03  0.8436E-01  0.8436E-01
     -4.026  0.8507E-03  0.8507E-03  0.8445E-01  0.8445E-01
     -3.927  0.8507E-03  0.8507E-03  0.8453E-01  0.8453E-01
     -3.829  0.8507E-03  0.8507E-03  0.8461E-01  0.8461E-01
     -3.731  0.8507E-03  0.8507E-03  0.8470E-01  0.8470E-01
     -3.633  0.8507E-03  0.8507E-03  0.8478E-01  0.8478E-01
     -3.535  0.8507E-03  0.8507E-03  0.8486E-01  0.8486E-01
     -3.437  0.8507E-03  0.8507E-03  0.8495E-01  0.8495E-01
     -3.339  0.8507E-03  0.8507E-03  0.8503E-01  0.8503E-01
     -3.241  0.8507E-03  0.8507E-03  0.8511E-01  0.8511E-01
     -3.143  0.8507E-03  0.8507E-03  0.8520E-01  0.8520E-01
     -3.045  0.8507E-03  0.8507E-03  0.8528E-01  0.8528E-01
     -2.947  0.8507E-03  0.8507E-03  0.8536E-01  0.8536E-01
     -2.849  0.8507E-03  0.8507E-03  0.8545E-01  0.8545E-01
     -2.750  0.8507E-03  0.8507E-03  0.8553E-01  0.8553E-01
     -2.652  0.8507E-03  0.8507E-03  0.8561E-01  0.8561E-01
     -2.554  0.8507E-03  0.8507E-03  0.8570E-01  0.8570E-01
     -2.456  0.8507E-03  0.8507E-03  0.8578E-01  0.8578E-01
     -2.358  0.8507E-03  0.8507E-03  0.8586E-01  0.8586E-01
     -2.260  0.8507E-03  0.8507E-03  0.8595E-01  0.8595E-01
     -2.162  0.8507E-03  0.8507E-03  0.8603E-01  0.8603E-01
     -2.064  0.8507E-03  0.8507E-03  0.8611E-01  0.8611E-01
     -1.966  0.8507E-03  0.8507E-03  0.8620E-01  0.8620E-01
     -1.868  0.8507E-03  0.8507E-03  0.8628E-01  0.8628E-01
     -1.770  0.8507E-03  0.8507E-03  0.8637E-01  0.8637E-01
     -1.672  0.7457E-03  0.7457E-03  0.8645E-01  0.8645E-01
     -1.573  0.7457E-03  0.7456E-03  0.8652E-01  0.8652E-01
     -1.475  0.7457E-03  0.7456E-03  0.8659E-01  0.8659E-01
     -1.377  0.7456E-03  0.7456E-03  0.8666E-01  0.8666E-01
     -1.279  0.7456E-03  0.7456E-03  0.8674E-01  0.8674E-01
     -1.181  0.7456E-03  0.7456E-03  0.8681E-01  0.8681E-01
     -1.083  0.7456E-03  0.7456E-03  0.8688E-01  0.8688E-01
     -0.985  0.7456E-03  0.7456E-03  0.8696E-01  0.8696E-01
     -0.887  0.7456E-03  0.7456E-03  0.8703E-01  0.8703E-01
     -0.789  0.7456E-03  0.7456E-03  0.8710E-01  0.8710E-01
     -0.691  0.7456E-03  0.7455E-03  0.8718E-01  0.8718E-01
     -0.593  0.7456E-03  0.7455E-03  0.8725E-01  0.8725E-01
     -0.495  0.7456E-03  0.7455E-03  0.8732E-01  0.8732E-01
     -0.397  0.7455E-03  0.7455E-03  0.8740E-01  0.8740E-01
     -0.298  0.7455E-03  0.7455E-03  0.8747E-01  0.8747E-01
     -0.200  0.7455E-03  0.7455E-03  0.8754E-01  0.8754E-01
     -0.102  0.7455E-03  0.7455E-03  0.8762E-01  0.8762E-01
     -0.004  0.7455E-03  0.7455E-03  0.8769E-01  0.8769E-01
      0.094  0.7455E-03  0.7455E-03  0.8776E-01  0.8776E-01
      0.192  0.7455E-03  0.7455E-03  0.8783E-01  0.8783E-01
      0.290  0.7455E-03  0.7455E-03  0.8791E-01  0.8791E-01
      0.388  0.7455E-03  0.7454E-03  0.8798E-01  0.8798E-01
      0.486  0.7455E-03  0.7454E-03  0.8805E-01  0.8805E-01
      0.584  0.7455E-03  0.7454E-03  0.8813E-01  0.8813E-01
      0.682  0.7454E-03  0.7454E-03  0.8820E-01  0.8820E-01
      0.780  0.7454E-03  0.7454E-03  0.8827E-01  0.8827E-01
      0.879  0.7454E-03  0.7454E-03  0.8835E-01  0.8835E-01
      0.977  0.7454E-03  0.7454E-03  0.8842E-01  0.8842E-01
      1.075  0.8844E-03  0.8792E-03  0.8849E-01  0.8849E-01
      1.173  0.2776E-02  0.2759E-02  0.8865E-01  0.8865E-01
      1.271  0.4844E-02  0.4814E-02  0.8904E-01  0.8904E-01
      1.369  0.8834E-02  0.8830E-02  0.8994E-01  0.8994E-01
      1.467  0.4954E-02  0.4948E-02  0.9059E-01  0.9058E-01
      1.565  0.5520E-02  0.5497E-02  0.9107E-01  0.9107E-01
      1.663  0.7229E-02  0.7189E-02  0.9169E-01  0.9168E-01
      1.761  0.9070E-02  0.9037E-02  0.9249E-01  0.9248E-01
      1.859  0.1181E-01  0.1169E-01  0.9348E-01  0.9346E-01
      1.957  0.2234E-01  0.2217E-01  0.9522E-01  0.9518E-01
      2.056  0.2102E-01  0.2104E-01  0.9749E-01  0.9745E-01
      2.154  0.2211E-01  0.2214E-01  0.9958E-01  0.9955E-01
      2.252  0.1936E-01  0.1937E-01  0.1016E+00  0.1016E+00
      2.350  0.2485E-01  0.2483E-01  0.1037E+00  0.1037E+00
      2.448  0.2038E-01  0.2027E-01  0.1057E+00  0.1057E+00
      2.546  0.2362E-01  0.2353E-01  0.1079E+00  0.1079E+00
      2.644  0.2206E-01  0.2209E-01  0.1103E+00  0.1102E+00
      2.742  0.2548E-01  0.2551E-01  0.1126E+00  0.1126E+00
      2.840  0.2508E-01  0.2503E-01  0.1151E+00  0.1150E+00
      2.938  0.2649E-01  0.2648E-01  0.1176E+00  0.1175E+00
      3.036  0.3133E-01  0.3126E-01  0.1203E+00  0.1202E+00
      3.134  0.2467E-01  0.2477E-01  0.1230E+00  0.1230E+00
      3.233  0.2050E-01  0.2064E-01  0.1253E+00  0.1252E+00
      3.331  0.1919E-01  0.1920E-01  0.1272E+00  0.1272E+00
      3.429  0.1690E-01  0.1700E-01  0.1290E+00  0.1290E+00
      3.527  0.1482E-01  0.1480E-01  0.1303E+00  0.1303E+00
      3.625  0.2679E-01  0.2668E-01  0.1324E+00  0.1324E+00
      3.723  0.2422E-01  0.2418E-01  0.1351E+00  0.1351E+00
      3.821  0.2083E-01  0.2088E-01  0.1374E+00  0.1374E+00
      3.919  0.2047E-01  0.2043E-01  0.1393E+00  0.1393E+00
      4.017  0.2207E-01  0.2207E-01  0.1413E+00  0.1413E+00
      4.115  0.2303E-01  0.2278E-01  0.1436E+00  0.1436E+00
      4.213  0.2183E-01  0.2191E-01  0.1459E+00  0.1459E+00
      4.311  0.1704E-01  0.1708E-01  0.1477E+00  0.1477E+00
      4.409  0.1701E-01  0.1701E-01  0.1494E+00  0.1494E+00
      4.508  0.2621E-01  0.2615E-01  0.1514E+00  0.1514E+00
      4.606  0.2290E-01  0.2300E-01  0.1540E+00  0.1539E+00
      4.704  0.1506E-01  0.1507E-01  0.1557E+00  0.1557E+00
      4.802  0.1211E-01  0.1203E-01  0.1570E+00  0.1569E+00
      4.900  0.1536E-01  0.1525E-01  0.1581E+00  0.1581E+00
      4.998  0.1781E-01  0.1779E-01  0.1598E+00  0.1598E+00
      5.096  0.1911E-01  0.1911E-01  0.1616E+00  0.1616E+00
      5.194  0.1947E-01  0.1951E-01  0.1636E+00  0.1636E+00
      5.292  0.1730E-01  0.1732E-01  0.1654E+00  0.1654E+00
      5.390  0.1485E-01  0.1487E-01  0.1670E+00  0.1669E+00
      5.488  0.1167E-01  0.1170E-01  0.1683E+00  0.1683E+00
      5.586  0.1182E-01  0.1181E-01  0.1694E+00  0.1694E+00
      5.685  0.1234E-01  0.1233E-01  0.1706E+00  0.1706E+00
      5.783  0.1372E-01  0.1369E-01  0.1719E+00  0.1718E+00
      5.881  0.1802E-01  0.1798E-01  0.1734E+00  0.1734E+00
      5.979  0.1794E-01  0.1794E-01  0.1752E+00  0.1751E+00
      6.077  0.1597E-01  0.1600E-01  0.1768E+00  0.1768E+00
      6.175  0.1247E-01  0.1249E-01  0.1782E+00  0.1782E+00
      6.273  0.1092E-01  0.1091E-01  0.1793E+00  0.1793E+00
      6.371  0.1204E-01  0.1202E-01  0.1804E+00  0.1804E+00
      6.469  0.1344E-01  0.1341E-01  0.1817E+00  0.1817E+00
      6.567  0.1428E-01  0.1428E-01  0.1831E+00  0.1830E+00
      6.665  0.1542E-01  0.1541E-01  0.1845E+00  0.1845E+00
      6.763  0.1693E-01  0.1690E-01  0.1861E+00  0.1860E+00
      6.862  0.1738E-01  0.1738E-01  0.1878E+00  0.1878E+00
      6.960  0.1673E-01  0.1674E-01  0.1895E+00  0.1894E+00
      7.058  0.1523E-01  0.1524E-01  0.1910E+00  0.1910E+00
      7.156  0.1487E-01  0.1485E-01  0.1925E+00  0.1925E+00
      7.254  0.1545E-01  0.1544E-01  0.1940E+00  0.1940E+00
      7.352  0.1878E-01  0.1871E-01  0.1956E+00  0.1956E+00
      7.450  0.2198E-01  0.2200E-01  0.1977E+00  0.1977E+00
      7.548  0.2170E-01  0.2173E-01  0.1999E+00  0.1998E+00
      7.646  0.1847E-01  0.1853E-01  0.2018E+00  0.2018E+00
      7.744  0.1293E-01  0.1294E-01  0.2033E+00  0.2033E+00
      7.842  0.1645E-01  0.1643E-01  0.2048E+00  0.2048E+00
      7.940  0.1991E-01  0.1989E-01  0.2066E+00  0.2066E+00
      8.038  0.2008E-01  0.2009E-01  0.2086E+00  0.2085E+00
      8.137  0.1823E-01  0.1825E-01  0.2104E+00  0.2104E+00
      8.235  0.1578E-01  0.1578E-01  0.2121E+00  0.2121E+00
      8.333  0.1428E-01  0.1427E-01  0.2135E+00  0.2135E+00
      8.431  0.1564E-01  0.1562E-01  0.2150E+00  0.2150E+00
      8.529  0.1975E-01  0.1976E-01  0.2167E+00  0.2167E+00
      8.627  0.2138E-01  0.2128E-01  0.2187E+00  0.2187E+00
      8.725  0.1976E-01  0.1977E-01  0.2209E+00  0.2209E+00
      8.823  0.2029E-01  0.2022E-01  0.2228E+00  0.2228E+00
      8.921  0.2173E-01  0.2241E-01  0.2249E+00  0.2249E+00
      9.019  0.1811E-01  0.1812E-01  0.2268E+00  0.2268E+00
      9.117  0.1718E-01  0.1718E-01  0.2286E+00  0.2285E+00
      9.215  0.1919E-01  0.1916E-01  0.2303E+00  0.2303E+00
      9.314  0.1779E-01  0.1778E-01  0.2320E+00  0.2320E+00
      9.412  0.2059E-01  0.2057E-01  0.2339E+00  0.2339E+00
      9.510  0.1916E-01  0.1919E-01  0.2359E+00  0.2359E+00
      9.608  0.1490E-01  0.1490E-01  0.2376E+00  0.2376E+00
      9.706  0.1635E-01  0.1632E-01  0.2391E+00  0.2391E+00
      9.804  0.1915E-01  0.1906E-01  0.2408E+00  0.2408E+00
      9.902  0.2129E-01  0.2126E-01  0.2428E+00  0.2428E+00
     10.000  0.1994E-01  0.1997E-01  0.2448E+00  0.2448E+00
     10.098  0.1891E-01  0.1886E-01  0.2467E+00  0.2467E+00
     10.196  0.2156E-01  0.2150E-01  0.2486E+00  0.2486E+00
     10.294  0.2106E-01  0.2109E-01  0.2508E+00  0.2508E+00
     10.392  0.1993E-01  0.1995E-01  0.2528E+00  0.2528E+00
     10.491  0.1964E-01  0.1963E-01  0.2547E+00  0.2547E+00
     10.589  0.2154E-01  0.2153E-01  0.2567E+00  0.2567E+00
     10.687  0.2269E-01  0.2271E-01  0.2589E+00  0.2589E+00
     10.785  0.2121E-01  0.2124E-01  0.2610E+00  0.2610E+00
     10.883  0.1823E-01  0.1824E-01  0.2630E+00  0.2629E+00
     10.981  0.1671E-01  0.1673E-01  0.2647E+00  0.2647E+00
     11.079  0.2006E-01  0.2003E-01  0.2664E+00  0.2664E+00
     11.177  0.2184E-01  0.2182E-01  0.2685E+00  0.2685E+00
     11.275  0.2108E-01  0.2108E-01  0.2706E+00  0.2706E+00
     11.373  0.1958E-01  0.1958E-01  0.2726E+00  0.2726E+00
     11.471  0.1997E-01  0.1996E-01  0.2745E+00  0.2745E+00
     11.569  0.2213E-01  0.2209E-01  0.2766E+00  0.2765E+00
     11.667  0.2166E-01  0.2167E-01  0.2787E+00  0.2787E+00
     11.766  0.1807E-01  0.1819E-01  0.2807E+00  0.2807E+00
     11.864  0.1776E-01  0.1776E-01  0.2825E+00  0.2825E+00
     11.962  0.1971E-01  0.1955E-01  0.2842E+00  0.2842E+00
     12.060  0.2148E-01  0.2151E-01  0.2864E+00  0.2863E+00
     12.158  0.2070E-01  0.2070E-01  0.2884E+00  0.2884E+00
     12.256  0.2155E-01  0.2154E-01  0.2905E+00  0.2904E+00
     12.354  0.2084E-01  0.2089E-01  0.2926E+00  0.2926E+00
     12.452  0.2012E-01  0.2009E-01  0.2945E+00  0.2945E+00
     12.550  0.2263E-01  0.2262E-01  0.2966E+00  0.2966E+00
     12.648  0.2457E-01  0.2456E-01  0.2990E+00  0.2990E+00
     12.746  0.2462E-01  0.2478E-01  0.3014E+00  0.3014E+00
     12.844  0.2081E-01  0.2082E-01  0.3036E+00  0.3036E+00
     12.943  0.2323E-01  0.2330E-01  0.3059E+00  0.3059E+00
     13.041  0.2336E-01  0.2330E-01  0.3081E+00  0.3081E+00
     13.139  0.1796E-01  0.1802E-01  0.3102E+00  0.3102E+00
     13.237  0.1381E-01  0.1381E-01  0.3118E+00  0.3117E+00
     13.335  0.1641E-01  0.1640E-01  0.3132E+00  0.3132E+00
     13.433  0.1733E-01  0.1732E-01  0.3148E+00  0.3148E+00
     13.531  0.1127E-01  0.1128E-01  0.3161E+00  0.3161E+00
     13.629  0.1073E-01  0.1073E-01  0.3172E+00  0.3172E+00
     13.727  0.9834E-02  0.9837E-02  0.3182E+00  0.3182E+00
     13.825  0.8998E-02  0.8984E-02  0.3191E+00  0.3191E+00
     13.923  0.9821E-02  0.9907E-02  0.3201E+00  0.3201E+00
     14.021  0.8537E-02  0.8549E-02  0.3210E+00  0.3210E+00
     14.120  0.7933E-02  0.7937E-02  0.3218E+00  0.3218E+00
     14.218  0.5078E-02  0.5095E-02  0.3225E+00  0.3225E+00
     14.316  0.2918E-02  0.2934E-02  0.3229E+00  0.3229E+00
     14.414  0.1702E-02  0.1710E-02  0.3231E+00  0.3231E+00
     14.512  0.6745E-03  0.6829E-03  0.3232E+00  0.3232E+00
     14.610  0.4794E-04  0.5081E-04  0.3232E+00  0.3232E+00
     14.708  0.0000E+00  0.0000E+00  0.3232E+00  0.3232E+00
     14.806  0.0000E+00  0.0000E+00  0.3232E+00  0.3232E+00
     14.904  0.0000E+00  0.0000E+00  0.3232E+00  0.3232E+00
     15.002  0.0000E+00  0.0000E+00  0.3232E+00  0.3232E+00
     15.100  0.0000E+00  0.0000E+00  0.3232E+00  0.3232E+00
     15.198  0.0000E+00  0.0000E+00  0.3232E+00  0.3232E+00
     15.296  0.0000E+00  0.0000E+00  0.3232E+00  0.3232E+00
     15.395  0.0000E+00  0.0000E+00  0.3232E+00  0.3232E+00
     15.493  0.0000E+00  0.0000E+00  0.3232E+00  0.3232E+00
     15.591  0.0000E+00  0.0000E+00  0.3232E+00  0.3232E+00
     15.689  0.0000E+00  0.0000E+00  0.3232E+00  0.3232E+00
     15.787  0.0000E+00  0.0000E+00  0.3232E+00  0.3232E+00
     15.885  0.0000E+00  0.0000E+00  0.3232E+00  0.3232E+00
     15.983  0.0000E+00  0.0000E+00  0.3232E+00  0.3232E+00
     15.98304561    -13.44128989  301     -2.36522648      1.00000000
    -13.441  0.0000E+00  0.0000E+00  0.0000E+00  0.0000E+00  0.0000E+00  0.0000E+00  0.0000E+00  0.0000E+00  0.0000E+00  0.0000E+00  0.0000E+00  0.0000E+00  0.0000E+00  0.0000E+00  0.0000E+00  0.0000E+00  0.0000E+00  0.0000E+00
    -13.343  0.0000E+00  0.0000E+00  0.0000E+00  0.0000E+00  0.0000E+00  0.0000E+00  0.0000E+00  0.0000E+00  0.0000E+00  0.0000E+00  0.0000E+00  0.0000E+00  0.0000E+00  0.0000E+00  0.0000E+00  0.0000E+00  0.0000E+00  0.0000E+00
    -13.245  0.0000E+00  0.0000E+00  0.0000E+00  0.0000E+00  0.0000E+00  0.0000E+00  0.0000E+00  0.0000E+00  0.0000E+00  0.0000E+00  0.0000E+00  0.0000E+00  0.0000E+00  0.0000E+00  0.0000E+00  0.0000E+00  0.0000E+00  0.0000E+00
    -13.147  0.0000E+00  0.0000E+00  0.0000E+00  0.0000E+00  0.0000E+00  0.0000E+00  0.0000E+00  0.0000E+00  0.0000E+00  0.0000E+00  0.0000E+00  0.0000E+00  0.0000E+00  0.0000E+00  0.0000E+00  0.0000E+00  0.0000E+00  0.0000E+00
    -13.049  0.0000E+00  0.0000E+00  0.0000E+00  0.0000E+00  0.0000E+00  0.0000E+00  0.0000E+00  0.0000E+00  0.0000E+00  0.0000E+00  0.0000E+00  0.0000E+00  0.0000E+00  0.0000E+00  0.0000E+00  0.0000E+00  0.0000E+00  0.0000E+00
    -12.951  0.0000E+00  0.0000E+00  0.0000E+00  0.0000E+00  0.0000E+00  0.0000E+00  0.0000E+00  0.0000E+00  0.0000E+00  0.0000E+00  0.0000E+00  0.0000E+00  0.0000E+00  0.0000E+00  0.0000E+00  0.0000E+00  0.0000E+00  0.0000E+00
    -12.853  0.0000E+00  0.0000E+00  0.0000E+00  0.0000E+00  0.0000E+00  0.0000E+00  0.0000E+00  0.0000E+00  0.0000E+00  0.0000E+00  0.0000E+00  0.0000E+00  0.0000E+00  0.0000E+00  0.0000E+00  0.0000E+00  0.0000E+00  0.0000E+00
    -12.755  0.0000E+00  0.0000E+00  0.0000E+00  0.0000E+00  0.0000E+00  0.0000E+00  0.0000E+00  0.0000E+00  0.0000E+00  0.0000E+00  0.0000E+00  0.0000E+00  0.0000E+00  0.0000E+00  0.0000E+00  0.0000E+00  0.0000E+00  0.0000E+00
    -12.657  0.0000E+00  0.0000E+00  0.0000E+00  0.0000E+00  0.0000E+00  0.0000E+00  0.0000E+00  0.0000E+00  0.0000E+00  0.0000E+00  0.0000E+00  0.0000E+00  0.0000E+00  0.0000E+00  0.0000E+00  0.0000E+00  0.0000E+00  0.0000E+00
    -12.559  0.0000E+00  0.0000E+00  0.0000E+00  0.0000E+00  0.0000E+00  0.0000E+00  0.0000E+00  0.0000E+00  0.0000E+00  0.0000E+00  0.0000E+00  0.0000E+00  0.0000E+00  0.0000E+00  0.0000E+00  0.0000E+00  0.0000E+00  0.0000E+00
    -12.460  0.0000E+00  0.0000E+00  0.0000E+00  0.0000E+00  0.0000E+00  0.0000E+00  0.0000E+00  0.0000E+00  0.0000E+00  0.0000E+00  0.0000E+00  0.0000E+00  0.0000E+00  0.0000E+00  0.0000E+00  0.0000E+00  0.0000E+00  0.0000E+00
    -12.362  0.0000E+00  0.0000E+00  0.0000E+00  0.0000E+00  0.0000E+00  0.0000E+00  0.0000E+00  0.0000E+00  0.0000E+00  0.0000E+00  0.0000E+00  0.0000E+00  0.0000E+00  0.0000E+00  0.0000E+00  0.0000E+00  0.0000E+00  0.0000E+00
    -12.264  0.0000E+00  0.0000E+00  0.0000E+00  0.0000E+00  0.0000E+00  0.0000E+00  0.0000E+00  0.0000E+00  0.0000E+00  0.0000E+00  0.0000E+00  0.0000E+00  0.0000E+00  0.0000E+00  0.0000E+00  0.0000E+00  0.0000E+00  0.0000E+00
    -12.166  0.0000E+00  0.0000E+00  0.0000E+00  0.0000E+00  0.0000E+00  0.0000E+00  0.0000E+00  0.0000E+00  0.0000E+00  0.0000E+00  0.0000E+00  0.0000E+00  0.0000E+00  0.0000E+00  0.0000E+00  0.0000E+00  0.0000E+00  0.0000E+00
    -12.068  0.1187E-03  0.1183E-03  0.2359E-06  0.2354E-06  0.2435E-05  0.2429E-05  0.4404E-07  0.4390E-07  0.0000E+00  0.0000E+00  0.0000E+00  0.0000E+00  0.0000E+00  0.0000E+00  0.0000E+00  0.0000E+00  0.0000E+00  0.0000E+00
    -11.970  0.3148E-03  0.3146E-03  0.5978E-06  0.5977E-06  0.6518E-05  0.6519E-05  0.1356E-06  0.1356E-06  0.0000E+00  0.0000E+00  0.0000E+00  0.0000E+00  0.0000E+00  0.0000E+00  0.0000E+00  0.0000E+00  0.0000E+00  0.0000E+00
    -11.872  0.3269E-03  0.3271E-03  0.5898E-06  0.5898E-06  0.6967E-05  0.6976E-05  0.1872E-06  0.1873E-06  0.0000E+00  0.0000E+00  0.0000E+00  0.0000E+00  0.0000E+00  0.0000E+00  0.0000E+00  0.0000E+00  0.0000E+00  0.0000E+00
    -11.774  0.2211E-03  0.2211E-03  0.4049E-06  0.4044E-06  0.4866E-05  0.4870E-05  0.1952E-06  0.1953E-06  0.0000E+00  0.0000E+00  0.0000E+00  0.0000E+00  0.0000E+00  0.0000E+00  0.0000E+00  0.0000E+00  0.0000E+00  0.0000E+00
    -11.676  0.1647E-03  0.1647E-03  0.3215E-06  0.3211E-06  0.3651E-05  0.3653E-05  0.1931E-06  0.1932E-06  0.0000E+00  0.0000E+00  0.0000E+00  0.0000E+00  0.0000E+00  0.0000E+00  0.0000E+00  0.0000E+00  0.0000E+00  0.0000E+00
    -11.578  0.1690E-03  0.1689E-03  0.3297E-06  0.3292E-06  0.3779E-05  0.3781E-05  0.2140E-06  0.2141E-06  0.0000E+00  0.0000E+00  0.0000E+00  0.0000E+00  0.0000E+00  0.0000E+00  0.0000E+00  0.0000E+00  0.0000E+00  0.0000E+00
    -11.480  0.1732E-03  0.1731E-03  0.3378E-06  0.3373E-06  0.3906E-05  0.3908E-05  0.2348E-06  0.2349E-06  0.0000E+00  0.0000E+00  0.0000E+00  0.0000E+00  0.0000E+00  0.0000E+00  0.0000E+00  0.0000E+00  0.0000E+00  0.0000E+00
    -11.382  0.1773E-03  0.1773E-03  0.3459E-06  0.3453E-06  0.4032E-05  0.4034E-05  0.2554E-06  0.2555E-06  0.0000E+00  0.0000E+00  0.0000E+00  0.0000E+00  0.0000E+00  0.0000E+00  0.0000E+00  0.0000E+00  0.0000E+00  0.0000E+00
    -11.284  0.1758E-03  0.1758E-03  0.3486E-06  0.3480E-06  0.4157E-05  0.4159E-05  0.2999E-06  0.3000E-06  0.0000E+00  0.0000E+00  0.0000E+00  0.0000E+00  0.0000E+00  0.0000E+00  0.0000E+00  0.0000E+00  0.0000E+00  0.0000E+00
    -11.185  0.1735E-03  0.1734E-03  0.3604E-06  0.3597E-06  0.4336E-05  0.4338E-05  0.3620E-06  0.3622E-06  0.0000E+00  0.0000E+00  0.0000E+00  0.0000E+00  0.0000E+00  0.0000E+00  0.0000E+00  0.0000E+00  0.0000E+00  0.0000E+00
    -11.087  0.1716E-03  0.1715E-03  0.3727E-06  0.3721E-06  0.4451E-05  0.4452E-05  0.4008E-06  0.4010E-06  0.0000E+00  0.0000E+00  0.0000E+00  0.0000E+00  0.0000E+00  0.0000E+00  0.0000E+00  0.0000E+00  0.0000E+00  0.0000E+00
    -10.989  0.1784E-03  0.1784E-03  0.3920E-06  0.3913E-06  0.4680E-05  0.4681E-05  0.4280E-06  0.4282E-06  0.0000E+00  0.0000E+00  0.0000E+00  0.0000E+00  0.0000E+00  0.0000E+00  0.0000E+00  0.0000E+00  0.0000E+00  0.0000E+00
    -10.891  0.1853E-03  0.1853E-03  0.4112E-06  0.4105E-06  0.4908E-05  0.4909E-05  0.4550E-06  0.4552E-06  0.0000E+00  0.0000E+00  0.0000E+00  0.0000E+00  0.0000E+00  0.0000E+00  0.0000E+00  0.0000E+00  0.0000E+00  0.0000E+00
    -10.793  0.1922E-03  0.1921E-03  0.4304E-06  0.4297E-06  0.5135E-05  0.5136E-05  0.4820E-06  0.4823E-06  0.0000E+00  0.0000E+00  0.0000E+00  0.0000E+00  0.0000E+00  0.0000E+00  0.0000E+00  0.0000E+00  0.0000E+00  0.0000E+00
    -10.695  0.1990E-03  0.1989E-03  0.4495E-06  0.4488E-06  0.5361E-05  0.5363E-05  0.5089E-06  0.5092E-06  0.0000E+00  0.0000E+00  0.0000E+00  0.0000E+00  0.0000E+00  0.0000E+00  0.0000E+00  0.0000E+00  0.0000E+00  0.0000E+00
    -10.597  0.2058E-03  0.2057E-03  0.4685E-06  0.4678E-06  0.5587E-05  0.5588E-05  0.5358E-06  0.5360E-06  0.0000E+00  0.0000E+00  0.0000E+00  0.0000E+00  0.0000E+00  0.0000E+00  0.0000E+00  0.0000E+00  0.0000E+00  0.0000E+00
    -10.499  0.2126E-03  0.2125E-03  0.4875E-06  0.4868E-06  0.5812E-05  0.5813E-05  0.5625E-06  0.5628E-06  0.0000E+00  0.0000E+00  0.0000E+00  0.0000E+00  0.0000E+00  0.0000E+00  0.0000E+00  0.0000E+00  0.0000E+00  0.0000E+00
    -10.401  0.2228E-01  0.2226E-01  0.6005E-04  0.6000E-04  0.7576E-03  0.7568E-03  0.2486E-05  0.2485E-05  0.0000E+00  0.0000E+00  0.0000E+00  0.0000E+00  0.0000E+00  0.0000E+00  0.0000E+00  0.0000E+00  0.0000E+00  0.0000E+00
    -10.303  0.3558E-01  0.3560E-01  0.1025E-03  0.1026E-03  0.1213E-02  0.1213E-02  0.5492E-05  0.5494E-05  0.0000E+00  0.0000E+00  0.0000E+00  0.0000E+00  0.0000E+00  0.0000E+00  0.0000E+00  0.0000E+00  0.0000E+00  0.0000E+00
    -10.205  0.3205E-01  0.3205E-01  0.9994E-04  0.9998E-04  0.1094E-02  0.1095E-02  0.7035E-05  0.7037E-05  0.0000E+00  0.0000E+00  0.0000E+00  0.0000E+00  0.0000E+00  0.0000E+00  0.0000E+00  0.0000E+00  0.0000E+00  0.0000E+00
    -10.107  0.3626E-01  0.3626E-01  0.1269E-03  0.1270E-03  0.1232E-02  0.1232E-02  0.9396E-05  0.9399E-05  0.0000E+00  0.0000E+00  0.0000E+00  0.0000E+00  0.0000E+00  0.0000E+00  0.0000E+00  0.0000E+00  0.0000E+00  0.0000E+00
    -10.008  0.4018E-01  0.4020E-01  0.1535E-03  0.1536E-03  0.1362E-02  0.1363E-02  0.1175E-04  0.1176E-04  0.0000E+00  0.0000E+00  0.0000E+00  0.0000E+00  0.0000E+00  0.0000E+00  0.0000E+00  0.0000E+00  0.0000E+00  0.0000E+00
     -9.910  0.3013E-01  0.3015E-01  0.1073E-03  0.1074E-03  0.1041E-02  0.1041E-02  0.1248E-04  0.1249E-04  0.0000E+00  0.0000E+00  0.0000E+00  0.0000E+00  0.0000E+00  0.0000E+00  0.0000E+00  0.0000E+00  0.0000E+00  0.0000E+00
     -9.812  0.2533E-01  0.2533E-01  0.8918E-04  0.8923E-04  0.8870E-03  0.8873E-03  0.1331E-04  0.1331E-04  0.0000E+00  0.0000E+00  0.0000E+00  0.0000E+00  0.0000E+00  0.0000E+00  0.0000E+00  0.0000E+00  0.0000E+00  0.0000E+00
     -9.714  0.2917E-01  0.2916E-01  0.9567E-04  0.9569E-04  0.1016E-02  0.1016E-02  0.1483E-04  0.1483E-04  0.0000E+00  0.0000E+00  0.0000E+00  0.0000E+00  0.0000E+00  0.0000E+00  0.0000E+00  0.0000E+00  0.0000E+00  0.0000E+00
     -9.616  0.3642E-01  0.3642E-01  0.1016E-03  0.1017E-03  0.1254E-02  0.1254E-02  0.1691E-04  0.1691E-04  0.0000E+00  0.0000E+00  0.0000E+00  0.0000E+00  0.0000E+00  0.0000E+00  0.0000E+00  0.0000E+00  0.0000E+00  0.0000E+00
     -9.518  0.4213E-01  0.4211E-01  0.1052E-03  0.1052E-03  0.1477E-02  0.1477E-02  0.1905E-04  0.1905E-04  0.0000E+00  0.0000E+00  0.0000E+00  0.0000E+00  0.0000E+00  0.0000E+00  0.0000E+00  0.0000E+00  0.0000E+00  0.0000E+00
     -9.420  0.3700E-01  0.3701E-01  0.9751E-04  0.9756E-04  0.1321E-02  0.1322E-02  0.2050E-04  0.2050E-04  0.0000E+00  0.0000E+00  0.0000E+00  0.0000E+00  0.0000E+00  0.0000E+00  0.0000E+00  0.0000E+00  0.0000E+00  0.0000E+00
     -9.322  0.4789E-01  0.4790E-01  0.1380E-03  0.1381E-03  0.1744E-02  0.1744E-02  0.2284E-04  0.2285E-04  0.0000E+00  0.0000E+00  0.0000E+00  0.0000E+00  0.0000E+00  0.0000E+00  0.0000E+00  0.0000E+00  0.0000E+00  0.0000E+00
     -9.224  0.5235E-01  0.5235E-01  0.1500E-03  0.1500E-03  0.1934E-02  0.1934E-02  0.2490E-04  0.2491E-04  0.0000E+00  0.0000E+00  0.0000E+00  0.0000E+00  0.0000E+00  0.0000E+00  0.0000E+00  0.0000E+00  0.0000E+00  0.0000E+00
     -9.126  0.5841E-01  0.5843E-01  0.1678E-03  0.1679E-03  0.2175E-02  0.2176E-02  0.2977E-04  0.2978E-04  0.0000E+00  0.0000E+00  0.0000E+00  0.0000E+00  0.0000E+00  0.0000E+00  0.0000E+00  0.0000E+00  0.0000E+00  0.0000E+00
     -9.028  0.5822E-01  0.5823E-01  0.1633E-03  0.1634E-03  0.2214E-02  0.2214E-02  0.3474E-04  0.3476E-04  0.0000E+00  0.0000E+00  0.0000E+00  0.0000E+00  0.0000E+00  0.0000E+00  0.0000E+00  0.0000E+00  0.0000E+00  0.0000E+00
     -8.930  0.6057E-01  0.6057E-01  0.1745E-03  0.1745E-03  0.2325E-02  0.2325E-02  0.3091E-04  0.3092E-04  0.0000E+00  0.0000E+00  0.0000E+00  0.0000E+00  0.0000E+00  0.0000E+00  0.0000E+00  0.0000E+00  0.0000E+00  0.0000E+00
     -8.831  0.6626E-01  0.6625E-01  0.2039E-03  0.2039E-03  0.2580E-02  0.2579E-02  0.2657E-04  0.2658E-04  0.0000E+00  0.0000E+00  0.0000E+00  0.0000E+00  0.0000E+00  0.0000E+00  0.0000E+00  0.0000E+00  0.0000E+00  0.0000E+00
     -8.733  0.7371E-01  0.7371E-01  0.2374E-03  0.2374E-03  0.2900E-02  0.2900E-02  0.2860E-04  0.2861E-04  0.0000E+00  0.0000E+00  0.0000E+00  0.0000E+00  0.0000E+00  0.0000E+00  0.0000E+00  0.0000E+00  0.0000E+00  0.0000E+00
     -8.635  0.1060E+00  0.1060E+00  0.3630E-03  0.3630E-03  0.4005E-02  0.4005E-02  0.3721E-04  0.3721E-04  0.0000E+00  0.0000E+00  0.0000E+00  0.0000E+00  0.0000E+00  0.0000E+00  0.0000E+00  0.0000E+00  0.0000E+00  0.0000E+00
     -8.537  0.1481E+00  0.1481E+00  0.5020E-03  0.5020E-03  0.5858E-02  0.5859E-02  0.5598E-04  0.5600E-04  0.0000E+00  0.0000E+00  0.0000E+00  0.0000E+00  0.0000E+00  0.0000E+00  0.0000E+00  0.0000E+00  0.0000E+00  0.0000E+00