   17   17   99    2
  0.5952949E+01  0.2831802E-09  0.4661236E-09  0.8091803E-09  0.5000000E-15
  1.000000000000000E-004
  CAR 
 unknown system                          
     17     68     32
 
  0.3742002E-15  0.3742002E-15  0.1262379E-14  0.7407407E-02
    1      -12.103820    -12.103721   1.000000   1.000000
    2      -10.424201    -10.424142   1.000000   1.000000
    3       -9.559826     -9.559587   1.000000   1.000000
    4       -9.136220     -9.136156   1.000000   1.000000
    5       -8.412716     -8.412719   1.000000   1.000000
    6       -7.936664     -7.936574   1.000000   1.000000
    7       -7.710510     -7.710449   1.000000   1.000000
    8       -7.597828     -7.597800   1.000000   1.000000
    9        1.039223      1.039925   0.000000   0.000000
   10        1.772457      1.774884   0.000000   0.000000
   11        1.952502      1.953538   0.000000   0.000000
   12        3.683883      3.685428   0.000000   0.000000
   13        3.975692      3.978007   0.000000   0.000000
   14        4.378924      4.379898   0.000000   0.000000
   15        4.695310      4.695306   0.000000   0.000000
   16        4.790696      4.790690   0.000000   0.000000
   17        5.104650      5.104777   0.000000   0.000000
   18        5.648583      5.648738   0.000000   0.000000
   19        6.285620      6.286787   0.000000   0.000000
   20        8.605790      8.609531   0.000000   0.000000
   21        9.688698      9.688814   0.000000   0.000000
   22        9.909884      9.910985   0.000000   0.000000
   23       10.254188     10.254199   0.000000   0.000000
   24       11.253285     11.253881   0.000000   0.000000
   25       11.306859     11.308336   0.000000   0.000000
   26       11.920270     11.920746   0.000000   0.000000
   27       12.498832     12.499416   0.000000   0.000000
   28       12.824696     12.828429   0.000000   0.000000
   29       13.169385     13.169468   0.000000   0.000000
   30       13.318682     13.320733   0.000000   0.000000
   31       13.554276     13.554420   0.000000   0.000000
   32       14.103635     14.103647   0.000000   0.000000
 
  0.1111111E+00  0.1252791E-14  0.1260304E-14  0.1481481E-01
    1      -11.900876    -11.900778   1.000000   1.000000
    2      -10.282262    -10.282208   1.000000   1.000000
    3       -9.447932     -9.447709   1.000000   1.000000
    4       -9.023572     -9.023507   1.000000   1.000000
    5       -8.344203     -8.344200   1.000000   1.000000
    6       -7.907487     -7.907408   1.000000   1.000000
    7       -7.696173     -7.696122   1.000000   1.000000
    8       -7.543861     -7.543814   1.000000   1.000000
    9        1.183002      1.183321   0.000000   0.000000
   10        1.419025      1.419492   0.000000   0.000000
   11        2.002183      2.004601   0.000000   0.000000
   12        2.164772      2.165816   0.000000   0.000000
   13        3.588045      3.589776   0.000000   0.000000
   14        4.003625      4.005194   0.000000   0.000000
   15        4.381002      4.382222   0.000000   0.000000
   16        4.839429      4.839565   0.000000   0.000000
   17        5.656797      5.657061   0.000000   0.000000
   18        6.366312      6.367060   0.000000   0.000000
   19        8.039941      8.043161   0.000000   0.000000
   20        8.327223      8.328429   0.000000   0.000000
   21        8.670793      8.671427   0.000000   0.000000
   22        8.725569      8.725674   0.000000   0.000000
   23        9.758161      9.758378   0.000000   0.000000
   24       10.096708     10.097684   0.000000   0.000000
   25       10.683236     10.683932   0.000000   0.000000
   26       11.231711     11.232619   0.000000   0.000000
   27       11.803492     11.803801   0.000000   0.000000
   28       12.743248     12.744866   0.000000   0.000000
   29       13.210820     13.211436   0.000000   0.000000
   30       13.572668     13.573169   0.000000   0.000000
   31       14.079942     14.081077   0.000000   0.000000
   32       14.298259     14.299852   0.000000   0.000000
 
  0.2222222E+00  0.3746556E-15  0.3770827E-15  0.1481481E-01
    1      -11.296463    -11.296366   1.000000   1.000000
    2       -9.873091     -9.873046   1.000000   1.000000
    3       -9.129719     -9.129539   1.000000   1.000000
    4       -8.717656     -8.717592   1.000000   1.000000
    5       -8.162190     -8.162173   1.000000   1.000000
    6       -7.829156     -7.829092   1.000000   1.000000
    7       -7.661724     -7.661684   1.000000   1.000000
    8       -7.468586     -7.468520   1.000000   1.000000
    9       -1.708089     -1.708032   0.198499   0.198481
   10        1.796997      1.797580   0.000000   0.000000
   11        2.562508      2.565068   0.000000   0.000000
   12        2.749018      2.750021   0.000000   0.000000
   13        3.246108      3.247725   0.000000   0.000000
   14        3.883769      3.884555   0.000000   0.000000
   15        4.087879      4.089269   0.000000   0.000000
   16        4.799623      4.800043   0.000000   0.000000
   17        5.569404      5.569339   0.000000   0.000000
   18        6.207493      6.208269   0.000000   0.000000
   19        6.613504      6.614637   0.000000   0.000000
   20        7.029229      7.030398   0.000000   0.000000
   21        7.385857      7.387951   0.000000   0.000000
   22        8.383681      8.384779   0.000000   0.000000
   23        9.033267      9.034207   0.000000   0.000000
   24        9.763971      9.764410   0.000000   0.000000
   25       10.581937     10.582620   0.000000   0.000000
   26       11.331267     11.332301   0.000000   0.000000
   27       12.158564     12.159458   0.000000   0.000000
   28       12.705141     12.705720   0.000000   0.000000
   29       12.921892     12.921972   0.000000   0.000000
   30       13.098318     13.098644   0.000000   0.000000
   31       13.470911     13.471808   0.000000   0.000000
   32       13.929095     13.929537   0.000000   0.000000
 
  0.3333333E+00  0.1215217E-14  0.1278264E-14  0.1481481E-01
    1      -10.317760    -10.317666   1.000000   1.000000
    2       -9.251676     -9.251646   1.000000   1.000000
    3       -8.658854     -8.658740   1.000000   1.000000
    4       -8.318824     -8.318759   1.000000   1.000000
    5       -7.942365     -7.942337   1.000000   1.000000
    6       -7.765068     -7.765023   1.000000   1.000000
    7       -7.682747     -7.682715   1.000000   1.000000
    8       -7.505826     -7.505742   1.000000   1.000000
    9       -4.353671     -4.353609   1.053473   1.053467
   10        2.296731      2.297778   0.000000   0.000000
   11        2.689930      2.691064   0.000000   0.000000
   12        2.951322      2.952394   0.000000   0.000000
   13        3.149713      3.150989   0.000000   0.000000
   14        3.644292      3.646428   0.000000   0.000000
   15        3.916564      3.917169   0.000000   0.000000
   16        4.541487      4.541584   0.000000   0.000000
   17        5.276416      5.277038   0.000000   0.000000
   18        5.449701      5.450910   0.000000   0.000000
   19        5.836797      5.837062   0.000000   0.000000
   20        6.789584      6.790739   0.000000   0.000000
   21        7.284996      7.285675   0.000000   0.000000
   22        7.870200      7.872069   0.000000   0.000000
   23        8.699234      8.700801   0.000000   0.000000
   24        9.304303      9.304945   0.000000   0.000000
   25       10.306773     10.306949   0.000000   0.000000
   26       10.709270     10.709910   0.000000   0.000000
   27       10.946174     10.946523   0.000000   0.000000
   28       11.267585     11.269521   0.000000   0.000000
   29       11.847426     11.848460   0.000000   0.000000
   30       12.025990     12.027107   0.000000   0.000000
   31       13.065686     13.066528   0.000000   0.000000
   32       13.270054     13.270562   0.000000   0.000000
 
  0.4444444E+00  0.3725530E-15  0.3759025E-15  0.1481481E-01
    1       -9.119133     -9.119056   1.000000   1.000000
    2       -8.548972     -8.548947   1.000000   1.000000
    3       -8.269664     -8.269630   1.000000   1.000000
    4       -8.026551     -8.026499   1.000000   1.000000
    5       -7.922787     -7.922727   1.000000   1.000000
    6       -7.778232     -7.778151   1.000000   1.000000
    7       -7.702679     -7.702647   1.000000   1.000000
    8       -7.589029     -7.588961   1.000000   1.000000
    9       -6.495773     -6.495714   1.000000   1.000000
   10        2.130656      2.132026   0.000000   0.000000
   11        2.377080      2.378085   0.000000   0.000000
   12        2.507838      2.509264   0.000000   0.000000
   13        3.036682      3.037197   0.000000   0.000000
   14        3.604329      3.605259   0.000000   0.000000
   15        3.835387      3.836064   0.000000   0.000000
   16        4.587649      4.588196   0.000000   0.000000
   17        5.441101      5.442593   0.000000   0.000000
   18        5.923618      5.923881   0.000000   0.000000
   19        6.483638      6.484420   0.000000   0.000000
   20        6.876850      6.877709   0.000000   0.000000
   21        7.411321      7.411735   0.000000   0.000000
   22        7.764911      7.765772   0.000000   0.000000
   23        8.335298      8.337051   0.000000   0.000000
   24        8.658739      8.660413   0.000000   0.000000
   25        9.349867      9.350508   0.000000   0.000000
   26        9.677726      9.678690   0.000000   0.000000
   27        9.838787      9.840006   0.000000   0.000000
   28       10.557064     10.558009   0.000000   0.000000
   29       11.021537     11.022223   0.000000   0.000000
   30       11.614753     11.616344   0.000000   0.000000
   31       12.566476     12.567695   0.000000   0.000000
   32       13.125027     13.125640   0.000000   0.000000
 
  0.3737151E-15  0.2000000E+00  0.1264495E-14  0.1481481E-01
    1      -12.047610    -12.047523   1.000000   1.000000
    2      -10.333555    -10.333487   1.000000   1.000000
    3       -9.455161     -9.454955   1.000000   1.000000
    4       -9.264012     -9.263922   1.000000   1.000000
    5       -8.630577     -8.630541   1.000000   1.000000
    6       -8.215621     -8.215551   1.000000   1.000000
    7       -7.628656     -7.628590   1.000000   1.000000
    8       -7.464803     -7.464746   1.000000   1.000000
    9        1.126554      1.127417   0.000000   0.000000
   10        2.138720      2.140691   0.000000   0.000000
   11        2.353732      2.355136   0.000000   0.000000
   12        3.356878      3.358422   0.000000   0.000000
   13        4.083068      4.084510   0.000000   0.000000
   14        4.452624      4.453788   0.000000   0.000000
   15        4.716727      4.716879   0.000000   0.000000
   16        4.818356      4.818649   0.000000   0.000000
   17        5.087422      5.088205   0.000000   0.000000
   18        5.338362      5.338701   0.000000   0.000000
   19        7.357703      7.358260   0.000000   0.000000
   20        8.060759      8.063853   0.000000   0.000000
   21        9.359559      9.359743   0.000000   0.000000
   22        9.923990      9.924999   0.000000   0.000000
   23       10.252331     10.252704   0.000000   0.000000
   24       10.935119     10.936142   0.000000   0.000000
   25       11.389493     11.390375   0.000000   0.000000
   26       11.562032     11.563173   0.000000   0.000000
   27       12.269704     12.271993   0.000000   0.000000
   28       12.621924     12.622572   0.000000   0.000000
   29       12.884118     12.884288   0.000000   0.000000
   30       13.390147     13.391393   0.000000   0.000000
   31       13.860295     13.860629   0.000000   0.000000
   32       14.013485     14.013714   0.000000   0.000000
 
  0.1111111E+00  0.2000000E+00  0.3794547E-15  0.1481481E-01
    1      -11.818831    -11.818750   1.000000   1.000000
    2      -10.155475    -10.155407   1.000000   1.000000
    3       -9.345173     -9.344978   1.000000   1.000000
    4       -9.154785     -9.154701   1.000000   1.000000
    5       -8.618861     -8.618828   1.000000   1.000000
    6       -8.244113     -8.244031   1.000000   1.000000
    7       -7.609507     -7.609440   1.000000   1.000000
    8       -7.411107     -7.411051   1.000000   1.000000
    9        1.300785      1.300865   0.000000   0.000000
   10        1.471398      1.472136   0.000000   0.000000
   11        2.453441      2.455445   0.000000   0.000000
   12        2.595726      2.597707   0.000000   0.000000
   13        3.152067      3.153186   0.000000   0.000000
   14        4.192845      4.194104   0.000000   0.000000
   15        4.474284      4.475371   0.000000   0.000000
   16        4.867686      4.868586   0.000000   0.000000
   17        5.633552      5.634285   0.000000   0.000000
   18        7.334409      7.334706   0.000000   0.000000
   19        7.547501      7.550362   0.000000   0.000000
   20        8.467163      8.467351   0.000000   0.000000
   21        8.717343      8.717484   0.000000   0.000000
   22        8.911910      8.912534   0.000000   0.000000
   23        9.670392      9.670494   0.000000   0.000000
   24       10.089935     10.091690   0.000000   0.000000
   25       10.695369     10.695942   0.000000   0.000000
   26       10.984476     10.984705   0.000000   0.000000
   27       11.671872     11.672135   0.000000   0.000000
   28       12.006471     12.008427   0.000000   0.000000
   29       12.486814     12.487661   0.000000   0.000000
   30       12.823793     12.824439   0.000000   0.000000
   31       13.004464     13.004680   0.000000   0.000000
   32       14.142230     14.142226   0.000000   0.000000
 
  0.2222222E+00  0.2000000E+00  0.3577860E-15  0.1481481E-01
    1      -11.186740    -11.186666   1.000000   1.000000
    2       -9.723462     -9.723399   1.000000   1.000000
    3       -9.090519     -9.090356   1.000000   1.000000
    4       -8.797398     -8.797317   1.000000   1.000000
    5       -8.452960     -8.452936   1.000000   1.000000
    6       -8.144825     -8.144736   1.000000   1.000000
    7       -7.565052     -7.564997   1.000000   1.000000
    8       -7.398241     -7.398189   1.000000   1.000000
    9       -1.708128     -1.708060   0.197170   0.197150
   10        2.079625      2.080072   0.000000   0.000000
   11        2.744724      2.746921   0.000000   0.000000
   12        2.798221      2.800973   0.000000   0.000000
   13        3.227258      3.227859   0.000000   0.000000
   14        4.048434      4.049529   0.000000   0.000000
   15        4.180061      4.180723   0.000000   0.000000
   16        4.793513      4.794639   0.000000   0.000000
   17        6.076639      6.077290   0.000000   0.000000
   18        6.344359      6.344822   0.000000   0.000000
   19        6.667929      6.669442   0.000000   0.000000
   20        7.345492      7.345977   0.000000   0.000000
   21        7.811557      7.811820   0.000000   0.000000
   22        9.007604      9.008111   0.000000   0.000000
   23        9.378350      9.379987   0.000000   0.000000
   24        9.763379      9.763570   0.000000   0.000000
   25       10.387693     10.388349   0.000000   0.000000
   26       10.953944     10.954074   0.000000   0.000000
   27       11.530773     11.531166   0.000000   0.000000
   28       11.844419     11.844899   0.000000   0.000000
   29       12.120022     12.121121   0.000000   0.000000
   30       12.499024     12.499489   0.000000   0.000000
   31       12.901421     12.901473   0.000000   0.000000
   32       13.065108     13.066251   0.000000   0.000000
 
  0.3333333E+00  0.2000000E+00  0.3765980E-15  0.1481481E-01
    1      -10.167091    -10.167025   1.000000   1.000000
    2       -9.105740     -9.105686   1.000000   1.000000
    3       -8.690498     -8.690369   1.000000   1.000000
    4       -8.357558     -8.357496   1.000000   1.000000
    5       -8.222350     -8.222330   1.000000   1.000000
    6       -7.976049     -7.975983   1.000000   1.000000
    7       -7.632074     -7.632053   1.000000   1.000000
    8       -7.476828     -7.476750   1.000000   1.000000
    9       -4.330290     -4.330226   1.052754   1.052748
   10        2.383969      2.385518   0.000000   0.000000
   11        2.590612      2.592589   0.000000   0.000000
   12        2.847662      2.848946   0.000000   0.000000
   13        3.212527      3.213343   0.000000   0.000000
   14        3.665775      3.665889   0.000000   0.000000
   15        3.842273      3.843683   0.000000   0.000000
   16        4.925272      4.926181   0.000000   0.000000
   17        5.482242      5.482542   0.000000   0.000000
   18        5.801770      5.802888   0.000000   0.000000
   19        6.542160      6.542354   0.000000   0.000000
   20        7.285256      7.285675   0.000000   0.000000
   21        7.786508      7.786910   0.000000   0.000000
   22        8.428262      8.428955   0.000000   0.000000
   23        9.099030      9.100693   0.000000   0.000000
   24        9.432000      9.432988   0.000000   0.000000
   25        9.560183      9.560844   0.000000   0.000000
   26       10.038343     10.038502   0.000000   0.000000
   27       10.455898     10.456387   0.000000   0.000000
   28       10.834956     10.835585   0.000000   0.000000
   29       11.306115     11.307215   0.000000   0.000000
   30       11.892895     11.894278   0.000000   0.000000
   31       12.143308     12.144347   0.000000   0.000000
   32       12.457612     12.459002   0.000000   0.000000
 
  0.4444444E+00  0.2000000E+00  0.3563962E-15  0.1481481E-01
    1       -8.895986     -8.895937   1.000000   1.000000
    2       -8.451108     -8.451072   1.000000   1.000000
    3       -8.243816     -8.243720   1.000000   1.000000
    4       -8.225532     -8.225500   1.000000   1.000000
    5       -8.127223     -8.127183   1.000000   1.000000
    6       -7.840041     -7.840004   1.000000   1.000000
    7       -7.766496     -7.766425   1.000000   1.000000
    8       -7.525733     -7.525660   1.000000   1.000000
    9       -6.432704     -6.432654   1.000000   1.000000
   10        2.006621      2.008230   0.000000   0.000000
   11        2.280503      2.282274   0.000000   0.000000
   12        2.729816      2.731037   0.000000   0.000000
   13        2.973453      2.973817   0.000000   0.000000
   14        3.522291      3.522418   0.000000   0.000000
   15        3.903164      3.904164   0.000000   0.000000
   16        4.642836      4.643394   0.000000   0.000000
   17        5.545387      5.545641   0.000000   0.000000
   18        6.054448      6.055084   0.000000   0.000000
   19        6.907177      6.909011   0.000000   0.000000
   20        7.248698      7.249682   0.000000   0.000000
   21        7.356886      7.357557   0.000000   0.000000
   22        7.768749      7.769052   0.000000   0.000000
   23        8.426104      8.427209   0.000000   0.000000
   24        8.997692      8.998349   0.000000   0.000000
   25        9.258403      9.259276   0.000000   0.000000
   26        9.528615      9.529591   0.000000   0.000000
   27       10.162195     10.163638   0.000000   0.000000
   28       10.460207     10.461058   0.000000   0.000000
   29       11.069883     11.070879   0.000000   0.000000
   30       11.448383     11.450063   0.000000   0.000000
   31       11.896549     11.897287   0.000000   0.000000
   32       12.566795     12.568515   0.000000   0.000000
 
 -0.4444444E+00  0.2000000E+00  0.3897109E-15  0.1481481E-01
    1       -9.203723     -9.203640   1.000000   1.000000
    2       -8.613230     -8.613206   1.000000   1.000000
    3       -8.250893     -8.250863   1.000000   1.000000
    4       -7.924204     -7.924146   1.000000   1.000000
    5       -7.819697     -7.819640   1.000000   1.000000
    6       -7.781576     -7.781512   1.000000   1.000000
    7       -7.671235     -7.671181   1.000000   1.000000
    8       -7.594497     -7.594448   1.000000   1.000000
    9       -6.553502     -6.553433   1.000000   1.000000
   10        2.052226      2.053676   0.000000   0.000000
   11        2.264815      2.266435   0.000000   0.000000
   12        2.645289      2.646102   0.000000   0.000000
   13        3.265480      3.265913   0.000000   0.000000
   14        3.544583      3.544694   0.000000   0.000000
   15        4.055965      4.056982   0.000000   0.000000
   16        4.587073      4.587049   0.000000   0.000000
   17        5.091977      5.093486   0.000000   0.000000
   18        5.322181      5.323616   0.000000   0.000000
   19        5.851167      5.851752   0.000000   0.000000
   20        6.754096      6.755411   0.000000   0.000000
   21        7.348859      7.349938   0.000000   0.000000
   22        7.871054      7.871906   0.000000   0.000000
   23        8.638412      8.640719   0.000000   0.000000
   24        9.205447      9.206253   0.000000   0.000000
   25        9.373884      9.374287   0.000000   0.000000
   26        9.922103      9.922596   0.000000   0.000000
   27       10.420189     10.420597   0.000000   0.000000
   28       11.045827     11.046552   0.000000   0.000000
   29       11.556794     11.559756   0.000000   0.000000
   30       11.916120     11.916873   0.000000   0.000000
   31       12.252980     12.253303   0.000000   0.000000
   32       12.975576     12.976419   0.000000   0.000000
 
 -0.3333333E+00  0.2000000E+00  0.3752954E-15  0.1481481E-01
    1      -10.357506    -10.357407   1.000000   1.000000
    2       -9.280103     -9.280074   1.000000   1.000000
    3       -8.690444     -8.690354   1.000000   1.000000
    4       -8.260420     -8.260343   1.000000   1.000000
    5       -7.917307     -7.917272   1.000000   1.000000
    6       -7.770070     -7.770030   1.000000   1.000000
    7       -7.577386     -7.577326   1.000000   1.000000
    8       -7.518530     -7.518468   1.000000   1.000000
    9       -4.365517     -4.365456   1.053789   1.053784
   10        2.285462      2.286757   0.000000   0.000000
   11        2.718697      2.719986   0.000000   0.000000
   12        2.865936      2.866724   0.000000   0.000000
   13        3.437827      3.439532   0.000000   0.000000
   14        3.608037      3.609192   0.000000   0.000000
   15        4.023175      4.023185   0.000000   0.000000
   16        4.289229      4.289818   0.000000   0.000000
   17        4.699893      4.699974   0.000000   0.000000
   18        5.227862      5.229569   0.000000   0.000000
   19        5.883060      5.883385   0.000000   0.000000
   20        6.364447      6.367140   0.000000   0.000000
   21        7.592152      7.593174   0.000000   0.000000
   22        8.012222      8.012390   0.000000   0.000000
   23        8.652319      8.654235   0.000000   0.000000
   24        9.261362      9.261896   0.000000   0.000000
   25        9.641541      9.642206   0.000000   0.000000
   26       10.848910     10.850195   0.000000   0.000000
   27       11.173091     11.173974   0.000000   0.000000
   28       11.519482     11.521295   0.000000   0.000000
   29       12.696661     12.697150   0.000000   0.000000
   30       12.928920     12.929294   0.000000   0.000000
   31       13.487035     13.487718   0.000000   0.000000
   32       13.643994     13.645101   0.000000   0.000000
 
 -0.2222222E+00  0.2000000E+00  0.3795107E-15  0.1481481E-01
    1      -11.297130    -11.297033   1.000000   1.000000
    2       -9.865060     -9.865013   1.000000   1.000000
    3       -9.133814     -9.133663   1.000000   1.000000
    4       -8.716978     -8.716887   1.000000   1.000000
    5       -8.204139     -8.204115   1.000000   1.000000
    6       -7.879222     -7.879164   1.000000   1.000000
    7       -7.542014     -7.541945   1.000000   1.000000
    8       -7.490075     -7.490032   1.000000   1.000000
    9       -1.706271     -1.706217   0.197927   0.197911
   10        1.738611      1.739576   0.000000   0.000000
   11        2.602917      2.604856   0.000000   0.000000
   12        2.867839      2.869153   0.000000   0.000000
   13        3.489989      3.490873   0.000000   0.000000
   14        3.672648      3.674113   0.000000   0.000000
   15        4.192924      4.194308   0.000000   0.000000
   16        4.642341      4.642465   0.000000   0.000000
   17        5.031510      5.031857   0.000000   0.000000
   18        6.102379      6.102840   0.000000   0.000000
   19        6.582102      6.584587   0.000000   0.000000
   20        7.328342      7.329329   0.000000   0.000000
   21        7.834916      7.836389   0.000000   0.000000
   22        8.416530      8.416568   0.000000   0.000000
   23        8.906858      8.908221   0.000000   0.000000
   24        9.503642      9.504403   0.000000   0.000000
   25       10.318387     10.319032   0.000000   0.000000
   26       11.318635     11.319819   0.000000   0.000000
   27       12.187042     12.188898   0.000000   0.000000
   28       12.281258     12.281395   0.000000   0.000000
   29       12.902238     12.902317   0.000000   0.000000
   30       13.445760     13.446172   0.000000   0.000000
   31       13.906708     13.906895   0.000000   0.000000
   32       14.321702     14.322653   0.000000   0.000000
 
 -0.1111111E+00  0.2000000E+00  0.3740227E-15  0.1481481E-01
    1      -11.871072    -11.870980   1.000000   1.000000
    2      -10.233166    -10.233106   1.000000   1.000000
    3       -9.401002     -9.400817   1.000000   1.000000
    4       -9.087559     -9.087459   1.000000   1.000000
    5       -8.476915     -8.476886   1.000000   1.000000
    6       -8.069604     -8.069539   1.000000   1.000000
    7       -7.592533     -7.592472   1.000000   1.000000
    8       -7.491780     -7.491730   1.000000   1.000000
    9        1.181672      1.182187   0.000000   0.000000
   10        1.427552      1.428073   0.000000   0.000000
   11        2.171095      2.172994   0.000000   0.000000
   12        2.428456      2.429757   0.000000   0.000000
   13        3.706866      3.708228   0.000000   0.000000
   14        3.984284      3.986442   0.000000   0.000000
   15        4.255559      4.256176   0.000000   0.000000
   16        4.989867      4.990662   0.000000   0.000000
   17        5.030889      5.031255   0.000000   0.000000
   18        7.032239      7.032529   0.000000   0.000000
   19        7.678901      7.682021   0.000000   0.000000
   20        8.378692      8.379372   0.000000   0.000000
   21        8.715272      8.715352   0.000000   0.000000
   22        9.029089      9.030355   0.000000   0.000000
   23        9.534708      9.535098   0.000000   0.000000
   24       10.269457     10.270052   0.000000   0.000000
   25       10.860738     10.861927   0.000000   0.000000
   26       10.911756     10.912158   0.000000   0.000000
   27       11.557627     11.557915   0.000000   0.000000
   28       12.605620     12.607674   0.000000   0.000000
   29       12.846406     12.847173   0.000000   0.000000
   30       13.282978     13.283303   0.000000   0.000000
   31       13.824211     13.824645   0.000000   0.000000
   32       14.463998     14.465032   0.000000   0.000000
 
  0.3759137E-15  0.4000000E+00  0.1267362E-14  0.1481481E-01
    1      -11.945807    -11.945746   1.000000   1.000000
    2      -10.139558    -10.139453   1.000000   1.000000
    3       -9.510545     -9.510459   1.000000   1.000000
    4       -9.141298     -9.141161   1.000000   1.000000
    5       -8.985208     -8.985158   1.000000   1.000000
    6       -8.635696     -8.635539   1.000000   1.000000
    7       -7.546567     -7.546496   1.000000   1.000000
    8       -7.383795     -7.383720   1.000000   1.000000
    9        1.517802      1.518638   0.000000   0.000000
   10        2.265838      2.267397   0.000000   0.000000
   11        2.958139      2.960258   0.000000   0.000000
   12        3.502359      3.503090   0.000000   0.000000
   13        4.024085      4.025309   0.000000   0.000000
   14        4.222580      4.224221   0.000000   0.000000
   15        4.730683      4.730745   0.000000   0.000000
   16        4.942863      4.943184   0.000000   0.000000
   17        5.333927      5.335136   0.000000   0.000000
   18        6.248546      6.249595   0.000000   0.000000
   19        6.828329      6.830282   0.000000   0.000000
   20        7.960066      7.960323   0.000000   0.000000
   21        8.634666      8.635253   0.000000   0.000000
   22        9.576485      9.576770   0.000000   0.000000
   23       10.103940     10.105091   0.000000   0.000000
   24       10.520396     10.521050   0.000000   0.000000
   25       11.014725     11.016068   0.000000   0.000000
   26       11.491780     11.493117   0.000000   0.000000
   27       12.152260     12.152603   0.000000   0.000000
   28       12.418844     12.419221   0.000000   0.000000
   29       12.833930     12.833874   0.000000   0.000000
   30       13.078563     13.079741   0.000000   0.000000
   31       13.562946     13.563830   0.000000   0.000000
   32       13.922903     13.924030   0.000000   0.000000
 
  0.1111111E+00  0.4000000E+00  0.3717306E-15  0.1481481E-01
    1      -11.726807    -11.726749   1.000000   1.000000
    2       -9.978762     -9.978651   1.000000   1.000000
    3       -9.436306     -9.436211   1.000000   1.000000
    4       -9.012831     -9.012759   1.000000   1.000000
    5       -8.869370     -8.869326   1.000000   1.000000
    6       -8.642253     -8.642051   1.000000   1.000000
    7       -7.515648     -7.515578   1.000000   1.000000
    8       -7.376924     -7.376859   1.000000   1.000000
    9        1.325075      1.325156   0.000000   0.000000
   10        1.891011      1.891391   0.000000   0.000000
   11        2.190939      2.193104   0.000000   0.000000
   12        3.122857      3.125063   0.000000   0.000000
   13        3.640558      3.641127   0.000000   0.000000
   14        4.024736      4.025815   0.000000   0.000000
   15        4.173280      4.174939   0.000000   0.000000
   16        5.425046      5.426790   0.000000   0.000000