  12  12   1   0
  0.1060892E+02  0.3464472E-09  0.6079843E-09  0.6936739E-09  0.5000000E-15
  1.000000000000000E-004
  CAR 
 unknown system                          
     10.35928487    -35.39588710  301      2.50812348      1.00000000
    -35.396  0.0000E+00  0.0000E+00  0.0000E+00  0.0000E+00
    -35.243  0.0000E+00  0.0000E+00  0.0000E+00  0.0000E+00
    -35.091  0.0000E+00  0.0000E+00  0.0000E+00  0.0000E+00
    -34.938  0.0000E+00  0.0000E+00  0.0000E+00  0.0000E+00
    -34.786  0.0000E+00  0.0000E+00  0.0000E+00  0.0000E+00
    -34.633  0.0000E+00  0.0000E+00  0.0000E+00  0.0000E+00
    -34.481  0.0000E+00  0.0000E+00  0.0000E+00  0.0000E+00
    -34.328  0.0000E+00  0.0000E+00  0.0000E+00  0.0000E+00
    -34.176  0.0000E+00  0.0000E+00  0.0000E+00  0.0000E+00
    -34.023  0.0000E+00  0.0000E+00  0.0000E+00  0.0000E+00
    -33.871  0.0000E+00  0.0000E+00  0.0000E+00  0.0000E+00
    -33.718  0.0000E+00  0.0000E+00  0.0000E+00  0.0000E+00
    -33.566  0.0000E+00  0.0000E+00  0.0000E+00  0.0000E+00
    -33.413  0.0000E+00  0.0000E+00  0.0000E+00  0.0000E+00
    -33.261  0.7588E+00  0.2848E+00  0.1714E-01  0.1231E-01
    -33.108  0.0000E+00  0.0000E+00  0.2020E-01  0.2020E-01
    -32.956  0.0000E+00  0.0000E+00  0.2020E-01  0.2020E-01
    -32.803  0.0000E+00  0.0000E+00  0.2020E-01  0.2020E-01
    -32.651  0.0000E+00  0.0000E+00  0.2020E-01  0.2020E-01
    -32.498  0.0000E+00  0.0000E+00  0.2020E-01  0.2020E-01
    -32.346  0.0000E+00  0.0000E+00  0.2020E-01  0.2020E-01
    -32.193  0.0000E+00  0.0000E+00  0.2020E-01  0.2020E-01
    -32.041  0.0000E+00  0.0000E+00  0.2020E-01  0.2020E-01
    -31.888  0.0000E+00  0.0000E+00  0.2020E-01  0.2020E-01
    -31.735  0.0000E+00  0.0000E+00  0.2020E-01  0.2020E-01
    -31.583  0.0000E+00  0.0000E+00  0.2020E-01  0.2020E-01
    -31.430  0.0000E+00  0.0000E+00  0.2020E-01  0.2020E-01
    -31.278  0.0000E+00  0.0000E+00  0.2020E-01  0.2020E-01
    -31.125  0.0000E+00  0.0000E+00  0.2020E-01  0.2020E-01
    -30.973  0.0000E+00  0.0000E+00  0.2020E-01  0.2020E-01
    -30.820  0.0000E+00  0.0000E+00  0.2020E-01  0.2020E-01
    -30.668  0.0000E+00  0.0000E+00  0.2020E-01  0.2020E-01
    -30.515  0.0000E+00  0.0000E+00  0.2020E-01  0.2020E-01
    -30.363  0.0000E+00  0.0000E+00  0.2020E-01  0.2020E-01
    -30.210  0.0000E+00  0.0000E+00  0.2020E-01  0.2020E-01
    -30.058  0.0000E+00  0.0000E+00  0.2020E-01  0.2020E-01
    -29.905  0.0000E+00  0.0000E+00  0.2020E-01  0.2020E-01
    -29.753  0.0000E+00  0.0000E+00  0.2020E-01  0.2020E-01
    -29.600  0.0000E+00  0.0000E+00  0.2020E-01  0.2020E-01
    -29.448  0.0000E+00  0.0000E+00  0.2020E-01  0.2020E-01
    -29.295  0.0000E+00  0.0000E+00  0.2020E-01  0.2020E-01
    -29.143  0.0000E+00  0.0000E+00  0.2020E-01  0.2020E-01
    -28.990  0.0000E+00  0.0000E+00  0.2020E-01  0.2020E-01
    -28.838  0.0000E+00  0.5806E-01  0.4040E-01  0.2536E-01
    -28.685  0.0000E+00  0.0000E+00  0.5051E-01  0.4040E-01
    -28.533  0.0000E+00  0.0000E+00  0.5051E-01  0.5051E-01
    -28.380  0.0000E+00  0.0000E+00  0.5051E-01  0.5051E-01
    -28.228  0.0000E+00  0.0000E+00  0.5051E-01  0.5051E-01
    -28.075  0.0000E+00  0.0000E+00  0.5051E-01  0.5051E-01
    -27.923  0.0000E+00  0.0000E+00  0.5051E-01  0.5051E-01
    -27.770  0.0000E+00  0.0000E+00  0.5051E-01  0.5051E-01
    -27.618  0.0000E+00  0.0000E+00  0.5051E-01  0.5051E-01
    -27.465  0.0000E+00  0.0000E+00  0.5051E-01  0.5051E-01
    -27.312  0.0000E+00  0.0000E+00  0.5051E-01  0.5051E-01
    -27.160  0.0000E+00  0.0000E+00  0.5051E-01  0.5051E-01
    -27.007  0.0000E+00  0.0000E+00  0.5051E-01  0.5051E-01
    -26.855  0.0000E+00  0.0000E+00  0.5051E-01  0.5051E-01
    -26.702  0.0000E+00  0.0000E+00  0.5051E-01  0.5051E-01
    -26.550  0.0000E+00  0.0000E+00  0.5051E-01  0.5051E-01
    -26.397  0.0000E+00  0.0000E+00  0.5051E-01  0.5051E-01
    -26.245  0.0000E+00  0.0000E+00  0.5051E-01  0.5051E-01
    -26.092  0.0000E+00  0.0000E+00  0.5051E-01  0.5051E-01
    -25.940  0.0000E+00  0.0000E+00  0.5051E-01  0.5051E-01
    -25.787  0.0000E+00  0.0000E+00  0.5051E-01  0.5051E-01
    -25.635  0.0000E+00  0.0000E+00  0.5051E-01  0.5051E-01
    -25.482  0.0000E+00  0.0000E+00  0.5051E-01  0.5051E-01
    -25.330  0.0000E+00  0.0000E+00  0.5051E-01  0.5051E-01
    -25.177  0.0000E+00  0.0000E+00  0.5051E-01  0.5051E-01
    -25.025  0.0000E+00  0.0000E+00  0.5051E-01  0.5051E-01
    -24.872  0.0000E+00  0.0000E+00  0.5051E-01  0.5051E-01
    -24.720  0.0000E+00  0.0000E+00  0.5051E-01  0.5051E-01
    -24.567  0.0000E+00  0.0000E+00  0.5051E-01  0.5051E-01
    -24.415  0.0000E+00  0.0000E+00  0.5051E-01  0.5051E-01
    -24.262  0.0000E+00  0.0000E+00  0.5051E-01  0.5051E-01
    -24.110  0.0000E+00  0.0000E+00  0.5051E-01  0.5051E-01
    -23.957  0.0000E+00  0.0000E+00  0.5051E-01  0.5051E-01
    -23.805  0.0000E+00  0.0000E+00  0.5051E-01  0.5051E-01
    -23.652  0.0000E+00  0.0000E+00  0.5051E-01  0.5051E-01
    -23.500  0.0000E+00  0.0000E+00  0.5051E-01  0.5051E-01
    -23.347  0.0000E+00  0.0000E+00  0.5051E-01  0.5051E-01
    -23.195  0.0000E+00  0.0000E+00  0.5051E-01  0.5051E-01
    -23.042  0.0000E+00  0.0000E+00  0.5051E-01  0.5051E-01
    -22.889  0.0000E+00  0.0000E+00  0.5051E-01  0.5051E-01
    -22.737  0.0000E+00  0.0000E+00  0.5051E-01  0.5051E-01
    -22.584  0.0000E+00  0.0000E+00  0.5051E-01  0.5051E-01
    -22.432  0.0000E+00  0.0000E+00  0.5051E-01  0.5051E-01
    -22.279  0.0000E+00  0.0000E+00  0.5051E-01  0.5051E-01
    -22.127  0.0000E+00  0.0000E+00  0.5051E-01  0.5051E-01
    -21.974  0.0000E+00  0.0000E+00  0.5051E-01  0.5051E-01
    -21.822  0.0000E+00  0.0000E+00  0.5051E-01  0.5051E-01
    -21.669  0.0000E+00  0.0000E+00  0.5051E-01  0.5051E-01
    -21.517  0.0000E+00  0.0000E+00  0.5051E-01  0.5051E-01
    -21.364  0.0000E+00  0.0000E+00  0.5051E-01  0.5051E-01
    -21.212  0.0000E+00  0.0000E+00  0.5051E-01  0.5051E-01
    -21.059  0.0000E+00  0.0000E+00  0.5051E-01  0.5051E-01
    -20.907  0.0000E+00  0.0000E+00  0.5051E-01  0.5051E-01
    -20.754  0.0000E+00  0.0000E+00  0.5051E-01  0.5051E-01
    -20.602  0.0000E+00  0.0000E+00  0.5051E-01  0.5051E-01
    -20.449  0.0000E+00  0.0000E+00  0.5051E-01  0.5051E-01
    -20.297  0.0000E+00  0.0000E+00  0.5051E-01  0.5051E-01
    -20.144  0.0000E+00  0.0000E+00  0.5051E-01  0.5051E-01
    -19.992  0.0000E+00  0.0000E+00  0.5051E-01  0.5051E-01
    -19.839  0.0000E+00  0.0000E+00  0.5051E-01  0.5051E-01
    -19.687  0.0000E+00  0.0000E+00  0.5051E-01  0.5051E-01
    -19.534  0.0000E+00  0.0000E+00  0.5051E-01  0.5051E-01
    -19.382  0.0000E+00  0.0000E+00  0.5051E-01  0.5051E-01
    -19.229  0.0000E+00  0.0000E+00  0.5051E-01  0.5051E-01
    -19.077  0.0000E+00  0.0000E+00  0.5051E-01  0.5051E-01
    -18.924  0.0000E+00  0.0000E+00  0.5051E-01  0.5051E-01
    -18.772  0.0000E+00  0.0000E+00  0.5051E-01  0.5051E-01
    -18.619  0.0000E+00  0.0000E+00  0.5051E-01  0.5051E-01
    -18.466  0.0000E+00  0.0000E+00  0.5051E-01  0.5051E-01
    -18.314  0.0000E+00  0.0000E+00  0.5051E-01  0.5051E-01
    -18.161  0.0000E+00  0.0000E+00  0.5051E-01  0.5051E-01
    -18.009  0.0000E+00  0.0000E+00  0.5051E-01  0.5051E-01
    -17.856  0.0000E+00  0.0000E+00  0.5051E-01  0.5051E-01
    -17.704  0.0000E+00  0.0000E+00  0.5051E-01  0.5051E-01
    -17.551  0.0000E+00  0.0000E+00  0.5051E-01  0.5051E-01
    -17.399  0.0000E+00  0.0000E+00  0.5051E-01  0.5051E-01
    -17.246  0.0000E+00  0.0000E+00  0.5051E-01  0.5051E-01
    -17.094  0.0000E+00  0.0000E+00  0.5051E-01  0.5051E-01
    -16.941  0.0000E+00  0.0000E+00  0.5051E-01  0.5051E-01
    -16.789  0.0000E+00  0.0000E+00  0.5051E-01  0.5051E-01
    -16.636  0.0000E+00  0.0000E+00  0.5051E-01  0.5051E-01
    -16.484  0.0000E+00  0.0000E+00  0.5051E-01  0.5051E-01
    -16.331  0.0000E+00  0.0000E+00  0.5051E-01  0.5051E-01
    -16.179  0.0000E+00  0.0000E+00  0.5051E-01  0.5051E-01
    -16.026  0.0000E+00  0.0000E+00  0.5051E-01  0.5051E-01
    -15.874  0.0000E+00  0.0000E+00  0.5051E-01  0.5051E-01
    -15.721  0.2759E-01  0.6045E-01  0.5412E-01  0.5195E-01
    -15.569  0.6352E-01  0.4769E-01  0.5871E-01  0.5772E-01
    -15.416  0.7913E-01  0.6392E-01  0.7693E-01  0.7609E-01
    -15.264  0.2100E+00  0.2204E+00  0.9436E-01  0.9067E-01
    -15.111  0.1829E-01  0.4584E-01  0.1111E+00  0.1102E+00
    -14.959  0.0000E+00  0.0000E+00  0.1111E+00  0.1111E+00
    -14.806  0.0000E+00  0.0000E+00  0.1111E+00  0.1111E+00
    -14.654  0.0000E+00  0.0000E+00  0.1111E+00  0.1111E+00
    -14.501  0.0000E+00  0.0000E+00  0.1111E+00  0.1111E+00
    -14.349  0.0000E+00  0.0000E+00  0.1111E+00  0.1111E+00
    -14.196  0.0000E+00  0.0000E+00  0.1111E+00  0.1111E+00
    -14.043  0.0000E+00  0.0000E+00  0.1111E+00  0.1111E+00
    -13.891  0.0000E+00  0.0000E+00  0.1111E+00  0.1111E+00
    -13.738  0.0000E+00  0.0000E+00  0.1111E+00  0.1111E+00
    -13.586  0.0000E+00  0.0000E+00  0.1111E+00  0.1111E+00
    -13.433  0.0000E+00  0.0000E+00  0.1111E+00  0.1111E+00
    -13.281  0.0000E+00  0.0000E+00  0.1111E+00  0.1111E+00
    -13.128  0.0000E+00  0.0000E+00  0.1111E+00  0.1111E+00
    -12.976  0.0000E+00  0.0000E+00  0.1111E+00  0.1111E+00
    -12.823  0.0000E+00  0.0000E+00  0.1111E+00  0.1111E+00
    -12.671  0.0000E+00  0.0000E+00  0.1111E+00  0.1111E+00
    -12.518  0.0000E+00  0.0000E+00  0.1111E+00  0.1111E+00
    -12.366  0.0000E+00  0.0000E+00  0.1111E+00  0.1111E+00
    -12.213  0.0000E+00  0.0000E+00  0.1111E+00  0.1111E+00
    -12.061  0.0000E+00  0.0000E+00  0.1111E+00  0.1111E+00
    -11.908  0.0000E+00  0.0000E+00  0.1111E+00  0.1111E+00
    -11.756  0.0000E+00  0.0000E+00  0.1111E+00  0.1111E+00
    -11.603  0.0000E+00  0.0000E+00  0.1111E+00  0.1111E+00
    -11.451  0.0000E+00  0.0000E+00  0.1111E+00  0.1111E+00
    -11.298  0.0000E+00  0.0000E+00  0.1111E+00  0.1111E+00
    -11.146  0.0000E+00  0.0000E+00  0.1111E+00  0.1111E+00
    -10.993  0.0000E+00  0.0000E+00  0.1111E+00  0.1111E+00
    -10.841  0.0000E+00  0.0000E+00  0.1111E+00  0.1111E+00
    -10.688  0.0000E+00  0.0000E+00  0.1111E+00  0.1111E+00
    -10.536  0.0000E+00  0.0000E+00  0.1111E+00  0.1111E+00
    -10.383  0.0000E+00  0.0000E+00  0.1111E+00  0.1111E+00
    -10.231  0.0000E+00  0.0000E+00  0.1111E+00  0.1111E+00
    -10.078  0.0000E+00  0.0000E+00  0.1111E+00  0.1111E+00
     -9.926  0.0000E+00  0.0000E+00  0.1111E+00  0.1111E+00
     -9.773  0.0000E+00  0.0000E+00  0.1111E+00  0.1111E+00
     -9.620  0.0000E+00  0.0000E+00  0.1111E+00  0.1111E+00
     -9.468  0.0000E+00  0.0000E+00  0.1111E+00  0.1111E+00
     -9.315  0.0000E+00  0.0000E+00  0.1111E+00  0.1111E+00
     -9.163  0.0000E+00  0.0000E+00  0.1111E+00  0.1111E+00
     -9.010  0.0000E+00  0.0000E+00  0.1111E+00  0.1111E+00
     -8.858  0.0000E+00  0.0000E+00  0.1111E+00  0.1111E+00
     -8.705  0.0000E+00  0.0000E+00  0.1111E+00  0.1111E+00
     -8.553  0.0000E+00  0.0000E+00  0.1111E+00  0.1111E+00
     -8.400  0.0000E+00  0.0000E+00  0.1111E+00  0.1111E+00
     -8.248  0.0000E+00  0.0000E+00  0.1111E+00  0.1111E+00
     -8.095  0.0000E+00  0.0000E+00  0.1111E+00  0.1111E+00
     -7.943  0.0000E+00  0.0000E+00  0.1111E+00  0.1111E+00
     -7.790  0.0000E+00  0.0000E+00  0.1111E+00  0.1111E+00
     -7.638  0.0000E+00  0.0000E+00  0.1111E+00  0.1111E+00
     -7.485  0.0000E+00  0.0000E+00  0.1111E+00  0.1111E+00
     -7.333  0.0000E+00  0.0000E+00  0.1111E+00  0.1111E+00
     -7.180  0.4534E-03  0.6804E-04  0.1111E+00  0.1111E+00
     -7.028  0.5889E-02  0.3991E-02  0.1115E+00  0.1113E+00
     -6.875  0.1338E-01  0.1252E-01  0.1131E+00  0.1126E+00
     -6.723  0.8915E-02  0.1013E-01  0.1149E+00  0.1145E+00
     -6.570  0.7667E-02  0.7776E-02  0.1161E+00  0.1158E+00
     -6.418  0.6306E-02  0.6722E-02  0.1172E+00  0.1169E+00
     -6.265  0.5809E-02  0.5832E-02  0.1181E+00  0.1179E+00
     -6.113  0.5833E-02  0.5856E-02  0.1190E+00  0.1188E+00
     -5.960  0.1510E-01  0.1448E-01  0.1205E+00  0.1200E+00
     -5.808  0.0000E+00  0.0000E+00  0.1212E+00  0.1212E+00
     -5.655  0.0000E+00  0.0000E+00  0.1212E+00  0.1212E+00
     -5.503  0.1144E-01  0.6051E-02  0.1216E+00  0.1214E+00
     -5.350  0.1078E-01  0.1289E-01  0.1239E+00  0.1236E+00
     -5.197  0.3133E-01  0.3629E-01  0.1277E+00  0.1264E+00
     -5.045  0.9232E-02  0.1671E-01  0.1308E+00  0.1304E+00
     -4.892  0.2339E-03  0.9052E-03  0.1313E+00  0.1313E+00
     -4.740  0.2533E-04  0.0000E+00  0.1313E+00  0.1313E+00
     -4.587  0.1075E-02  0.7407E-03  0.1314E+00  0.1313E+00
     -4.435  0.6795E-02  0.5699E-02  0.1319E+00  0.1317E+00
     -4.282  0.1027E-01  0.9388E-02  0.1332E+00  0.1329E+00
     -4.130  0.6309E-02  0.6970E-02  0.1345E+00  0.1343E+00
     -3.977  0.4670E-02  0.4784E-02  0.1353E+00  0.1351E+00
     -3.825  0.4679E-02  0.4648E-02  0.1360E+00  0.1358E+00
     -3.672  0.4771E-02  0.4716E-02  0.1367E+00  0.1366E+00
     -3.520  0.5048E-02  0.4944E-02  0.1375E+00  0.1373E+00
     -3.367  0.5253E-02  0.5229E-02  0.1383E+00  0.1381E+00
     -3.215  0.5226E-02  0.5208E-02  0.1391E+00  0.1389E+00
     -3.062  0.1004E-01  0.9619E-02  0.1403E+00  0.1399E+00
     -2.910  0.3402E-02  0.4264E-02  0.1413E+00  0.1412E+00
     -2.757  0.1363E-01  0.1096E-01  0.1420E+00  0.1417E+00
     -2.605  0.1828E-01  0.1804E-01  0.1446E+00  0.1442E+00
     -2.452  0.5252E-01  0.3223E-01  0.1489E+00  0.1478E+00
     -2.300  0.2112E-02  0.1476E-02  0.1516E+00  0.1516E+00
     -2.147  0.1953E-01  0.1435E-01  0.1530E+00  0.1524E+00
     -1.995  0.3602E-01  0.3429E-01  0.1574E+00  0.1561E+00
     -1.842  0.1389E-01  0.1687E-01  0.1607E+00  0.1602E+00
     -1.690  0.1867E-01  0.1656E-01  0.1631E+00  0.1626E+00
     -1.537  0.2763E-01  0.3039E-01  0.1675E+00  0.1666E+00
     -1.385  0.1558E-01  0.1849E-01  0.1708E+00  0.1703E+00
     -1.232  0.8383E-05  0.7994E-03  0.1717E+00  0.1717E+00
     -1.080  0.2239E-02  0.0000E+00  0.1717E+00  0.1717E+00
     -0.927  0.3308E-01  0.4220E-01  0.1772E+00  0.1753E+00
     -0.774  0.1333E-01  0.1333E-01  0.1798E+00  0.1789E+00
     -0.622  0.4196E-02  0.1229E-01  0.1815E+00  0.1808E+00
     -0.469  0.6315E-03  0.1507E-02  0.1818E+00  0.1817E+00
     -0.317  0.0000E+00  0.1624E-03  0.1818E+00  0.1818E+00
     -0.164  0.0000E+00  0.0000E+00  0.1818E+00  0.1818E+00
     -0.012  0.0000E+00  0.0000E+00  0.1818E+00  0.1818E+00
      0.141  0.0000E+00  0.0000E+00  0.1818E+00  0.1818E+00
      0.293  0.0000E+00  0.0000E+00  0.1818E+00  0.1818E+00
      0.446  0.0000E+00  0.0000E+00  0.1818E+00  0.1818E+00
      0.598  0.0000E+00  0.0000E+00  0.1818E+00  0.1818E+00
      0.751  0.0000E+00  0.0000E+00  0.1818E+00  0.1818E+00
      0.903  0.0000E+00  0.0000E+00  0.1818E+00  0.1818E+00
      1.056  0.3198E-02  0.1409E-02  0.1820E+00  0.1819E+00
      1.208  0.1316E-01  0.8464E-02  0.1835E+00  0.1825E+00
      1.361  0.1376E-01  0.9127E-02  0.1851E+00  0.1840E+00
      1.513  0.3171E-01  0.1498E-01  0.1886E+00  0.1854E+00
      1.666  0.2725E-01  0.3189E-01  0.1937E+00  0.1890E+00
      1.818  0.7576E-02  0.2578E-01  0.1959E+00  0.1940E+00
      1.971  0.4947E-02  0.7129E-02  0.1968E+00  0.1962E+00
      2.123  0.6663E-02  0.4285E-02  0.1976E+00  0.1969E+00
      2.276  0.1596E-01  0.5237E-02  0.1993E+00  0.1976E+00
      2.428  0.2235E-01  0.1143E-01  0.2022E+00  0.1988E+00
      2.581  0.2620E-01  0.2060E-01  0.2060E+00  0.2013E+00
      2.733  0.1738E-01  0.3464E-01  0.2096E+00  0.2053E+00
      2.886  0.8446E-02  0.1837E-01  0.2114E+00  0.2097E+00
      3.038  0.1447E-02  0.8025E-02  0.2121E+00  0.2115E+00
      3.191  0.3781E-02  0.4683E-04  0.2124E+00  0.2121E+00
      3.343  0.1117E-01  0.6976E-02  0.2137E+00  0.2125E+00
      3.496  0.1426E-01  0.1232E-01  0.2156E+00  0.2141E+00
      3.649  0.1758E-01  0.1575E-01  0.2180E+00  0.2162E+00
      3.801  0.3072E-01  0.2186E-01  0.2216E+00  0.2189E+00
      3.954  0.9093E-02  0.1980E-01  0.2241E+00  0.2230E+00
      4.106  0.3540E-01  0.1495E-01  0.2273E+00  0.2247E+00
      4.259  0.3822E-01  0.4155E-01  0.2332E+00  0.2303E+00
      4.411  0.7698E-02  0.1460E-01  0.2358E+00  0.2350E+00
      4.564  0.2101E-01  0.1454E-01  0.2379E+00  0.2364E+00
      4.716  0.1918E-01  0.2222E-01  0.2410E+00  0.2395E+00
      4.869  0.4003E-01  0.1438E-01  0.2440E+00  0.2420E+00
      5.021  0.2422E-01  0.2267E-01  0.2480E+00  0.2462E+00
      5.174  0.1215E-01  0.2283E-01  0.2511E+00  0.2497E+00
      5.326  0.3135E-01  0.1953E-01  0.2539E+00  0.2521E+00
      5.479  0.1316E-01  0.2404E-01  0.2576E+00  0.2563E+00
      5.631  0.1712E-01  0.1261E-01  0.2597E+00  0.2587E+00
      5.784  0.1958E-01  0.1702E-01  0.2626E+00  0.2614E+00
      5.936  0.2621E-01  0.3205E-01  0.2667E+00  0.2646E+00
      6.089  0.1880E-01  0.2417E-01  0.2703E+00  0.2687E+00
      6.241  0.3275E-01  0.2371E-01  0.2739E+00  0.2719E+00
      6.394  0.2545E-01  0.3008E-01  0.2783E+00  0.2766E+00
      6.546  0.1362E-01  0.2494E-01  0.2820E+00  0.2807E+00
      6.699  0.2973E-01  0.2318E-01  0.2851E+00  0.2834E+00
      6.851  0.2266E-01  0.2829E-01  0.2894E+00  0.2879E+00
      7.004  0.4258E-01  0.3079E-01  0.2938E+00  0.2917E+00
      7.156  0.2365E-01  0.3020E-01  0.2989E+00  0.2972E+00
      7.309  0.1733E-01  0.1924E-01  0.3020E+00  0.3008E+00
      7.461  0.2814E-01  0.2677E-01  0.3052E+00  0.3038E+00
      7.614  0.2933E-01  0.2827E-01  0.3098E+00  0.3082E+00
      7.766  0.2360E-01  0.2801E-01  0.3141E+00  0.3126E+00
      7.919  0.4724E-01  0.4183E-01  0.3196E+00  0.3170E+00
      8.072  0.9092E-02  0.1523E-01  0.3228E+00  0.3219E+00
      8.224  0.0000E+00  0.3948E-03  0.3232E+00  0.3232E+00
      8.377  0.0000E+00  0.0000E+00  0.3232E+00  0.3232E+00
      8.529  0.0000E+00  0.0000E+00  0.3232E+00  0.3232E+00
      8.682  0.0000E+00  0.0000E+00  0.3232E+00  0.3232E+00
      8.834  0.0000E+00  0.0000E+00  0.3232E+00  0.3232E+00
      8.987  0.0000E+00  0.0000E+00  0.3232E+00  0.3232E+00
      9.139  0.0000E+00  0.0000E+00  0.3232E+00  0.3232E+00
      9.292  0.0000E+00  0.0000E+00  0.3232E+00  0.3232E+00
      9.444  0.0000E+00  0.0000E+00  0.3232E+00  0.3232E+00
      9.597  0.0000E+00  0.0000E+00  0.3232E+00  0.3232E+00
      9.749  0.0000E+00  0.0000E+00  0.3232E+00  0.3232E+00
      9.902  0.0000E+00  0.0000E+00  0.3232E+00  0.3232E+00
     10.054  0.0000E+00  0.0000E+00  0.3232E+00  0.3232E+00
     10.207  0.0000E+00  0.0000E+00  0.3232E+00  0.3232E+00
     10.359  0.0000E+00  0.0000E+00  0.3232E+00  0.3232E+00
     10.35928487    -35.39588710  301      2.50812348      1.00000000
    -35.396  0.0000E+00  0.0000E+00  0.0000E+00  0.0000E+00  0.0000E+00  0.0000E+00  0.0000E+00  0.0000E+00  0.0000E+00  0.0000E+00  0.0000E+00  0.0000E+00  0.0000E+00  0.0000E+00  0.0000E+00  0.0000E+00  0.0000E+00  0.0000E+00
    -35.243  0.0000E+00  0.0000E+00  0.0000E+00  0.0000E+00  0.0000E+00  0.0000E+00  0.0000E+00  0.0000E+00  0.0000E+00  0.0000E+00  0.0000E+00  0.0000E+00  0.0000E+00  0.0000E+00  0.0000E+00  0.0000E+00  0.0000E+00  0.0000E+00
    -35.091  0.0000E+00  0.0000E+00  0.0000E+00  0.0000E+00  0.0000E+00  0.0000E+00  0.0000E+00  0.0000E+00  0.0000E+00  0.0000E+00  0.0000E+00  0.0000E+00  0.0000E+00  0.0000E+00  0.0000E+00  0.0000E+00  0.0000E+00  0.0000E+00
    -34.938  0.0000E+00  0.0000E+00  0.0000E+00  0.0000E+00  0.0000E+00  0.0000E+00  0.0000E+00  0.0000E+00  0.0000E+00  0.0000E+00  0.0000E+00  0.0000E+00  0.0000E+00  0.0000E+00  0.0000E+00  0.0000E+00  0.0000E+00  0.0000E+00
    -34.786  0.0000E+00  0.0000E+00  0.0000E+00  0.0000E+00  0.0000E+00  0.0000E+00  0.0000E+00  0.0000E+00  0.0000E+00  0.0000E+00  0.0000E+00  0.0000E+00  0.0000E+00  0.0000E+00  0.0000E+00  0.0000E+00  0.0000E+00  0.0000E+00
    -34.633  0.0000E+00  0.0000E+00  0.0000E+00  0.0000E+00  0.0000E+00  0.0000E+00  0.0000E+00  0.0000E+00  0.0000E+00  0.0000E+00  0.0000E+00  0.0000E+00  0.0000E+00  0.0000E+00  0.0000E+00  0.0000E+00  0.0000E+00  0.0000E+00
    -34.481  0.0000E+00  0.0000E+00  0.0000E+00  0.0000E+00  0.0000E+00  0.0000E+00  0.0000E+00  0.0000E+00  0.0000E+00  0.0000E+00  0.0000E+00  0.0000E+00  0.0000E+00  0.0000E+00  0.0000E+00  0.0000E+00  0.0000E+00  0.0000E+00
    -34.328  0.0000E+00  0.0000E+00  0.0000E+00  0.0000E+00  0.0000E+00  0.0000E+00  0.0000E+00  0.0000E+00  0.0000E+00  0.0000E+00  0.0000E+00  0.0000E+00  0.0000E+00  0.0000E+00  0.0000E+00  0.0000E+00  0.0000E+00  0.0000E+00
    -34.176  0.0000E+00  0.0000E+00  0.0000E+00  0.0000E+00  0.0000E+00  0.0000E+00  0.0000E+00  0.0000E+00  0.0000E+00  0.0000E+00  0.0000E+00  0.0000E+00  0.0000E+00  0.0000E+00  0.0000E+00  0.0000E+00  0.0000E+00  0.0000E+00
    -34.023  0.0000E+00  0.0000E+00  0.0000E+00  0.0000E+00  0.0000E+00  0.0000E+00  0.0000E+00  0.0000E+00  0.0000E+00  0.0000E+00  0.0000E+00  0.0000E+00  0.0000E+00  0.0000E+00  0.0000E+00  0.0000E+00  0.0000E+00  0.0000E+00
    -33.871  0.0000E+00  0.0000E+00  0.0000E+00  0.0000E+00  0.0000E+00  0.0000E+00  0.0000E+00  0.0000E+00  0.0000E+00  0.0000E+00  0.0000E+00  0.0000E+00  0.0000E+00  0.0000E+00  0.0000E+00  0.0000E+00  0.0000E+00  0.0000E+00
    -33.718  0.0000E+00  0.0000E+00  0.0000E+00  0.0000E+00  0.0000E+00  0.0000E+00  0.0000E+00  0.0000E+00  0.0000E+00  0.0000E+00  0.0000E+00  0.0000E+00  0.0000E+00  0.0000E+00  0.0000E+00  0.0000E+00  0.0000E+00  0.0000E+00
    -33.566  0.0000E+00  0.0000E+00  0.0000E+00  0.0000E+00  0.0000E+00  0.0000E+00  0.0000E+00  0.0000E+00  0.0000E+00  0.0000E+00  0.0000E+00  0.0000E+00  0.0000E+00  0.0000E+00  0.0000E+00  0.0000E+00  0.0000E+00  0.0000E+00
    -33.413  0.0000E+00  0.0000E+00  0.0000E+00  0.0000E+00  0.0000E+00  0.0000E+00  0.0000E+00  0.0000E+00  0.0000E+00  0.0000E+00  0.0000E+00  0.0000E+00  0.0000E+00  0.0000E+00  0.0000E+00  0.0000E+00  0.0000E+00  0.0000E+00
    -33.261  0.2685E+02  0.1332E+02  0.3437E-03  0.1579E-03  0.5167E-03  0.2421E-03  0.1003E-03  0.1046E-03  0.1358E-05  0.1657E-05  0.2829E-05  0.9818E-06  0.1662E-03  0.6581E-04  0.5006E-05  0.1171E-05  0.6357E-04  0.6207E-04
    -33.108  0.0000E+00  0.0000E+00  0.0000E+00  0.0000E+00  0.0000E+00  0.0000E+00  0.0000E+00  0.0000E+00  0.0000E+00  0.0000E+00  0.0000E+00  0.0000E+00  0.0000E+00  0.0000E+00  0.0000E+00  0.0000E+00  0.0000E+00  0.0000E+00
    -32.956  0.0000E+00  0.0000E+00  0.0000E+00  0.0000E+00  0.0000E+00  0.0000E+00  0.0000E+00  0.0000E+00  0.0000E+00  0.0000E+00  0.0000E+00  0.0000E+00  0.0000E+00  0.0000E+00  0.0000E+00  0.0000E+00  0.0000E+00  0.0000E+00
    -32.803  0.0000E+00  0.0000E+00  0.0000E+00  0.0000E+00  0.0000E+00  0.0000E+00  0.0000E+00  0.0000E+00  0.0000E+00  0.0000E+00  0.0000E+00  0.0000E+00  0.0000E+00  0.0000E+00  0.0000E+00  0.0000E+00  0.0000E+00  0.0000E+00
    -32.651  0.0000E+00  0.0000E+00  0.0000E+00  0.0000E+00  0.0000E+00  0.0000E+00  0.0000E+00  0.0000E+00  0.0000E+00  0.0000E+00  0.0000E+00  0.0000E+00  0.0000E+00  0.0000E+00  0.0000E+00  0.0000E+00  0.0000E+00  0.0000E+00
    -32.498  0.0000E+00  0.0000E+00  0.0000E+00  0.0000E+00  0.0000E+00  0.0000E+00  0.0000E+00  0.0000E+00  0.0000E+00  0.0000E+00  0.0000E+00  0.0000E+00  0.0000E+00  0.0000E+00  0.0000E+00  0.0000E+00  0.0000E+00  0.0000E+00
    -32.346  0.0000E+00  0.0000E+00  0.0000E+00  0.0000E+00  0.0000E+00  0.0000E+00  0.0000E+00  0.0000E+00  0.0000E+00  0.0000E+00  0.0000E+00  0.0000E+00  0.0000E+00  0.0000E+00  0.0000E+00  0.0000E+00  0.0000E+00  0.0000E+00
    -32.193  0.0000E+00  0.0000E+00  0.0000E+00  0.0000E+00  0.0000E+00  0.0000E+00  0.0000E+00  0.0000E+00  0.0000E+00  0.0000E+00  0.0000E+00  0.0000E+00  0.0000E+00  0.0000E+00  0.0000E+00  0.0000E+00  0.0000E+00  0.0000E+00
    -32.041  0.0000E+00  0.0000E+00  0.0000E+00  0.0000E+00  0.0000E+00  0.0000E+00  0.0000E+00  0.0000E+00  0.0000E+00  0.0000E+00  0.0000E+00  0.0000E+00  0.0000E+00  0.0000E+00  0.0000E+00  0.0000E+00  0.0000E+00  0.0000E+00
    -31.888  0.0000E+00  0.0000E+00  0.0000E+00  0.0000E+00  0.0000E+00  0.0000E+00  0.0000E+00  0.0000E+00  0.0000E+00  0.0000E+00  0.0000E+00  0.0000E+00  0.0000E+00  0.0000E+00  0.0000E+00  0.0000E+00  0.0000E+00  0.0000E+00
    -31.735  0.0000E+00  0.0000E+00  0.0000E+00  0.0000E+00  0.0000E+00  0.0000E+00  0.0000E+00  0.0000E+00  0.0000E+00  0.0000E+00  0.0000E+00  0.0000E+00  0.0000E+00  0.0000E+00  0.0000E+00  0.0000E+00  0.0000E+00  0.0000E+00
    -31.583  0.0000E+00  0.0000E+00  0.0000E+00  0.0000E+00  0.0000E+00  0.0000E+00  0.0000E+00  0.0000E+00  0.0000E+00  0.0000E+00  0.0000E+00  0.0000E+00  0.0000E+00  0.0000E+00  0.0000E+00  0.0000E+00  0.0000E+00  0.0000E+00
    -31.430  0.0000E+00  0.0000E+00  0.0000E+00  0.0000E+00  0.0000E+00  0.0000E+00  0.0000E+00  0.0000E+00  0.0000E+00  0.0000E+00  0.0000E+00  0.0000E+00  0.0000E+00  0.0000E+00  0.0000E+00  0.0000E+00  0.0000E+00  0.0000E+00
    -31.278  0.0000E+00  0.0000E+00  0.0000E+00  0.0000E+00  0.0000E+00  0.0000E+00  0.0000E+00  0.0000E+00  0.0000E+00  0.0000E+00  0.0000E+00  0.0000E+00  0.0000E+00  0.0000E+00  0.0000E+00  0.0000E+00  0.0000E+00  0.0000E+00
    -31.125  0.0000E+00  0.0000E+00  0.0000E+00  0.0000E+00  0.0000E+00  0.0000E+00  0.0000E+00  0.0000E+00  0.0000E+00  0.0000E+00  0.0000E+00  0.0000E+00  0.0000E+00  0.0000E+00  0.0000E+00  0.0000E+00  0.0000E+00  0.0000E+00
    -30.973  0.0000E+00  0.0000E+00  0.0000E+00  0.0000E+00  0.0000E+00  0.0000E+00  0.0000E+00  0.0000E+00  0.0000E+00  0.0000E+00  0.0000E+00  0.0000E+00  0.0000E+00  0.0000E+00  0.0000E+00  0.0000E+00  0.0000E+00  0.0000E+00
    -30.820  0.0000E+00  0.0000E+00  0.0000E+00  0.0000E+00  0.0000E+00  0.0000E+00  0.0000E+00  0.0000E+00  0.0000E+00  0.0000E+00  0.0000E+00  0.0000E+00  0.0000E+00  0.0000E+00  0.0000E+00  0.0000E+00  0.0000E+00  0.0000E+00
    -30.668  0.0000E+00  0.0000E+00  0.0000E+00  0.0000E+00  0.0000E+00  0.0000E+00  0.0000E+00  0.0000E+00  0.0000E+00  0.0000E+00  0.0000E+00  0.0000E+00  0.0000E+00  0.0000E+00  0.0000E+00  0.0000E+00  0.0000E+00  0.0000E+00
    -30.515  0.0000E+00  0.0000E+00  0.0000E+00  0.0000E+00  0.0000E+00  0.0000E+00  0.0000E+00  0.0000E+00  0.0000E+00  0.0000E+00  0.0000E+00  0.0000E+00  0.0000E+00  0.0000E+00  0.0000E+00  0.0000E+00  0.0000E+00  0.0000E+00
    -30.363  0.0000E+00  0.0000E+00  0.0000E+00  0.0000E+00  0.0000E+00  0.0000E+00  0.0000E+00  0.0000E+00  0.0000E+00  0.0000E+00  0.0000E+00  0.0000E+00  0.0000E+00  0.0000E+00  0.0000E+00  0.0000E+00  0.0000E+00  0.0000E+00
    -30.210  0.0000E+00  0.0000E+00  0.0000E+00  0.0000E+00  0.0000E+00  0.0000E+00  0.0000E+00  0.0000E+00  0.0000E+00  0.0000E+00  0.0000E+00  0.0000E+00  0.0000E+00  0.0000E+00  0.0000E+00  0.0000E+00  0.0000E+00  0.0000E+00
    -30.058  0.0000E+00  0.0000E+00  0.0000E+00  0.0000E+00  0.0000E+00  0.0000E+00  0.0000E+00  0.0000E+00  0.0000E+00  0.0000E+00  0.0000E+00  0.0000E+00  0.0000E+00  0.0000E+00  0.0000E+00  0.0000E+00  0.0000E+00  0.0000E+00
    -29.905  0.0000E+00  0.0000E+00  0.0000E+00  0.0000E+00  0.0000E+00  0.0000E+00  0.0000E+00  0.0000E+00  0.0000E+00  0.0000E+00  0.0000E+00  0.0000E+00  0.0000E+00  0.0000E+00  0.0000E+00  0.0000E+00  0.0000E+00  0.0000E+00
    -29.753  0.0000E+00  0.0000E+00  0.0000E+00  0.0000E+00  0.0000E+00  0.0000E+00  0.0000E+00  0.0000E+00  0.0000E+00  0.0000E+00  0.0000E+00  0.0000E+00  0.0000E+00  0.0000E+00  0.0000E+00  0.0000E+00  0.0000E+00  0.0000E+00
    -29.600  0.0000E+00  0.0000E+00  0.0000E+00  0.0000E+00  0.0000E+00  0.0000E+00  0.0000E+00  0.0000E+00  0.0000E+00  0.0000E+00  0.0000E+00  0.0000E+00  0.0000E+00  0.0000E+00  0.0000E+00  0.0000E+00  0.0000E+00  0.0000E+00
    -29.448  0.0000E+00  0.0000E+00  0.0000E+00  0.0000E+00  0.0000E+00  0.0000E+00  0.0000E+00  0.0000E+00  0.0000E+00  0.0000E+00  0.0000E+00  0.0000E+00  0.0000E+00  0.0000E+00  0.0000E+00  0.0000E+00  0.0000E+00  0.0000E+00
    -29.295  0.0000E+00  0.0000E+00  0.0000E+00  0.0000E+00  0.0000E+00  0.0000E+00  0.0000E+00  0.0000E+00  0.0000E+00  0.0000E+00  0.0000E+00  0.0000E+00  0.0000E+00  0.0000E+00  0.0000E+00  0.0000E+00  0.0000E+00  0.0000E+00
    -29.143  0.0000E+00  0.0000E+00  0.0000E+00  0.0000E+00  0.0000E+00  0.0000E+00  0.0000E+00  0.0000E+00  0.0000E+00  0.0000E+00  0.0000E+00  0.0000E+00  0.0000E+00  0.0000E+00  0.0000E+00  0.0000E+00  0.0000E+00  0.0000E+00
    -28.990  0.0000E+00  0.0000E+00  0.0000E+00  0.0000E+00  0.0000E+00  0.0000E+00  0.0000E+00  0.0000E+00  0.0000E+00  0.0000E+00  0.0000E+00  0.0000E+00  0.0000E+00  0.0000E+00  0.0000E+00  0.0000E+00  0.0000E+00  0.0000E+00
    -28.838  0.0000E+00  0.2175E-03  0.0000E+00  0.7146E-04  0.0000E+00  0.3047E-05  0.0000E+00  0.6821E-05  0.0000E+00  0.4217E-05  0.0000E+00  0.1498E-05  0.0000E+00  0.5729E-05  0.0000E+00  0.4047E-06  0.0000E+00  0.7491E-05
    -28.685  0.0000E+00  0.0000E+00  0.0000E+00  0.0000E+00  0.0000E+00  0.0000E+00  0.0000E+00  0.0000E+00  0.0000E+00  0.0000E+00  0.0000E+00  0.0000E+00  0.0000E+00  0.0000E+00  0.0000E+00  0.0000E+00  0.0000E+00  0.0000E+00
    -28.533  0.0000E+00  0.0000E+00  0.0000E+00  0.0000E+00  0.0000E+00  0.0000E+00  0.0000E+00  0.0000E+00  0.0000E+00  0.0000E+00  0.0000E+00  0.0000E+00  0.0000E+00  0.0000E+00  0.0000E+00  0.0000E+00  0.0000E+00  0.0000E+00
    -28.380  0.0000E+00  0.0000E+00  0.0000E+00  0.0000E+00  0.0000E+00  0.0000E+00  0.0000E+00  0.0000E+00  0.0000E+00  0.0000E+00  0.0000E+00  0.0000E+00  0.0000E+00  0.0000E+00  0.0000E+00  0.0000E+00  0.0000E+00  0.0000E+00
    -28.228  0.0000E+00  0.0000E+00  0.0000E+00  0.0000E+00  0.0000E+00  0.0000E+00  0.0000E+00  0.0000E+00  0.0000E+00  0.0000E+00  0.0000E+00  0.0000E+00  0.0000E+00  0.0000E+00  0.0000E+00  0.0000E+00  0.0000E+00  0.0000E+00
    -28.075  0.0000E+00  0.0000E+00  0.0000E+00  0.0000E+00  0.0000E+00  0.0000E+00  0.0000E+00  0.0000E+00  0.0000E+00  0.0000E+00  0.0000E+00  0.0000E+00  0.0000E+00  0.0000E+00  0.0000E+00  0.0000E+00  0.0000E+00  0.0000E+00
    -27.923  0.0000E+00  0.0000E+00  0.0000E+00  0.0000E+00  0.0000E+00  0.0000E+00  0.0000E+00  0.0000E+00  0.0000E+00  0.0000E+00  0.0000E+00  0.0000E+00  0.0000E+00  0.0000E+00  0.0000E+00  0.0000E+00  0.0000E+00  0.0000E+00
    -27.770  0.0000E+00  0.0000E+00  0.0000E+00  0.0000E+00  0.0000E+00  0.0000E+00  0.0000E+00  0.0000E+00  0.0000E+00  0.0000E+00  0.0000E+00  0.0000E+00  0.0000E+00  0.0000E+00  0.0000E+00  0.0000E+00  0.0000E+00  0.0000E+00