   13   13   60    1
  0.5897618E+01  0.2837551E-09  0.4901607E-09  0.5687163E-09  0.5000000E-15
  1.000000000000000E-004
  CAR 
 unknown system                          
     13    394     16
 
  0.3742002E-15  0.3742002E-15  0.3742002E-15  0.1275510E-02
    1      -12.549174   1.000000
    2       -9.814386   1.000000
    3       -7.849414   1.000000
    4       -7.575349   1.000000
    5       -6.990478   1.000000
    6       -6.785120   1.000000
    7        2.206737   0.000000
    8        3.591100   0.000000
    9        4.347320   0.000000
   10        5.543119   0.000000
   11        6.137683   0.000000
   12        7.082925   0.000000
   13        7.470215   0.000000
   14       10.739030   0.000000
   15       12.049161   0.000000
   16       12.633031   0.000000
 
  0.7142857E-01  0.3725319E-15  0.3781697E-15  0.2551020E-02
    1      -12.462196   1.000000
    2       -9.743656   1.000000
    3       -7.820195   1.000000
    4       -7.537853   1.000000
    5       -6.953318   1.000000
    6       -6.741711   1.000000
    7        2.289331   0.000000
    8        3.571247   0.000000
    9        4.051045   0.000000
   10        4.473268   0.000000
   11        5.831138   0.000000
   12        6.634179   0.000000
   13        9.466291   0.000000
   14       10.610147   0.000000
   15       11.808551   0.000000
   16       12.383614   0.000000
 
  0.1428571E+00  0.3747003E-15  0.3747003E-15  0.2551020E-02
    1      -12.194669   1.000000
    2       -9.536768   1.000000
    3       -7.726598   1.000000
    4       -7.430691   1.000000
    5       -6.846498   1.000000
    6       -6.613552   1.000000
    7        1.807981   0.000000
    8        2.557120   0.000000
    9        3.656155   0.000000
   10        4.659230   0.000000
   11        5.191096   0.000000
   12        6.378569   0.000000
   13        9.906871   0.000000
   14       10.861725   0.000000
   15       11.355415   0.000000
   16       11.891440   0.000000
 
  0.2142857E+00  0.3608225E-15  0.3816392E-15  0.2551020E-02
    1      -11.754301   1.000000
    2       -9.196936   1.000000
    3       -7.578281   1.000000
    4       -7.303612   1.000000
    5       -6.685450   1.000000
    6       -6.410371   1.000000
    7       -0.256359   0.000000
    8        2.931975   0.000000
    9        3.730834   0.000000
   10        4.279769   0.000000
   11        4.967677   0.000000
   12        5.912605   0.000000
   13        9.009689   0.000000
   14       10.011064   0.000000
   15       10.601214   0.000000
   16       11.345194   0.000000
 
  0.2857143E+00  0.3521489E-15  0.3747003E-15  0.2551020E-02
    1      -11.146541   1.000000
    2       -8.746894   1.000000
    3       -7.435921   1.000000
    4       -7.182550   1.000000
    5       -6.496257   1.000000
    6       -6.170061   1.000000
    7       -2.124229   1.035987
    8        3.224998   0.000000
    9        3.595248   0.000000
   10        3.973116   0.000000
   11        4.730192   0.000000
   12        5.602791   0.000000
   13        7.811174   0.000000
   14        9.428916   0.000000
   15       10.094035   0.000000
   16       10.746781   0.000000
 
  0.3571429E+00  0.3625572E-15  0.3608225E-15  0.2551020E-02
    1      -10.396142   1.000000
    2       -8.234861   1.000000
    3       -7.492476   1.000000
    4       -7.004554   1.000000
    5       -6.320162   1.000000
    6       -5.946212   1.000000
    7       -3.744390   1.000000
    8        2.859224   0.000000
    9        3.669906   0.000000
   10        3.952733   0.000000
   11        4.546909   0.000000
   12        5.321987   0.000000
   13        6.984596   0.000000
   14        9.059613   0.000000
   15        9.659669   0.000000
   16       10.738753   0.000000
 
  0.4285714E+00  0.3625572E-15  0.3469447E-15  0.2551020E-02
    1       -9.561967   1.000000
    2       -8.024528   1.000000
    3       -7.594877   1.000000
    4       -6.719816   1.000000
    5       -6.195179   1.000000
    6       -5.788190   1.000000
    7       -5.052682   1.000000
    8        2.705885   0.000000
    9        3.322607   0.000000
   10        3.809922   0.000000
   11        4.652722   0.000000
   12        5.119579   0.000000
   13        6.864788   0.000000
   14        8.520714   0.000000
   15        9.478620   0.000000
   16       10.390651   0.000000
 
  0.5000000E+00  0.3764350E-15  0.3608225E-15  0.1275510E-02
    1       -8.880076   1.000000
    2       -8.504648   1.000000
    3       -7.427747   1.000000
    4       -6.360278   1.000000
    5       -6.153673   1.000000
    6       -5.838687   1.000000
    7       -5.693579   1.000000
    8        2.748852   0.000000
    9        3.143329   0.000000
   10        3.610057   0.000000
   11        4.666338   0.000000
   12        5.091631   0.000000
   13        7.277737   0.000000
   14        7.826325   0.000000
   15        9.719205   0.000000
   16        9.902128   0.000000
 
  0.3726132E-15  0.1250000E+00  0.3712308E-15  0.2551020E-02
    1      -12.500548   1.000000
    2       -9.829977   1.000000
    3       -8.019470   1.000000
    4       -7.638740   1.000000
    5       -7.104345   1.000000
    6       -6.543934   1.000000
    7        2.435596   0.000000
    8        3.366400   0.000000
    9        4.971800   0.000000
   10        5.501211   0.000000
   11        6.189187   0.000000
   12        7.069799   0.000000
   13        7.394219   0.000000
   14       10.503012   0.000000
   15       11.795570   0.000000
   16       12.671283   0.000000
 
  0.7142857E-01  0.1250000E+00  0.3738329E-15  0.2551020E-02
    1      -12.420738   1.000000
    2       -9.749897   1.000000
    3       -7.928859   1.000000
    4       -7.617414   1.000000
    5       -7.075792   1.000000
    6       -6.557656   1.000000
    7        2.491635   0.000000
    8        3.509630   0.000000
    9        4.156128   0.000000
   10        4.812058   0.000000
   11        5.844743   0.000000
   12        6.571619   0.000000
   13        9.458250   0.000000
   14       10.309533   0.000000
   15       11.519758   0.000000
   16       12.252053   0.000000
 
  0.1428571E+00  0.1250000E+00  0.3642919E-15  0.2551020E-02
    1      -12.161514   1.000000
    2       -9.526473   1.000000
    3       -7.761783   1.000000
    4       -7.522758   1.000000
    5       -6.958348   1.000000
    6       -6.509826   1.000000
    7        1.796938   0.000000
    8        2.754451   0.000000
    9        3.889868   0.000000
   10        4.681502   0.000000
   11        5.334437   0.000000
   12        6.329294   0.000000
   13        9.567449   0.000000
   14       10.840559   0.000000
   15       11.345816   0.000000
   16       11.741533   0.000000
 
  0.2142857E+00  0.1250000E+00  0.3816392E-15  0.2551020E-02
    1      -11.727040   1.000000
    2       -9.170046   1.000000
    3       -7.558440   1.000000
    4       -7.382750   1.000000
    5       -6.765335   1.000000
    6       -6.422093   1.000000
    7       -0.269234   0.000000
    8        3.073021   0.000000
    9        4.047350   0.000000
   10        4.448854   0.000000
   11        4.854190   0.000000
   12        5.902826   0.000000
   13        8.894520   0.000000
   14       10.086303   0.000000
   15       10.649737   0.000000
   16       11.222986   0.000000
 
  0.2857143E+00  0.1250000E+00  0.3955170E-15  0.2551020E-02
    1      -11.128313   1.000000
    2       -8.695793   1.000000
    3       -7.398395   1.000000
    4       -7.217961   1.000000
    5       -6.522119   1.000000
    6       -6.319546   1.000000
    7       -2.154149   1.009628
    8        3.308616   0.000000
    9        3.636754   0.000000
   10        4.319647   0.000000
   11        4.746696   0.000000
   12        5.560557   0.000000
   13        7.984431   0.000000
   14        9.272936   0.000000
   15       10.383353   0.000000
   16       11.108317   0.000000
 
  0.3571429E+00  0.1250000E+00  0.3885781E-15  0.2551020E-02
    1      -10.387350   1.000000
    2       -8.144955   1.000000
    3       -7.454602   1.000000
    4       -6.992674   1.000000
    5       -6.267207   1.000000
    6       -6.233460   1.000000
    7       -3.793224   1.000000
    8        2.903448   0.000000
    9        3.591100   0.000000
   10        4.195859   0.000000
   11        4.662788   0.000000
   12        5.354285   0.000000
   13        7.458906   0.000000
   14        8.791130   0.000000
   15       10.174898   0.000000
   16       10.717474   0.000000
 
  0.4285714E+00  0.1250000E+00  0.3747003E-15  0.2551020E-02
    1       -9.556805   1.000000
    2       -7.888673   1.000000
    3       -7.544484   1.000000
    4       -6.691138   1.000000
    5       -6.288202   1.000000
    6       -6.007782   1.000000
    7       -5.086586   1.000000
    8        2.722445   0.000000
    9        3.325236   0.000000
   10        3.970400   0.000000
   11        4.710755   0.000000
   12        5.152183   0.000000
   13        7.525421   0.000000
   14        8.442028   0.000000
   15        9.382769   0.000000
   16       10.154759   0.000000
 
  0.5000000E+00  0.1250000E+00  0.3608225E-15  0.2551020E-02
    1       -8.828188   1.000000
    2       -8.427312   1.000000
    3       -7.375037   1.000000
    4       -6.566805   1.000000
    5       -6.090657   1.000000
    6       -5.930163   1.000000
    7       -5.747812   1.000000
    8        2.818741   0.000000
    9        3.203964   0.000000
   10        3.682568   0.000000
   11        4.773761   0.000000
   12        5.198989   0.000000
   13        7.248721   0.000000
   14        8.226913   0.000000
   15        8.696440   0.000000
   16       10.575607   0.000000
 
 -0.4285714E+00  0.1250000E+00  0.3330669E-15  0.2551020E-02
    1       -9.443045   1.000000
    2       -8.060725   1.000000
    3       -7.573350   1.000000
    4       -6.964005   1.000000
    5       -6.181112   1.000000
    6       -5.782324   1.000000
    7       -5.053854   1.000000
    8        2.874757   0.000000
    9        3.352068   0.000000
   10        3.894584   0.000000
   11        4.827593   0.000000
   12        5.391571   0.000000
   13        6.398511   0.000000
   14        8.052663   0.000000
   15        9.133088   0.000000
   16       10.736740   0.000000
 
 -0.3571429E+00  0.1250000E+00  0.3885781E-15  0.2551020E-02
    1      -10.294871   1.000000
    2       -8.302297   1.000000
    3       -7.476340   1.000000
    4       -7.208931   1.000000
    5       -6.393613   1.000000
    6       -5.837347   1.000000
    7       -3.716780   1.000000
    8        3.001497   0.000000
    9        3.827712   0.000000
   10        4.055011   0.000000
   11        4.712274   0.000000
   12        5.646793   0.000000
   13        6.334674   0.000000
   14        8.149708   0.000000
   15        9.567050   0.000000
   16       10.814846   0.000000
 
 -0.2857143E+00  0.1250000E+00  0.3885781E-15  0.2551020E-02
    1      -11.057625   1.000000
    2       -8.811322   1.000000
    3       -7.577472   1.000000
    4       -7.261261   1.000000
    5       -6.595529   1.000000
    6       -5.983441   1.000000
    7       -2.093106   1.050689
    8        3.383001   0.000000
    9        3.817504   0.000000
   10        3.961594   0.000000
   11        4.809172   0.000000
   12        5.962936   0.000000
   13        7.230347   0.000000
   14        8.741957   0.000000
   15        9.752760   0.000000
   16       10.971614   0.000000
 
 -0.2142857E+00  0.1250000E+00  0.3816392E-15  0.2551020E-02
    1      -11.675953   1.000000
    2       -9.246742   1.000000
    3       -7.789504   1.000000
    4       -7.344200   1.000000
    5       -6.774715   1.000000
    6       -6.167312   1.000000
    7       -0.225800   0.000000
    8        3.195334   0.000000
    9        3.633505   0.000000
   10        4.232532   0.000000
   11        5.433010   0.000000
   12        6.050056   0.000000
   13        8.545149   0.000000
   14        9.551569   0.000000
   15       10.258874   0.000000
   16       11.264480   0.000000
 
 -0.1428571E+00  0.1250000E+00  0.3747003E-15  0.2551020E-02
    1      -12.126375   1.000000
    2       -9.571960   1.000000
    3       -7.949191   1.000000
    4       -7.478601   1.000000
    5       -6.930992   1.000000
    6       -6.336053   1.000000
    7        1.843609   0.000000
    8        2.800972   0.000000
    9        3.404533   0.000000
   10        4.968133   0.000000
   11        5.557034   0.000000
   12        6.331937   0.000000
   13        9.789507   0.000000
   14       10.338291   0.000000
   15       11.136391   0.000000
   16       11.614092   0.000000
 
 -0.7142857E-01  0.1250000E+00  0.3712308E-15  0.2551020E-02
    1      -12.402474   1.000000
    2       -9.770308   1.000000
    3       -8.028216   1.000000
    4       -7.588149   1.000000
    5       -7.050203   1.000000
    6       -6.466640   1.000000
    7        2.536288   0.000000
    8        3.309255   0.000000
    9        4.014578   0.000000
   10        5.222891   0.000000
   11        5.758480   0.000000
   12        6.616716   0.000000
   13        9.443574   0.000000
   14       10.530112   0.000000
   15       11.351548   0.000000
   16       12.145450   0.000000
 
  0.3742666E-15  0.2500000E+00  0.3712308E-15  0.2551020E-02
    1      -12.365922   1.000000
    2       -9.900508   1.000000
    3       -8.426632   1.000000
    4       -7.599230   1.000000
    5       -7.173846   1.000000
    6       -6.355607   1.000000
    7        3.072348   0.000000
    8        3.395886   0.000000
    9        5.376118   0.000000
   10        6.065259   0.000000
   11        6.259032   0.000000
   12        7.019929   0.000000
   13        7.192439   0.000000
   14       10.090508   0.000000
   15       11.170493   0.000000
   16       11.875087   0.000000
 
  0.7142857E-01  0.2500000E+00  0.3755676E-15  0.2551020E-02
    1      -12.290059   1.000000
    2       -9.809944   1.000000
    3       -8.316876   1.000000
    4       -7.564316   1.000000
    5       -7.187072   1.000000
    6       -6.350395   1.000000
    7        3.085471   0.000000
    8        3.518034   0.000000
    9        4.249769   0.000000
   10        5.709042   0.000000
   11        5.891232   0.000000
   12        6.434642   0.000000
   13        9.385328   0.000000
   14        9.988862   0.000000
   15       10.792815   0.000000
   16       11.781618   0.000000
 
  0.1428571E+00  0.2500000E+00  0.3729655E-15  0.2551020E-02
    1      -12.032397   1.000000
    2       -9.575598   1.000000
    3       -8.111913   1.000000
    4       -7.469251   1.000000
    5       -7.126769   1.000000
    6       -6.305323   1.000000
    7        1.838731   0.000000
    8        3.312294   0.000000
    9        3.909010   0.000000
   10        5.384489   0.000000
   11        5.660891   0.000000
   12        6.226837   0.000000
   13        9.125728   0.000000
   14       10.189156   0.000000
   15       11.019985   0.000000
   16       11.521622   0.000000
 
  0.2142857E+00  0.2500000E+00  0.3747003E-15  0.2551020E-02
    1      -11.599170   1.000000
    2       -9.201323   1.000000
    3       -7.827156   1.000000
    4       -7.340727   1.000000
    5       -6.998236   1.000000
    6       -6.249096   1.000000
    7       -0.258053   0.000000
    8        3.532182   0.000000
    9        4.213188   0.000000
   10        4.812821   0.000000
   11        5.326684   0.000000
   12        5.936169   0.000000
   13        8.495999   0.000000
   14        9.781501   0.000000
   15       10.266048   0.000000
   16       10.826897   0.000000
 
  0.2857143E+00  0.2500000E+00  0.3677614E-15  0.2551020E-02
    1      -11.003280   1.000000
    2       -8.706656   1.000000
    3       -7.502342   1.000000
    4       -7.248878   1.000000
    5       -6.817057   1.000000
    6       -6.219590   1.000000
    7       -2.166866   1.002284
    8        3.554529   0.000000
    9        3.903973   0.000000
   10        4.763130   0.000000
   11        5.076747   0.000000
   12        5.671350   0.000000
   13        7.679991   0.000000
   14        9.264381   0.000000
   15        9.962313   0.000000
   16       10.692005   0.000000
 
  0.3571429E+00  0.2500000E+00  0.4024558E-15  0.2551020E-02
    1      -10.263733   1.000000
    2       -8.109759   1.000000
    3       -7.317381   1.000000
    4       -7.174704   1.000000
    5       -6.594528   1.000000
    6       -6.252810   1.000000
    7       -3.830530   1.000000
    8        3.103327   0.000000
    9        3.657935   0.000000
   10        4.597805   0.000000
   11        4.958790   0.000000
   12        5.725605   0.000000
   13        7.159437   0.000000
   14        8.800695   0.000000
   15        9.808105   0.000000
   16       10.729625   0.000000
 
  0.4285714E+00  0.2500000E+00  0.4024558E-15  0.2551020E-02
    1       -9.434373   1.000000
    2       -7.661403   1.000000
    3       -7.442155   1.000000
    4       -6.923634   1.000000
    5       -6.503551   1.000000
    6       -6.255082   1.000000
    7       -5.133237   1.000000
    8        2.900950   0.000000
    9        3.351353   0.000000
   10        4.310275   0.000000
   11        4.829844   0.000000
   12        5.584983   0.000000
   13        7.446213   0.000000
   14        8.749881   0.000000
   15        9.001579   0.000000
   16       10.191295   0.000000
 
  0.5000000E+00  0.2500000E+00  0.4163336E-15  0.2551020E-02
    1       -8.687243   1.000000
    2       -8.209735   1.000000
    3       -7.242351   1.000000
    4       -6.906739   1.000000
    5       -6.386499   1.000000
    6       -5.967591   1.000000
    7       -5.850863   1.000000
    8        3.014932   0.000000
    9        3.272782   0.000000
   10        3.900173   0.000000
   11        4.901145   0.000000
   12        5.566990   0.000000
   13        7.442227   0.000000
   14        7.987256   0.000000
   15        8.985561   0.000000
   16       10.360056   0.000000
 
 -0.4285714E+00  0.2500000E+00  0.3469447E-15  0.2551020E-02
    1       -9.220096   1.000000
    2       -8.042703   1.000000
    3       -7.544047   1.000000
    4       -7.150663   1.000000
    5       -6.301594   1.000000
    6       -5.996448   1.000000
    7       -5.078872   1.000000
    8        3.194563   0.000000
    9        3.387465   0.000000
   10        4.057016   0.000000
   11        5.079475   0.000000
   12        5.757529   0.000000
   13        6.716565   0.000000
   14        7.232461   0.000000
   15        9.488285   0.000000
   16       10.736159   0.000000
 
 -0.3571429E+00  0.2500000E+00  0.3608225E-15  0.2551020E-02
    1      -10.093605   1.000000
    2       -8.398687   1.000000
    3       -7.613255   1.000000
    4       -7.156033   1.000000
    5       -6.529461   1.000000
    6       -5.955651   1.000000
    7       -3.720418   1.000000
    8        3.290669   0.000000
    9        3.864114   0.000000
   10        4.511136   0.000000
   11        5.215416   0.000000
   12        5.727019   0.000000
   13        6.548726   0.000000
   14        7.103244   0.000000
   15        9.529424   0.000000
   16       11.023207   0.000000
 
 -0.2857143E+00  0.2500000E+00  0.3608225E-15  0.2551020E-02
    1      -10.884787   1.000000
    2       -8.906144   1.000000
    3       -7.870944   1.000000
    4       -7.123840   1.000000
    5       -6.709850   1.000000
    6       -6.018094   1.000000
    7       -2.076280   1.030480
    8        3.650073   0.000000
    9        4.159656   0.000000
   10        4.536468   0.000000
   11        4.880244   0.000000
   12        6.440021   0.000000
   13        6.947774   0.000000
   14        7.750013   0.000000
   15        9.521010   0.000000
   16       11.192941   0.000000
 
 -0.2142857E+00  0.2500000E+00  0.3747003E-15  0.2551020E-02
    1      -11.514999   1.000000
    2       -9.334740   1.000000
    3       -8.129463   1.000000
    4       -7.261582   1.000000
    5       -6.830124   1.000000
    6       -6.126310   1.000000
    7       -0.193288   0.000000
    8        3.805852   0.000000
    9        3.963961   0.000000
   10        4.327115   0.000000
   11        5.469742   0.000000
   12        6.822260   0.000000
   13        7.930259   0.000000
   14        8.765007   0.000000
   15        9.910681   0.000000
   16       11.337054   0.000000
 
 -0.1428571E+00  0.2500000E+00  0.3747003E-15  0.2551020E-02
    1      -11.975320   1.000000
    2       -9.653898   1.000000
    3       -8.322329   1.000000
    4       -7.429326   1.000000
    5       -6.960491   1.000000
    6       -6.232805   1.000000
    7        1.885008   0.000000
    8        3.446387   0.000000
    9        3.618612   0.000000
   10        4.915042   0.000000
   11        6.040706   0.000000
   12        6.715555   0.000000
   13        9.166111   0.000000
   14        9.728218   0.000000
   15       10.793466   0.000000
   16       11.663890   0.000000
 
 -0.7142857E-01  0.2500000E+00  0.3747003E-15  0.2551020E-02
    1      -12.260424   1.000000
    2       -9.846259   1.000000
    3       -8.428194   1.000000
    4       -7.552682   1.000000
    5       -7.087125   1.000000
    6       -6.317196   1.000000
    7        3.188716   0.000000
    8        3.406114   0.000000
    9        4.057519   0.000000
   10        5.539851   0.000000
   11        6.305200   0.000000
   12        6.518441   0.000000
   13        9.375686   0.000000
   14       10.108296   0.000000
   15       10.660740   0.000000
   16       11.789600   0.000000
 
  0.3727487E-15  0.3750000E+00  0.3538836E-15  0.2551020E-02
    1      -12.198841   1.000000
    2      -10.035913   1.000000
    3       -8.684902   1.000000
    4       -7.660467   1.000000
    5       -7.014416   1.000000
    6       -6.397973   1.000000
    7        3.808643   0.000000
    8        4.004403   0.000000
    9        5.184329   0.000000
   10        5.931628   0.000000
   11        6.726829   0.000000
   12        7.022136   0.000000
   13        7.494255   0.000000
   14        9.788532   0.000000
   15       10.142932   0.000000
   16       10.952537   0.000000
 
  0.7142857E-01  0.3750000E+00  0.3677614E-15  0.2551020E-02
    1      -12.120045   1.000000
    2       -9.947845   1.000000
    3       -8.595953   1.000000
    4       -7.619036   1.000000
    5       -7.040341   1.000000
    6       -6.363009   1.000000
    7        3.781663   0.000000
    8        4.004223   0.000000
    9        4.349271   0.000000
   10        5.518990   0.000000
   11        5.993907   0.000000
   12        7.038622   0.000000
   13        9.318063   0.000000
   14        9.709243   0.000000
   15       10.046652   0.000000
   16       10.849247   0.000000
 
  0.1428571E+00  0.3750000E+00  0.3686287E-15  0.2551020E-02
    1      -11.859668   1.000000
    2       -9.722706   1.000000
    3       -8.395079   1.000000
    4       -7.503062   1.000000
    5       -7.016539   1.000000
    6       -6.310846   1.000000
    7        1.903757   0.000000
    8        4.047293   0.000000
    9        4.155520   0.000000
   10        5.590549   0.000000
   11        5.917478   0.000000
   12        6.609385   0.000000
   13        8.711553   0.000000
   14        9.475586   0.000000
   15       10.493307   0.000000
   16       10.805970   0.000000
 
  0.2142857E+00  0.3750000E+00  0.3781697E-15  0.2551020E-02
    1      -11.418029   1.000000
    2       -9.356800   1.000000
    3       -8.096037   1.000000
    4       -7.325000   1.000000
    5       -6.961544   1.000000
    6       -6.262203   1.000000
    7       -0.224019   0.000000
    8        4.081787   0.000000
    9        4.363779   0.000000
   10        5.282287   0.000000
   11        5.741766   0.000000
   12        6.277401   0.000000
   13        8.047468   0.000000
   14        8.971897   0.000000
   15        9.900372   0.000000
   16       10.270224   0.000000
 
  0.2857143E+00  0.3750000E+00  0.3677614E-15  0.2551020E-02
    1      -10.811263   1.000000
    2       -8.870520   1.000000
    3       -7.728812   1.000000
    4       -7.125157   1.000000
    5       -6.910343   1.000000
    6       -6.271688   1.000000
    7       -2.152034   1.011132
    8        3.807381   0.000000
    9        4.251278   0.000000
   10        5.027105   0.000000
   11        5.533520   0.000000
   12        6.100640   0.000000
   13        7.432762   0.000000
   14        8.830651   0.000000
   15        9.476468   0.000000
   16        9.920988   0.000000
 
  0.3571429E+00  0.3750000E+00  0.3538836E-15  0.2551020E-02
    1      -10.057808   1.000000
    2       -8.283904   1.000000
    3       -7.346355   1.000000
    4       -7.010768   1.000000
    5       -6.875711   1.000000
    6       -6.381362   1.000000
    7       -3.831375   1.000000
    8        3.352043   0.000000
    9        3.838317   0.000000
   10        4.879851   0.000000
   11        5.138146   0.000000
   12        6.479168   0.000000
   13        6.710017   0.000000
   14        8.913595   0.000000
   15        9.464938   0.000000
   16       10.097889   0.000000
 
  0.4285714E+00  0.3750000E+00  0.3608225E-15  0.2551020E-02
    1       -9.215700   1.000000
    2       -7.647701   1.000000
    3       -7.284786   1.000000
    4       -7.018056   1.000000
    5       -6.819030   1.000000
    6       -6.482598   1.000000
    7       -5.155039   1.000000
    8        3.116383   0.000000
    9        3.472680   0.000000
   10        4.626032   0.000000
   11        4.789657   0.000000
   12        6.041878   0.000000
   13        7.226945   0.000000
   14        9.032579   0.000000
   15        9.385921   0.000000
   16       10.327226   0.000000
 
  0.5000000E+00  0.3750000E+00  0.3608225E-15  0.2551020E-02
    1       -8.492535   1.000000
    2       -7.889172   1.000000
    3       -7.342290   1.000000
    4       -6.959356   1.000000
    5       -6.793884   1.000000
    6       -6.250555   1.000000
    7       -5.808489   1.000000
    8        3.157899   0.000000
    9        3.383863   0.000000
   10        4.245794   0.000000
   11        4.757699   0.000000
   12        5.868227   0.000000
   13        7.569290   0.000000
   14        8.597087   0.000000
   15        9.373426   0.000000
   16       10.295155   0.000000
 
 -0.4285714E+00  0.3750000E+00  0.3330669E-15  0.2551020E-02
    1       -8.984605   1.000000
    2       -8.092967   1.000000
    3       -7.492345   1.000000
    4       -7.037359   1.000000
    5       -6.557538   1.000000
    6       -6.331649   1.000000
    7       -5.112406   1.000000
    8        3.330482   0.000000
    9        3.569697   0.000000
   10        4.260972   0.000000
   11        4.940044   0.000000
   12        6.117696   0.000000
   13        7.102262   0.000000
   14        7.869504   0.000000
   15        9.445442   0.000000
   16       10.435519   0.000000
 
 -0.3571429E+00  0.3750000E+00  0.3747003E-15  0.2551020E-02
    1       -9.891800   1.000000
    2       -8.562638   1.000000
    3       -7.619508   1.000000
    4       -6.951557   1.000000
    5       -6.702665   1.000000
    6       -6.250086   1.000000
    7       -3.755600   1.000000
    8        3.558795   0.000000
    9        3.900301   0.000000
   10        4.820613   0.000000
   11        5.334083   0.000000
   12        6.229396   0.000000
   13        6.683069   0.000000
   14        7.480065   0.000000
   15        9.138769   0.000000
   16       10.690097   0.000000
 
 -0.2857143E+00  0.3750000E+00  0.4024558E-15  0.2551020E-02
    1      -10.700817   1.000000
    2       -9.054960   1.000000
    3       -7.960413   1.000000
    4       -7.067262   1.000000
    5       -6.699538   1.000000
    6       -6.251839   1.000000
    7       -2.087609   1.047276
    8        3.868134   0.000000
    9        4.393494   0.000000
   10        5.159790   0.000000
   11        5.471995   0.000000
   12        6.118336   0.000000
   13        7.195784   0.000000
   14        7.775054   0.000000
   15        9.016433   0.000000
   16       10.521403   0.000000
 
 -0.2142857E+00  0.3750000E+00  0.3747003E-15  0.2551020E-02
    1      -11.342201   1.000000
    2       -9.478233   1.000000
    3       -8.281242   1.000000
    4       -7.292959   1.000000
    5       -6.721864   1.000000
    6       -6.294730   1.000000
    7       -0.180996   0.000000
    8        4.197763   0.000000
    9        4.556169   0.000000
   10        4.944926   0.000000
   11        5.343962   0.000000
   12        7.091430   0.000000
   13        7.996042   0.000000
   14        8.294176   0.000000
   15        9.354937   0.000000
   16       10.590829   0.000000
 
 -0.1428571E+00  0.3750000E+00  0.3747003E-15  0.2551020E-02
    1      -11.808168   1.000000
    2       -9.793933   1.000000
    3       -8.522804   1.000000
    4       -7.489687   1.000000
    5       -6.820704   1.000000
    6       -6.354958   1.000000
    7        1.919215   0.000000
    8        4.135252   0.000000
    9        4.371578   0.000000
   10        4.899176   0.000000
   11        5.669803   0.000000
   12        7.738577   0.000000
   13        8.588277   0.000000
   14        9.186672   0.000000
   15       10.146753   0.000000
   16       10.905744   0.000000
 
 -0.7142857E-01  0.3750000E+00  0.3677614E-15  0.2551020E-02
    1      -12.096333   1.000000
    2       -9.983160   1.000000
    3       -8.662759   1.000000
    4       -7.618133   1.000000
    5       -6.934784   1.000000
    6       -6.397971   1.000000
    7        3.823388   0.000000
    8        4.120697   0.000000
    9        4.226740   0.000000
   10        5.264743   0.000000
   11        5.870475   0.000000
   12        7.648977   0.000000
   13        9.258552   0.000000
   14        9.590645   0.000000
   15        9.989546   0.000000
   16       10.879516   0.000000
 
  0.3722066E-15  0.5000000E+00  0.3538836E-15  0.1275510E-02
    1      -12.117658   1.000000
    2      -10.120981   1.000000
    3       -8.754531   1.000000
    4       -7.716399   1.000000
    5       -6.835370   1.000000