   8   8   1   0
  0.8930057E+01  0.3364072E-09  0.3372416E-09  0.7364140E-09  0.5000000E-15
  1.000000000000000E-004
  CAR 
 unknown system                          
     21.69795411    -35.14277148  301      2.85009662      1.00000000
    -35.143  0.0000E+00  0.0000E+00  0.0000E+00  0.0000E+00
    -34.953  0.0000E+00  0.0000E+00  0.0000E+00  0.0000E+00
    -34.764  0.0000E+00  0.0000E+00  0.0000E+00  0.0000E+00
    -34.574  0.0000E+00  0.0000E+00  0.0000E+00  0.0000E+00
    -34.385  0.0000E+00  0.0000E+00  0.0000E+00  0.0000E+00
    -34.195  0.0000E+00  0.0000E+00  0.0000E+00  0.0000E+00
    -34.006  0.0000E+00  0.0000E+00  0.0000E+00  0.0000E+00
    -33.816  0.0000E+00  0.0000E+00  0.0000E+00  0.0000E+00
    -33.627  0.0000E+00  0.0000E+00  0.0000E+00  0.0000E+00
    -33.438  0.0000E+00  0.0000E+00  0.0000E+00  0.0000E+00
    -33.248  0.0000E+00  0.0000E+00  0.0000E+00  0.0000E+00
    -33.059  0.0000E+00  0.0000E+00  0.0000E+00  0.0000E+00
    -32.869  0.0000E+00  0.0000E+00  0.0000E+00  0.0000E+00
    -32.680  0.0000E+00  0.0000E+00  0.0000E+00  0.0000E+00
    -32.490  0.8591E-01  0.8591E-01  0.3599E-02  0.3599E-02
    -32.301  0.0000E+00  0.0000E+00  0.1010E-01  0.1010E-01
    -32.111  0.0000E+00  0.0000E+00  0.1010E-01  0.1010E-01
    -31.922  0.0000E+00  0.0000E+00  0.1010E-01  0.1010E-01
    -31.732  0.0000E+00  0.0000E+00  0.1010E-01  0.1010E-01
    -31.543  0.0000E+00  0.0000E+00  0.1010E-01  0.1010E-01
    -31.353  0.0000E+00  0.0000E+00  0.1010E-01  0.1010E-01
    -31.164  0.0000E+00  0.0000E+00  0.1010E-01  0.1010E-01
    -30.974  0.0000E+00  0.0000E+00  0.1010E-01  0.1010E-01
    -30.785  0.0000E+00  0.0000E+00  0.1010E-01  0.1010E-01
    -30.596  0.0000E+00  0.0000E+00  0.1010E-01  0.1010E-01
    -30.406  0.0000E+00  0.0000E+00  0.1010E-01  0.1010E-01
    -30.217  0.0000E+00  0.0000E+00  0.1010E-01  0.1010E-01
    -30.027  0.0000E+00  0.0000E+00  0.1010E-01  0.1010E-01
    -29.838  0.0000E+00  0.0000E+00  0.1010E-01  0.1010E-01
    -29.648  0.0000E+00  0.0000E+00  0.1010E-01  0.1010E-01
    -29.459  0.0000E+00  0.0000E+00  0.1010E-01  0.1010E-01
    -29.269  0.0000E+00  0.0000E+00  0.1010E-01  0.1010E-01
    -29.080  0.0000E+00  0.0000E+00  0.1010E-01  0.1010E-01
    -28.890  0.6269E-01  0.6269E-01  0.3101E-01  0.3101E-01
    -28.701  0.0000E+00  0.0000E+00  0.4040E-01  0.4040E-01
    -28.511  0.0000E+00  0.0000E+00  0.4040E-01  0.4040E-01
    -28.322  0.0000E+00  0.0000E+00  0.4040E-01  0.4040E-01
    -28.132  0.0000E+00  0.0000E+00  0.4040E-01  0.4040E-01
    -27.943  0.0000E+00  0.0000E+00  0.4040E-01  0.4040E-01
    -27.753  0.0000E+00  0.0000E+00  0.4040E-01  0.4040E-01
    -27.564  0.0000E+00  0.0000E+00  0.4040E-01  0.4040E-01
    -27.375  0.0000E+00  0.0000E+00  0.4040E-01  0.4040E-01
    -27.185  0.0000E+00  0.0000E+00  0.4040E-01  0.4040E-01
    -26.996  0.0000E+00  0.0000E+00  0.4040E-01  0.4040E-01
    -26.806  0.0000E+00  0.0000E+00  0.4040E-01  0.4040E-01
    -26.617  0.0000E+00  0.0000E+00  0.4040E-01  0.4040E-01
    -26.427  0.0000E+00  0.0000E+00  0.4040E-01  0.4040E-01
    -26.238  0.0000E+00  0.0000E+00  0.4040E-01  0.4040E-01
    -26.048  0.0000E+00  0.0000E+00  0.4040E-01  0.4040E-01
    -25.859  0.0000E+00  0.0000E+00  0.4040E-01  0.4040E-01
    -25.669  0.0000E+00  0.0000E+00  0.4040E-01  0.4040E-01
    -25.480  0.0000E+00  0.0000E+00  0.4040E-01  0.4040E-01
    -25.290  0.0000E+00  0.0000E+00  0.4040E-01  0.4040E-01
    -25.101  0.0000E+00  0.0000E+00  0.4040E-01  0.4040E-01
    -24.911  0.0000E+00  0.0000E+00  0.4040E-01  0.4040E-01
    -24.722  0.0000E+00  0.0000E+00  0.4040E-01  0.4040E-01
    -24.533  0.0000E+00  0.0000E+00  0.4040E-01  0.4040E-01
    -24.343  0.0000E+00  0.0000E+00  0.4040E-01  0.4040E-01
    -24.154  0.0000E+00  0.0000E+00  0.4040E-01  0.4040E-01
    -23.964  0.0000E+00  0.0000E+00  0.4040E-01  0.4040E-01
    -23.775  0.0000E+00  0.0000E+00  0.4040E-01  0.4040E-01
    -23.585  0.0000E+00  0.0000E+00  0.4040E-01  0.4040E-01
    -23.396  0.0000E+00  0.0000E+00  0.4040E-01  0.4040E-01
    -23.206  0.0000E+00  0.0000E+00  0.4040E-01  0.4040E-01
    -23.017  0.0000E+00  0.0000E+00  0.4040E-01  0.4040E-01
    -22.827  0.0000E+00  0.0000E+00  0.4040E-01  0.4040E-01
    -22.638  0.0000E+00  0.0000E+00  0.4040E-01  0.4040E-01
    -22.448  0.0000E+00  0.0000E+00  0.4040E-01  0.4040E-01
    -22.259  0.0000E+00  0.0000E+00  0.4040E-01  0.4040E-01
    -22.069  0.0000E+00  0.0000E+00  0.4040E-01  0.4040E-01
    -21.880  0.0000E+00  0.0000E+00  0.4040E-01  0.4040E-01
    -21.690  0.0000E+00  0.0000E+00  0.4040E-01  0.4040E-01
    -21.501  0.0000E+00  0.0000E+00  0.4040E-01  0.4040E-01
    -21.312  0.0000E+00  0.0000E+00  0.4040E-01  0.4040E-01
    -21.122  0.0000E+00  0.0000E+00  0.4040E-01  0.4040E-01
    -20.933  0.0000E+00  0.0000E+00  0.4040E-01  0.4040E-01
    -20.743  0.0000E+00  0.0000E+00  0.4040E-01  0.4040E-01
    -20.554  0.0000E+00  0.0000E+00  0.4040E-01  0.4040E-01
    -20.364  0.0000E+00  0.0000E+00  0.4040E-01  0.4040E-01
    -20.175  0.0000E+00  0.0000E+00  0.4040E-01  0.4040E-01
    -19.985  0.0000E+00  0.0000E+00  0.4040E-01  0.4040E-01
    -19.796  0.0000E+00  0.0000E+00  0.4040E-01  0.4040E-01
    -19.606  0.0000E+00  0.0000E+00  0.4040E-01  0.4040E-01
    -19.417  0.0000E+00  0.0000E+00  0.4040E-01  0.4040E-01
    -19.227  0.0000E+00  0.0000E+00  0.4040E-01  0.4040E-01
    -19.038  0.0000E+00  0.0000E+00  0.4040E-01  0.4040E-01
    -18.848  0.0000E+00  0.0000E+00  0.4040E-01  0.4040E-01
    -18.659  0.0000E+00  0.0000E+00  0.4040E-01  0.4040E-01
    -18.469  0.0000E+00  0.0000E+00  0.4040E-01  0.4040E-01
    -18.280  0.0000E+00  0.0000E+00  0.4040E-01  0.4040E-01
    -18.091  0.0000E+00  0.0000E+00  0.4040E-01  0.4040E-01
    -17.901  0.0000E+00  0.0000E+00  0.4040E-01  0.4040E-01
    -17.712  0.0000E+00  0.0000E+00  0.4040E-01  0.4040E-01
    -17.522  0.0000E+00  0.0000E+00  0.4040E-01  0.4040E-01
    -17.333  0.0000E+00  0.0000E+00  0.4040E-01  0.4040E-01
    -17.143  0.0000E+00  0.0000E+00  0.4040E-01  0.4040E-01
    -16.954  0.0000E+00  0.0000E+00  0.4040E-01  0.4040E-01
    -16.764  0.0000E+00  0.0000E+00  0.4040E-01  0.4040E-01
    -16.575  0.0000E+00  0.0000E+00  0.4040E-01  0.4040E-01
    -16.385  0.0000E+00  0.0000E+00  0.4040E-01  0.4040E-01
    -16.196  0.0000E+00  0.0000E+00  0.4040E-01  0.4040E-01
    -16.006  0.0000E+00  0.0000E+00  0.4040E-01  0.4040E-01
    -15.817  0.0000E+00  0.0000E+00  0.4040E-01  0.4040E-01
    -15.627  0.0000E+00  0.0000E+00  0.4040E-01  0.4040E-01
    -15.438  0.0000E+00  0.0000E+00  0.4040E-01  0.4040E-01
    -15.249  0.0000E+00  0.0000E+00  0.4040E-01  0.4040E-01
    -15.059  0.1952E-01  0.1952E-01  0.4236E-01  0.4236E-01
    -14.870  0.1870E-01  0.1870E-01  0.4712E-01  0.4712E-01
    -14.680  0.3800E-01  0.3800E-01  0.5165E-01  0.5165E-01
    -14.491  0.3045E-01  0.3045E-01  0.5945E-01  0.5945E-01
    -14.301  0.3038E-01  0.3038E-01  0.6758E-01  0.6758E-01
    -14.112  0.0000E+00  0.0000E+00  0.7071E-01  0.7071E-01
    -13.922  0.0000E+00  0.0000E+00  0.7071E-01  0.7071E-01
    -13.733  0.0000E+00  0.0000E+00  0.7071E-01  0.7071E-01
    -13.543  0.0000E+00  0.0000E+00  0.7071E-01  0.7071E-01
    -13.354  0.0000E+00  0.0000E+00  0.7071E-01  0.7071E-01
    -13.164  0.0000E+00  0.0000E+00  0.7071E-01  0.7071E-01
    -12.975  0.0000E+00  0.0000E+00  0.7071E-01  0.7071E-01
    -12.785  0.0000E+00  0.0000E+00  0.7071E-01  0.7071E-01
    -12.596  0.0000E+00  0.0000E+00  0.7071E-01  0.7071E-01
    -12.406  0.0000E+00  0.0000E+00  0.7071E-01  0.7071E-01
    -12.217  0.0000E+00  0.0000E+00  0.7071E-01  0.7071E-01
    -12.028  0.0000E+00  0.0000E+00  0.7071E-01  0.7071E-01
    -11.838  0.0000E+00  0.0000E+00  0.7071E-01  0.7071E-01
    -11.649  0.0000E+00  0.0000E+00  0.7071E-01  0.7071E-01
    -11.459  0.0000E+00  0.0000E+00  0.7071E-01  0.7071E-01
    -11.270  0.0000E+00  0.0000E+00  0.7071E-01  0.7071E-01
    -11.080  0.0000E+00  0.0000E+00  0.7071E-01  0.7071E-01
    -10.891  0.0000E+00  0.0000E+00  0.7071E-01  0.7071E-01
    -10.701  0.0000E+00  0.0000E+00  0.7071E-01  0.7071E-01
    -10.512  0.0000E+00  0.0000E+00  0.7071E-01  0.7071E-01
    -10.322  0.0000E+00  0.0000E+00  0.7071E-01  0.7071E-01
    -10.133  0.0000E+00  0.0000E+00  0.7071E-01  0.7071E-01
     -9.943  0.0000E+00  0.0000E+00  0.7071E-01  0.7071E-01
     -9.754  0.0000E+00  0.0000E+00  0.7071E-01  0.7071E-01
     -9.564  0.0000E+00  0.0000E+00  0.7071E-01  0.7071E-01
     -9.375  0.0000E+00  0.0000E+00  0.7071E-01  0.7071E-01
     -9.186  0.0000E+00  0.0000E+00  0.7071E-01  0.7071E-01
     -8.996  0.0000E+00  0.0000E+00  0.7071E-01  0.7071E-01
     -8.807  0.0000E+00  0.0000E+00  0.7071E-01  0.7071E-01
     -8.617  0.0000E+00  0.0000E+00  0.7071E-01  0.7071E-01
     -8.428  0.0000E+00  0.0000E+00  0.7071E-01  0.7071E-01
     -8.238  0.0000E+00  0.0000E+00  0.7071E-01  0.7071E-01
     -8.049  0.0000E+00  0.0000E+00  0.7071E-01  0.7071E-01
     -7.859  0.0000E+00  0.0000E+00  0.7071E-01  0.7071E-01
     -7.670  0.0000E+00  0.0000E+00  0.7071E-01  0.7071E-01
     -7.480  0.0000E+00  0.0000E+00  0.7071E-01  0.7071E-01
     -7.291  0.0000E+00  0.0000E+00  0.7071E-01  0.7071E-01
     -7.101  0.0000E+00  0.0000E+00  0.7071E-01  0.7071E-01
     -6.912  0.0000E+00  0.0000E+00  0.7071E-01  0.7071E-01
     -6.722  0.0000E+00  0.0000E+00  0.7071E-01  0.7071E-01
     -6.533  0.0000E+00  0.0000E+00  0.7071E-01  0.7071E-01
     -6.343  0.0000E+00  0.0000E+00  0.7071E-01  0.7071E-01
     -6.154  0.0000E+00  0.0000E+00  0.7071E-01  0.7071E-01
     -5.965  0.4402E-04  0.4400E-04  0.7071E-01  0.7071E-01
     -5.775  0.6151E-03  0.6150E-03  0.7076E-01  0.7076E-01
     -5.586  0.1722E-02  0.1722E-02  0.7098E-01  0.7098E-01
     -5.396  0.2429E-02  0.2429E-02  0.7138E-01  0.7138E-01
     -5.207  0.2789E-02  0.2789E-02  0.7187E-01  0.7187E-01
     -5.017  0.2870E-02  0.2870E-02  0.7240E-01  0.7240E-01
     -4.828  0.3252E-02  0.3252E-02  0.7298E-01  0.7298E-01
     -4.638  0.3747E-02  0.3747E-02  0.7364E-01  0.7364E-01
     -4.449  0.4230E-02  0.4230E-02  0.7440E-01  0.7440E-01
     -4.259  0.5788E-02  0.5788E-02  0.7531E-01  0.7531E-01
     -4.070  0.5684E-02  0.5684E-02  0.7645E-01  0.7645E-01
     -3.880  0.3482E-02  0.3482E-02  0.7732E-01  0.7732E-01
     -3.691  0.4266E-02  0.4267E-02  0.7794E-01  0.7794E-01
     -3.501  0.3966E-02  0.3966E-02  0.7868E-01  0.7868E-01
     -3.312  0.4500E-02  0.4500E-02  0.7948E-01  0.7948E-01
     -3.122  0.5365E-02  0.5365E-02  0.8040E-01  0.8040E-01
     -2.933  0.7153E-02  0.7153E-02  0.8156E-01  0.8156E-01
     -2.744  0.1177E-01  0.1177E-01  0.8330E-01  0.8330E-01
     -2.554  0.2183E-01  0.2183E-01  0.8660E-01  0.8660E-01
     -2.365  0.2271E-01  0.2271E-01  0.9078E-01  0.9078E-01
     -2.175  0.2286E-01  0.2286E-01  0.9430E-01  0.9430E-01
     -1.986  0.2166E-01  0.2166E-01  0.9676E-01  0.9676E-01
     -1.796  0.7817E-02  0.7825E-02  0.1011E+00  0.1011E+00
     -1.607  0.1195E-01  0.1195E-01  0.1024E+00  0.1024E+00
     -1.417  0.1334E-01  0.1334E-01  0.1062E+00  0.1062E+00
     -1.228  0.1139E-01  0.1139E-01  0.1084E+00  0.1084E+00
     -1.038  0.1320E-01  0.1320E-01  0.1105E+00  0.1105E+00
     -0.849  0.1473E-01  0.1473E-01  0.1134E+00  0.1134E+00
     -0.659  0.2124E-01  0.2124E-01  0.1167E+00  0.1167E+00
     -0.470  0.8712E-02  0.8712E-02  0.1196E+00  0.1196E+00
     -0.280  0.6261E-02  0.6261E-02  0.1209E+00  0.1209E+00
     -0.091  0.5213E-02  0.5213E-02  0.1220E+00  0.1220E+00
      0.098  0.5743E-02  0.5743E-02  0.1230E+00  0.1230E+00
      0.288  0.6146E-02  0.6146E-02  0.1241E+00  0.1241E+00
      0.477  0.6104E-02  0.6104E-02  0.1253E+00  0.1253E+00
      0.667  0.5745E-02  0.5745E-02  0.1265E+00  0.1265E+00
      0.856  0.5483E-02  0.5483E-02  0.1275E+00  0.1275E+00
      1.046  0.6941E-02  0.6941E-02  0.1290E+00  0.1290E+00
      1.235  0.6887E-02  0.6887E-02  0.1303E+00  0.1303E+00
      1.425  0.5268E-02  0.5268E-02  0.1315E+00  0.1315E+00
      1.614  0.3806E-02  0.3806E-02  0.1323E+00  0.1323E+00
      1.804  0.3057E-02  0.3057E-02  0.1330E+00  0.1330E+00
      1.993  0.2784E-02  0.2784E-02  0.1335E+00  0.1335E+00
      2.183  0.2727E-02  0.2727E-02  0.1340E+00  0.1340E+00
      2.372  0.2826E-02  0.2825E-02  0.1346E+00  0.1346E+00
      2.562  0.3097E-02  0.3097E-02  0.1351E+00  0.1351E+00
      2.751  0.4792E-02  0.4791E-02  0.1358E+00  0.1358E+00
      2.941  0.7011E-02  0.7009E-02  0.1369E+00  0.1369E+00
      3.130  0.1907E-01  0.1908E-01  0.1397E+00  0.1397E+00
      3.319  0.6356E-02  0.6356E-02  0.1415E+00  0.1415E+00
      3.509  0.7537E-02  0.7535E-02  0.1427E+00  0.1427E+00
      3.698  0.1377E-01  0.1377E-01  0.1449E+00  0.1449E+00
      3.888  0.1067E-01  0.1067E-01  0.1473E+00  0.1473E+00
      4.077  0.5578E-02  0.5580E-02  0.1488E+00  0.1488E+00
      4.267  0.1127E-01  0.1127E-01  0.1503E+00  0.1503E+00
      4.456  0.1159E-01  0.1160E-01  0.1528E+00  0.1528E+00
      4.646  0.1081E-01  0.1081E-01  0.1549E+00  0.1549E+00
      4.835  0.8259E-02  0.8260E-02  0.1569E+00  0.1569E+00
      5.025  0.1166E-01  0.1166E-01  0.1585E+00  0.1585E+00
      5.214  0.1265E-01  0.1266E-01  0.1610E+00  0.1610E+00
      5.404  0.7195E-02  0.7195E-02  0.1622E+00  0.1622E+00
      5.593  0.9797E-02  0.9798E-02  0.1639E+00  0.1639E+00
      5.783  0.1019E-01  0.1019E-01  0.1657E+00  0.1657E+00
      5.972  0.1192E-01  0.1192E-01  0.1678E+00  0.1678E+00
      6.161  0.1766E-01  0.1766E-01  0.1699E+00  0.1699E+00
      6.351  0.4375E-02  0.4375E-02  0.1722E+00  0.1722E+00
      6.540  0.2048E-01  0.2047E-01  0.1740E+00  0.1740E+00
      6.730  0.1853E-01  0.1853E-01  0.1787E+00  0.1787E+00
      6.919  0.7110E-02  0.7110E-02  0.1804E+00  0.1804E+00
      7.109  0.1970E-01  0.1969E-01  0.1831E+00  0.1831E+00
      7.298  0.1579E-01  0.1579E-01  0.1877E+00  0.1877E+00
      7.488  0.1139E-01  0.1139E-01  0.1901E+00  0.1901E+00
      7.677  0.1902E-01  0.1902E-01  0.1929E+00  0.1929E+00
      7.867  0.2193E-01  0.2193E-01  0.1979E+00  0.1979E+00
      8.056  0.1039E-01  0.1039E-01  0.2004E+00  0.2004E+00
      8.246  0.5332E-02  0.5332E-02  0.2019E+00  0.2019E+00
      8.435  0.1817E-01  0.1817E-01  0.2038E+00  0.2038E+00
      8.625  0.1988E-01  0.1988E-01  0.2075E+00  0.2075E+00
      8.814  0.1255E-01  0.1255E-01  0.2108E+00  0.2108E+00
      9.004  0.6918E-02  0.6918E-02  0.2126E+00  0.2126E+00
      9.193  0.8445E-02  0.8444E-02  0.2139E+00  0.2139E+00
      9.382  0.1633E-01  0.1633E-01  0.2161E+00  0.2161E+00
      9.572  0.1122E-01  0.1122E-01  0.2191E+00  0.2191E+00
      9.761  0.1320E-01  0.1320E-01  0.2213E+00  0.2213E+00
      9.951  0.1721E-01  0.1721E-01  0.2239E+00  0.2239E+00
     10.140  0.2115E-01  0.2115E-01  0.2275E+00  0.2275E+00
     10.330  0.1141E-01  0.1141E-01  0.2312E+00  0.2312E+00
     10.519  0.6332E-02  0.6332E-02  0.2328E+00  0.2328E+00
     10.709  0.1846E-01  0.1845E-01  0.2347E+00  0.2347E+00
     10.898  0.3252E-01  0.3253E-01  0.2399E+00  0.2399E+00
     11.088  0.3797E-02  0.3797E-02  0.2424E+00  0.2424E+00
     11.277  0.7269E-02  0.7269E-02  0.2432E+00  0.2432E+00
     11.467  0.2019E-01  0.2019E-01  0.2456E+00  0.2456E+00
     11.656  0.1917E-01  0.1917E-01  0.2506E+00  0.2506E+00
     11.846  0.3036E-02  0.3037E-02  0.2523E+00  0.2523E+00
     12.035  0.3252E-02  0.3251E-02  0.2528E+00  0.2528E+00
     12.224  0.1765E-01  0.1764E-01  0.2543E+00  0.2543E+00
     12.414  0.1842E-01  0.1843E-01  0.2590E+00  0.2590E+00
     12.603  0.1268E-01  0.1268E-01  0.2612E+00  0.2612E+00
     12.793  0.1393E-01  0.1393E-01  0.2642E+00  0.2642E+00
     12.982  0.9151E-02  0.9151E-02  0.2664E+00  0.2664E+00
     13.172  0.9409E-02  0.9409E-02  0.2681E+00  0.2681E+00
     13.361  0.1237E-01  0.1237E-01  0.2705E+00  0.2705E+00
     13.551  0.9541E-02  0.9543E-02  0.2726E+00  0.2726E+00
     13.740  0.4965E-02  0.4966E-02  0.2738E+00  0.2738E+00
     13.930  0.5978E-02  0.5978E-02  0.2748E+00  0.2748E+00
     14.119  0.4677E-02  0.4677E-02  0.2757E+00  0.2757E+00
     14.309  0.5973E-02  0.5973E-02  0.2767E+00  0.2767E+00
     14.498  0.9270E-02  0.9269E-02  0.2781E+00  0.2781E+00
     14.688  0.1309E-01  0.1309E-01  0.2802E+00  0.2802E+00
     14.877  0.1281E-01  0.1281E-01  0.2827E+00  0.2827E+00
     15.067  0.9023E-02  0.9024E-02  0.2847E+00  0.2847E+00
     15.256  0.8906E-02  0.8906E-02  0.2864E+00  0.2864E+00
     15.445  0.1285E-01  0.1285E-01  0.2885E+00  0.2885E+00
     15.635  0.1466E-01  0.1466E-01  0.2911E+00  0.2911E+00
     15.824  0.1193E-01  0.1193E-01  0.2936E+00  0.2936E+00
     16.014  0.1249E-01  0.1249E-01  0.2958E+00  0.2958E+00
     16.203  0.1432E-01  0.1432E-01  0.2984E+00  0.2984E+00
     16.393  0.9430E-02  0.9430E-02  0.3007E+00  0.3007E+00
     16.582  0.4727E-02  0.4727E-02  0.3020E+00  0.3020E+00
     16.772  0.1160E-01  0.1160E-01  0.3032E+00  0.3032E+00
     16.961  0.1824E-01  0.1824E-01  0.3063E+00  0.3063E+00
     17.151  0.1458E-01  0.1458E-01  0.3095E+00  0.3095E+00
     17.340  0.8717E-02  0.8717E-02  0.3117E+00  0.3117E+00
     17.530  0.4300E-02  0.4300E-02  0.3129E+00  0.3129E+00
     17.719  0.1866E-02  0.1865E-02  0.3134E+00  0.3134E+00
     17.909  0.4253E-02  0.4252E-02  0.3139E+00  0.3139E+00
     18.098  0.1188E-01  0.1188E-01  0.3154E+00  0.3154E+00
     18.288  0.1952E-01  0.1952E-01  0.3183E+00  0.3183E+00
     18.477  0.1276E-01  0.1276E-01  0.3217E+00  0.3217E+00
     18.666  0.2752E-02  0.2753E-02  0.3229E+00  0.3229E+00
     18.856  0.5062E-03  0.5067E-03  0.3232E+00  0.3232E+00
     19.045  0.2660E-04  0.2664E-04  0.3232E+00  0.3232E+00
     19.235  0.0000E+00  0.0000E+00  0.3232E+00  0.3232E+00
     19.424  0.0000E+00  0.0000E+00  0.3232E+00  0.3232E+00
     19.614  0.0000E+00  0.0000E+00  0.3232E+00  0.3232E+00
     19.803  0.0000E+00  0.0000E+00  0.3232E+00  0.3232E+00
     19.993  0.0000E+00  0.0000E+00  0.3232E+00  0.3232E+00
     20.182  0.0000E+00  0.0000E+00  0.3232E+00  0.3232E+00
     20.372  0.0000E+00  0.0000E+00  0.3232E+00  0.3232E+00
     20.561  0.0000E+00  0.0000E+00  0.3232E+00  0.3232E+00
     20.751  0.0000E+00  0.0000E+00  0.3232E+00  0.3232E+00
     20.940  0.0000E+00  0.0000E+00  0.3232E+00  0.3232E+00
     21.130  0.0000E+00  0.0000E+00  0.3232E+00  0.3232E+00
     21.319  0.0000E+00  0.0000E+00  0.3232E+00  0.3232E+00
     21.508  0.0000E+00  0.0000E+00  0.3232E+00  0.3232E+00
     21.698  0.0000E+00  0.0000E+00  0.3232E+00  0.3232E+00
     21.69795411    -35.14277148  301      2.85009662      1.00000000
    -35.143  0.0000E+00  0.0000E+00  0.0000E+00  0.0000E+00  0.0000E+00  0.0000E+00  0.0000E+00  0.0000E+00  0.0000E+00  0.0000E+00  0.0000E+00  0.0000E+00  0.0000E+00  0.0000E+00  0.0000E+00  0.0000E+00  0.0000E+00  0.0000E+00
    -34.953  0.0000E+00  0.0000E+00  0.0000E+00  0.0000E+00  0.0000E+00  0.0000E+00  0.0000E+00  0.0000E+00  0.0000E+00  0.0000E+00  0.0000E+00  0.0000E+00  0.0000E+00  0.0000E+00  0.0000E+00  0.0000E+00  0.0000E+00  0.0000E+00
    -34.764  0.0000E+00  0.0000E+00  0.0000E+00  0.0000E+00  0.0000E+00  0.0000E+00  0.0000E+00  0.0000E+00  0.0000E+00  0.0000E+00  0.0000E+00  0.0000E+00  0.0000E+00  0.0000E+00  0.0000E+00  0.0000E+00  0.0000E+00  0.0000E+00
    -34.574  0.0000E+00  0.0000E+00  0.0000E+00  0.0000E+00  0.0000E+00  0.0000E+00  0.0000E+00  0.0000E+00  0.0000E+00  0.0000E+00  0.0000E+00  0.0000E+00  0.0000E+00  0.0000E+00  0.0000E+00  0.0000E+00  0.0000E+00  0.0000E+00
    -34.385  0.0000E+00  0.0000E+00  0.0000E+00  0.0000E+00  0.0000E+00  0.0000E+00  0.0000E+00  0.0000E+00  0.0000E+00  0.0000E+00  0.0000E+00  0.0000E+00  0.0000E+00  0.0000E+00  0.0000E+00  0.0000E+00  0.0000E+00  0.0000E+00
    -34.195  0.0000E+00  0.0000E+00  0.0000E+00  0.0000E+00  0.0000E+00  0.0000E+00  0.0000E+00  0.0000E+00  0.0000E+00  0.0000E+00  0.0000E+00  0.0000E+00  0.0000E+00  0.0000E+00  0.0000E+00  0.0000E+00  0.0000E+00  0.0000E+00
    -34.006  0.0000E+00  0.0000E+00  0.0000E+00  0.0000E+00  0.0000E+00  0.0000E+00  0.0000E+00  0.0000E+00  0.0000E+00  0.0000E+00  0.0000E+00  0.0000E+00  0.0000E+00  0.0000E+00  0.0000E+00  0.0000E+00  0.0000E+00  0.0000E+00
    -33.816  0.0000E+00  0.0000E+00  0.0000E+00  0.0000E+00  0.0000E+00  0.0000E+00  0.0000E+00  0.0000E+00  0.0000E+00  0.0000E+00  0.0000E+00  0.0000E+00  0.0000E+00  0.0000E+00  0.0000E+00  0.0000E+00  0.0000E+00  0.0000E+00
    -33.627  0.0000E+00  0.0000E+00  0.0000E+00  0.0000E+00  0.0000E+00  0.0000E+00  0.0000E+00  0.0000E+00  0.0000E+00  0.0000E+00  0.0000E+00  0.0000E+00  0.0000E+00  0.0000E+00  0.0000E+00  0.0000E+00  0.0000E+00  0.0000E+00
    -33.438  0.0000E+00  0.0000E+00  0.0000E+00  0.0000E+00  0.0000E+00  0.0000E+00  0.0000E+00  0.0000E+00  0.0000E+00  0.0000E+00  0.0000E+00  0.0000E+00  0.0000E+00  0.0000E+00  0.0000E+00  0.0000E+00  0.0000E+00  0.0000E+00
    -33.248  0.0000E+00  0.0000E+00  0.0000E+00  0.0000E+00  0.0000E+00  0.0000E+00  0.0000E+00  0.0000E+00  0.0000E+00  0.0000E+00  0.0000E+00  0.0000E+00  0.0000E+00  0.0000E+00  0.0000E+00  0.0000E+00  0.0000E+00  0.0000E+00
    -33.059  0.0000E+00  0.0000E+00  0.0000E+00  0.0000E+00  0.0000E+00  0.0000E+00  0.0000E+00  0.0000E+00  0.0000E+00  0.0000E+00  0.0000E+00  0.0000E+00  0.0000E+00  0.0000E+00  0.0000E+00  0.0000E+00  0.0000E+00  0.0000E+00
    -32.869  0.0000E+00  0.0000E+00  0.0000E+00  0.0000E+00  0.0000E+00  0.0000E+00  0.0000E+00  0.0000E+00  0.0000E+00  0.0000E+00  0.0000E+00  0.0000E+00  0.0000E+00  0.0000E+00  0.0000E+00  0.0000E+00  0.0000E+00  0.0000E+00
    -32.680  0.0000E+00  0.0000E+00  0.0000E+00  0.0000E+00  0.0000E+00  0.0000E+00  0.0000E+00  0.0000E+00  0.0000E+00  0.0000E+00  0.0000E+00  0.0000E+00  0.0000E+00  0.0000E+00  0.0000E+00  0.0000E+00  0.0000E+00  0.0000E+00
    -32.490  0.8304E+01  0.8304E+01  0.1050E-03  0.1050E-03  0.1049E-03  0.1049E-03  0.1038E-03  0.1038E-03  0.1792E-06  0.1792E-06  0.6328E-05  0.6328E-05  0.3320E-04  0.3320E-04  0.5925E-05  0.5925E-05  0.7868E-04  0.7869E-04
    -32.301  0.0000E+00  0.0000E+00  0.0000E+00  0.0000E+00  0.0000E+00  0.0000E+00  0.0000E+00  0.0000E+00  0.0000E+00  0.0000E+00  0.0000E+00  0.0000E+00  0.0000E+00  0.0000E+00  0.0000E+00  0.0000E+00  0.0000E+00  0.0000E+00
    -32.111  0.0000E+00  0.0000E+00  0.0000E+00  0.0000E+00  0.0000E+00  0.0000E+00  0.0000E+00  0.0000E+00  0.0000E+00  0.0000E+00  0.0000E+00  0.0000E+00  0.0000E+00  0.0000E+00  0.0000E+00  0.0000E+00  0.0000E+00  0.0000E+00
    -31.922  0.0000E+00  0.0000E+00  0.0000E+00  0.0000E+00  0.0000E+00  0.0000E+00  0.0000E+00  0.0000E+00  0.0000E+00  0.0000E+00  0.0000E+00  0.0000E+00  0.0000E+00  0.0000E+00  0.0000E+00  0.0000E+00  0.0000E+00  0.0000E+00
    -31.732  0.0000E+00  0.0000E+00  0.0000E+00  0.0000E+00  0.0000E+00  0.0000E+00  0.0000E+00  0.0000E+00  0.0000E+00  0.0000E+00  0.0000E+00  0.0000E+00  0.0000E+00  0.0000E+00  0.0000E+00  0.0000E+00  0.0000E+00  0.0000E+00
    -31.543  0.0000E+00  0.0000E+00  0.0000E+00  0.0000E+00  0.0000E+00  0.0000E+00  0.0000E+00  0.0000E+00  0.0000E+00  0.0000E+00  0.0000E+00  0.0000E+00  0.0000E+00  0.0000E+00  0.0000E+00  0.0000E+00  0.0000E+00  0.0000E+00
    -31.353  0.0000E+00  0.0000E+00  0.0000E+00  0.0000E+00  0.0000E+00  0.0000E+00  0.0000E+00  0.0000E+00  0.0000E+00  0.0000E+00  0.0000E+00  0.0000E+00  0.0000E+00  0.0000E+00  0.0000E+00  0.0000E+00  0.0000E+00  0.0000E+00
    -31.164  0.0000E+00  0.0000E+00  0.0000E+00  0.0000E+00  0.0000E+00  0.0000E+00  0.0000E+00  0.0000E+00  0.0000E+00  0.0000E+00  0.0000E+00  0.0000E+00  0.0000E+00  0.0000E+00  0.0000E+00  0.0000E+00  0.0000E+00  0.0000E+00
    -30.974  0.0000E+00  0.0000E+00  0.0000E+00  0.0000E+00  0.0000E+00  0.0000E+00  0.0000E+00  0.0000E+00  0.0000E+00  0.0000E+00  0.0000E+00  0.0000E+00  0.0000E+00  0.0000E+00  0.0000E+00  0.0000E+00  0.0000E+00  0.0000E+00
    -30.785  0.0000E+00  0.0000E+00  0.0000E+00  0.0000E+00  0.0000E+00  0.0000E+00  0.0000E+00  0.0000E+00  0.0000E+00  0.0000E+00  0.0000E+00  0.0000E+00  0.0000E+00  0.0000E+00  0.0000E+00  0.0000E+00  0.0000E+00  0.0000E+00
    -30.596  0.0000E+00  0.0000E+00  0.0000E+00  0.0000E+00  0.0000E+00  0.0000E+00  0.0000E+00  0.0000E+00  0.0000E+00  0.0000E+00  0.0000E+00  0.0000E+00  0.0000E+00  0.0000E+00  0.0000E+00  0.0000E+00  0.0000E+00  0.0000E+00
    -30.406  0.0000E+00  0.0000E+00  0.0000E+00  0.0000E+00  0.0000E+00  0.0000E+00  0.0000E+00  0.0000E+00  0.0000E+00  0.0000E+00  0.0000E+00  0.0000E+00  0.0000E+00  0.0000E+00  0.0000E+00  0.0000E+00  0.0000E+00  0.0000E+00
    -30.217  0.0000E+00  0.0000E+00  0.0000E+00  0.0000E+00  0.0000E+00  0.0000E+00  0.0000E+00  0.0000E+00  0.0000E+00  0.0000E+00  0.0000E+00  0.0000E+00  0.0000E+00  0.0000E+00  0.0000E+00  0.0000E+00  0.0000E+00  0.0000E+00
    -30.027  0.0000E+00  0.0000E+00  0.0000E+00  0.0000E+00  0.0000E+00  0.0000E+00  0.0000E+00  0.0000E+00  0.0000E+00  0.0000E+00  0.0000E+00  0.0000E+00  0.0000E+00  0.0000E+00  0.0000E+00  0.0000E+00  0.0000E+00  0.0000E+00
    -29.838  0.0000E+00  0.0000E+00  0.0000E+00  0.0000E+00  0.0000E+00  0.0000E+00  0.0000E+00  0.0000E+00  0.0000E+00  0.0000E+00  0.0000E+00  0.0000E+00  0.0000E+00  0.0000E+00  0.0000E+00  0.0000E+00  0.0000E+00  0.0000E+00
    -29.648  0.0000E+00  0.0000E+00  0.0000E+00  0.0000E+00  0.0000E+00  0.0000E+00  0.0000E+00  0.0000E+00  0.0000E+00  0.0000E+00  0.0000E+00  0.0000E+00  0.0000E+00  0.0000E+00  0.0000E+00  0.0000E+00  0.0000E+00  0.0000E+00
    -29.459  0.0000E+00  0.0000E+00  0.0000E+00  0.0000E+00  0.0000E+00  0.0000E+00  0.0000E+00  0.0000E+00  0.0000E+00  0.0000E+00  0.0000E+00  0.0000E+00  0.0000E+00  0.0000E+00  0.0000E+00  0.0000E+00  0.0000E+00  0.0000E+00
    -29.269  0.0000E+00  0.0000E+00  0.0000E+00  0.0000E+00  0.0000E+00  0.0000E+00  0.0000E+00  0.0000E+00  0.0000E+00  0.0000E+00  0.0000E+00  0.0000E+00  0.0000E+00  0.0000E+00  0.0000E+00  0.0000E+00  0.0000E+00  0.0000E+00
    -29.080  0.0000E+00  0.0000E+00  0.0000E+00  0.0000E+00  0.0000E+00  0.0000E+00  0.0000E+00  0.0000E+00  0.0000E+00  0.0000E+00  0.0000E+00  0.0000E+00  0.0000E+00  0.0000E+00  0.0000E+00  0.0000E+00  0.0000E+00  0.0000E+00
    -28.890  0.6496E-04  0.6500E-04  0.3914E-05  0.3913E-05  0.1101E-04  0.1101E-04  0.2650E-05  0.2652E-05  0.3800E-06  0.3799E-06  0.2075E-05  0.2075E-05  0.1646E-05  0.1647E-05  0.1415E-05  0.1416E-05  0.2955E-06  0.2956E-06
    -28.701  0.0000E+00  0.0000E+00  0.0000E+00  0.0000E+00  0.0000E+00  0.0000E+00  0.0000E+00  0.0000E+00  0.0000E+00  0.0000E+00  0.0000E+00  0.0000E+00  0.0000E+00  0.0000E+00  0.0000E+00  0.0000E+00  0.0000E+00  0.0000E+00
    -28.511  0.0000E+00  0.0000E+00  0.0000E+00  0.0000E+00  0.0000E+00  0.0000E+00  0.0000E+00  0.0000E+00  0.0000E+00  0.0000E+00  0.0000E+00  0.0000E+00  0.0000E+00  0.0000E+00  0.0000E+00  0.0000E+00  0.0000E+00  0.0000E+00
    -28.322  0.0000E+00  0.0000E+00  0.0000E+00  0.0000E+00  0.0000E+00  0.0000E+00  0.0000E+00  0.0000E+00  0.0000E+00  0.0000E+00  0.0000E+00  0.0000E+00  0.0000E+00  0.0000E+00  0.0000E+00  0.0000E+00  0.0000E+00  0.0000E+00
    -28.132  0.0000E+00  0.0000E+00  0.0000E+00  0.0000E+00  0.0000E+00  0.0000E+00  0.0000E+00  0.0000E+00  0.0000E+00  0.0000E+00  0.0000E+00  0.0000E+00  0.0000E+00  0.0000E+00  0.0000E+00  0.0000E+00  0.0000E+00  0.0000E+00
    -27.943  0.0000E+00  0.0000E+00  0.0000E+00  0.0000E+00  0.0000E+00  0.0000E+00  0.0000E+00  0.0000E+00  0.0000E+00  0.0000E+00  0.0000E+00  0.0000E+00  0.0000E+00  0.0000E+00  0.0000E+00  0.0000E+00  0.0000E+00  0.0000E+00
    -27.753  0.0000E+00  0.0000E+00  0.0000E+00  0.0000E+00  0.0000E+00  0.0000E+00  0.0000E+00  0.0000E+00  0.0000E+00  0.0000E+00  0.0000E+00  0.0000E+00  0.0000E+00  0.0000E+00  0.0000E+00  0.0000E+00  0.0000E+00  0.0000E+00
    -27.564  0.0000E+00  0.0000E+00  0.0000E+00  0.0000E+00  0.0000E+00  0.0000E+00  0.0000E+00  0.0000E+00  0.0000E+00  0.0000E+00  0.0000E+00  0.0000E+00  0.0000E+00  0.0000E+00  0.0000E+00  0.0000E+00  0.0000E+00  0.0000E+00
    -27.375  0.0000E+00  0.0000E+00  0.0000E+00  0.0000E+00  0.0000E+00  0.0000E+00  0.0000E+00  0.0000E+00  0.0000E+00  0.0000E+00  0.0000E+00  0.0000E+00  0.0000E+00  0.0000E+00  0.0000E+00  0.0000E+00  0.0000E+00  0.0000E+00
    -27.185  0.0000E+00  0.0000E+00  0.0000E+00  0.0000E+00  0.0000E+00  0.0000E+00  0.0000E+00  0.0000E+00  0.0000E+00  0.0000E+00  0.0000E+00  0.0000E+00  0.0000E+00  0.0000E+00  0.0000E+00  0.0000E+00  0.0000E+00  0.0000E+00
    -26.996  0.0000E+00  0.0000E+00  0.0000E+00  0.0000E+00  0.0000E+00  0.0000E+00  0.0000E+00  0.0000E+00  0.0000E+00  0.0000E+00  0.0000E+00  0.0000E+00  0.0000E+00  0.0000E+00  0.0000E+00  0.0000E+00  0.0000E+00  0.0000E+00
    -26.806  0.0000E+00  0.0000E+00  0.0000E+00  0.0000E+00  0.0000E+00  0.0000E+00  0.0000E+00  0.0000E+00  0.0000E+00  0.0000E+00  0.0000E+00  0.0000E+00  0.0000E+00  0.0000E+00  0.0000E+00  0.0000E+00  0.0000E+00  0.0000E+00
    -26.617  0.0000E+00  0.0000E+00  0.0000E+00  0.0000E+00  0.0000E+00  0.0000E+00  0.0000E+00  0.0000E+00  0.0000E+00  0.0000E+00  0.0000E+00  0.0000E+00  0.0000E+00  0.0000E+00  0.0000E+00  0.0000E+00  0.0000E+00  0.0000E+00
    -26.427  0.0000E+00  0.0000E+00  0.0000E+00  0.0000E+00  0.0000E+00  0.0000E+00  0.0000E+00  0.0000E+00  0.0000E+00  0.0000E+00  0.0000E+00  0.0000E+00  0.0000E+00  0.0000E+00  0.0000E+00  0.0000E+00  0.0000E+00  0.0000E+00
    -26.238  0.0000E+00  0.0000E+00  0.0000E+00  0.0000E+00  0.0000E+00  0.0000E+00  0.0000E+00  0.0000E+00  0.0000E+00  0.0000E+00  0.0000E+00  0.0000E+00  0.0000E+00  0.0000E+00  0.0000E+00  0.0000E+00  0.0000E+00  0.0000E+00
    -26.048  0.0000E+00  0.0000E+00  0.0000E+00  0.0000E+00  0.0000E+00  0.0000E+00  0.0000E+00  0.0000E+00  0.0000E+00  0.0000E+00  0.0000E+00  0.0000E+00  0.0000E+00  0.0000E+00  0.0000E+00  0.0000E+00  0.0000E+00  0.0000E+00
    -25.859  0.0000E+00  0.0000E+00  0.0000E+00  0.0000E+00  0.0000E+00  0.0000E+00  0.0000E+00  0.0000E+00  0.0000E+00  0.0000E+00  0.0000E+00  0.0000E+00  0.0000E+00  0.0000E+00  0.0000E+00  0.0000E+00  0.0000E+00  0.0000E+00
    -25.669  0.0000E+00  0.0000E+00  0.0000E+00  0.0000E+00  0.0000E+00  0.0000E+00  0.0000E+00  0.0000E+00  0.0000E+00  0.0000E+00  0.0000E+00  0.0000E+00  0.0000E+00  0.0000E+00  0.0000E+00  0.0000E+00  0.0000E+00  0.0000E+00