unknown system                          
           1
     2.827886    0.237097    0.016559
    -0.097174    6.146641   -0.453537
    -0.245730   -2.302823    6.096591
   H 
  17
Direct configuration=     1
   0.57627001  0.65222819  0.47670982
   0.75342508  0.74476305  0.53668529
   0.59766553  0.21673486  0.15621353
   0.79394139  0.28561538  0.14764870
   0.11823084  0.54679789  0.14589631
   0.30945027  0.56479196  0.08218923
   0.08397705  0.25454641  0.47014230
   0.30284693  0.30761033  0.45816982
   0.80988819  0.92134308  0.23901900
   0.60872429  0.91179248  0.30272908
   0.04121082  0.85480321  0.89793190
   0.27544695  0.90783127  0.93922394
   0.58264254  0.54945976  0.76796925
   0.79947632  0.50993087  0.81496921
   0.45628996  0.13062903  0.74870378
   0.78879955  0.13198263  0.74475206
   0.12370029  0.12828160  0.74756277
unknown system                          
           1
     2.829755    0.237017    0.017666
    -0.097560    6.146529   -0.456791
    -0.243023   -2.306907    6.083625
   H 
  17
Direct configuration=     2
   0.57634854  0.65208993  0.47658939
   0.75343018  0.74451237  0.53666041
   0.59626545  0.21618194  0.15601856
   0.79526176  0.28567709  0.14724819
   0.11755012  0.54722289  0.14630799
   0.30951936  0.56489270  0.08218856
   0.08380544  0.25476800  0.47036210
   0.30357740  0.30792942  0.45837858
   0.80968544  0.92134865  0.23912555
   0.60896819  0.91202481  0.30280002
   0.04067006  0.85452788  0.89788955
   0.27620711  0.90790903  0.93948417
   0.58158236  0.54948736  0.76785798
   0.80038548  0.50962784  0.81528701
   0.45629646  0.13058134  0.74850266
   0.78879244  0.13169002  0.74458815
   0.12364022  0.12867074  0.74722714
unknown system                          
           1
     2.829538    0.237027    0.017538
    -0.097515    6.146542   -0.456413
    -0.243337   -2.306433    6.085130
   H 
  17
Direct configuration=     3
   0.57633942  0.65210600  0.47660341
   0.75342959  0.74454148  0.53666332
   0.59642785  0.21624616  0.15604124
   0.79510857  0.28567000  0.14729480
   0.11762911  0.54717347  0.14626005
   0.30951134  0.56488101  0.08218863
   0.08382536  0.25474224  0.47033652
   0.30349268  0.30789234  0.45835429
   0.80970897  0.92134799  0.23911315
   0.60893990  0.91199782  0.30279176
   0.04073279  0.85455985  0.89789448
   0.27611896  0.90789996  0.93945391
   0.58170532  0.54948417  0.76787090
   0.80028005  0.50966296  0.81525007
   0.45629569  0.13058691  0.74852606
   0.78879326  0.13172402  0.74460724
   0.12364715  0.12862562  0.74726616
unknown system                          
           1
     2.829924    0.236800    0.018014
    -0.098047    6.146047   -0.457868
    -0.241978   -2.308129    6.078600
   H 
  17
Direct configuration=     4
   0.57632701  0.65200763  0.47652360
   0.75348614  0.74444115  0.53666772
   0.59633458  0.21618641  0.15591806
   0.79515794  0.28548822  0.14712164
   0.11742212  0.54740033  0.14642439
   0.30941006  0.56491872  0.08223592
   0.08393991  0.25490335  0.47043267
   0.30365679  0.30800265  0.45846782
   0.80974804  0.92135795  0.23912356
   0.60892207  0.91210842  0.30287278
   0.04080706  0.85449871  0.89793249
   0.27615775  0.90786048  0.93952176
   0.58168926  0.54940578  0.76792918
   0.80022234  0.50960692  0.81529991
   0.45629722  0.13056207  0.74842310
   0.78879126  0.13157841  0.74452280
   0.12361645  0.12881478  0.74709859
unknown system                          
           1
     2.831081    0.236121    0.019444
    -0.099640    6.144560   -0.462231
    -0.237902   -2.313218    6.059008
   H 
  17
Direct configuration=     5
   0.57628980  0.65171231  0.47628382
   0.75365571  0.74414014  0.53668084
   0.59605491  0.21600687  0.15554807
   0.79530609  0.28494242  0.14660143
   0.11680123  0.54808136  0.14691818
   0.30910624  0.56503197  0.08237799
   0.08428354  0.25538699  0.47072157
   0.30414899  0.30833389  0.45880885
   0.80986526  0.92138787  0.23915484
   0.60886856  0.91244043  0.30311619
   0.04102975  0.85431535  0.89804660
   0.27627400  0.90774217  0.93972552
   0.58164099  0.54917071  0.76810417
   0.80004913  0.50943888  0.81544954
   0.45630189  0.13048732  0.74811386
   0.78878525  0.13114135  0.74426907
   0.12352466  0.12938197  0.74659548
unknown system                          
           1
     2.833395    0.234764    0.022304
    -0.102828    6.141586   -0.470958
    -0.229749   -2.323396    6.019824
   H 
  17
Direct configuration=     6
   0.57621555  0.65112034  0.47580219
   0.75399428  0.74353789  0.53670663
   0.59549638  0.21564599  0.15480543
   0.79560268  0.28384804  0.14555657
   0.11555980  0.54944619  0.14791043
   0.30849871  0.56525918  0.08266341
   0.08497048  0.25635601  0.47130189
   0.30513265  0.30899820  0.45949349
   0.81009955  0.92144788  0.23921759
   0.60876149  0.91310583  0.30360519
   0.04147447  0.85394896  0.89827520
   0.27650582  0.90750631  0.94013417
   0.58154380  0.54870107  0.76845500
   0.79970231  0.50910324  0.81574965
   0.45631181  0.13033641  0.74749317
   0.78877324  0.13026569  0.74375924
   0.12334298  0.13051476  0.74558673
unknown system                          
           1
     2.838022    0.232048    0.028023
    -0.109202    6.135638   -0.488411
    -0.213444   -2.343751    5.941458
   H 
  17
Direct configuration=     7
   0.57606774  0.64993101  0.47483061
   0.75466918  0.74233244  0.53675641
   0.59438255  0.21491698  0.15330938
   0.79619708  0.28164805  0.14344891
   0.11307825  0.55218702  0.14991386
   0.30728402  0.56571644  0.08323942
   0.08634319  0.25830115  0.47247281
   0.30709704  0.31033425  0.46087328
   0.81056763  0.92156861  0.23934392
   0.60854713  0.91444219  0.30459203
   0.04236121  0.85321748  0.89873402
   0.27696669  0.90703771  0.94095615
   0.58134687  0.54776387  0.76916014
   0.79900711  0.50843385  0.81635329
   0.45633392  0.13002891  0.74624280
   0.78874918  0.12850819  0.74272994
   0.12298721  0.13277386  0.74355903
unknown system                          
           1
     2.837241    0.231363    0.027977
    -0.110757    6.136977   -0.488320
    -0.212896   -2.344059    5.942101
   H 
  17
Direct configuration=     8
   0.57575472  0.64961918  0.47461965
   0.75517793  0.74231133  0.53687852
   0.59595605  0.21562566  0.15313235
   0.79445459  0.28091546  0.14336040
   0.11327694  0.55244113  0.15005702
   0.30679022  0.56561882  0.08354051
   0.08662823  0.25858499  0.47238876
   0.30694206  0.31037010  0.46087034
   0.81148003  0.92165497  0.23916254
   0.60756914  0.91459739  0.30503274
   0.04354510  0.85335733  0.89885341
   0.27606294  0.90672066  0.94073573
   0.58313090  0.54745858  0.76975024
   0.79717353  0.50879161  0.81614568
   0.45615181  0.12998688  0.74602854
   0.78902715  0.12848294  0.74251723
   0.12286464  0.13260495  0.74344233
unknown system                          
           1
     2.837731    0.231792    0.028006
    -0.109782    6.136137   -0.488377
    -0.213239   -2.343866    5.941698
   H 
  17
Direct configuration=     9
   0.57595116  0.64981471  0.47475193
   0.75485881  0.74232453  0.53680195
   0.59496873  0.21518124  0.15324336
   0.79554789  0.28137489  0.14341590
   0.11315223  0.55228180  0.14996725
   0.30710005  0.56568005  0.08335171
   0.08644932  0.25840701  0.47244147
   0.30703927  0.31034763  0.46087218
   0.81090763  0.92160076  0.23927627
   0.60818264  0.91450015  0.30475640
   0.04280241  0.85326957  0.89877854
   0.27662995  0.90691950  0.94087394
   0.58201195  0.54764986  0.76938018
   0.79832360  0.50856743  0.81627589
   0.45626604  0.13001325  0.74616290
   0.78885276  0.12849875  0.74265061
   0.12294157  0.13271086  0.74351551
