unknown system                          
           1
     5.786497   -0.451603   -0.537650
    -2.174385    5.117004   -0.391129
    -3.042904   -1.054338    5.774606
   Sr   Nb   H 
   2   1  12
Direct configuration=     1
   0.63838100  0.56811100  0.57111900
   0.64874600  0.08253700  0.02377800
   0.10263400  0.79542400  0.36072300
   0.18396300  0.19292200  0.98131700
   0.15212200  0.19407600  0.85389500
   0.15869400  0.11398000  0.25812300
   0.31168300  0.67756700  0.61928900
   0.13818500  0.93264500  0.63793900
   0.16349300  0.58574300  0.84516200
   0.16954600  0.62016000  0.96254100
   0.75265400  0.80193000  0.28461800
   0.76880200  0.61591900  0.00434000
   0.80269300  0.45349600  0.34207300
   0.16335800  0.54226100  0.23725900
   0.55327600  0.08155600  0.59161300
unknown system                          
           1
     5.848890   -0.461341   -0.543672
    -2.202161    5.168284   -0.392517
    -3.075369   -1.059640    5.828356
   Sr   Nb   H 
   2   1  12
Direct configuration=     2
   0.63800624  0.56827343  0.57095973
   0.64920602  0.08264413  0.02443589
   0.10121057  0.79434345  0.36157531
   0.18351385  0.19237960  0.98114319
   0.15215089  0.19376302  0.85407347
   0.15857360  0.11406584  0.25825138
   0.31184847  0.67789351  0.61910568
   0.13901242  0.93352365  0.63810383
   0.16328849  0.58578123  0.84499252
   0.16922149  0.61970993  0.96217586
   0.75327419  0.80228520  0.28429774
   0.76895315  0.61598863  0.00418095
   0.80276466  0.45314780  0.34180659
   0.16353327  0.54272070  0.23730855
   0.55367267  0.08180689  0.59137831
unknown system                          
           1
     6.036068   -0.490554   -0.561739
    -2.285489    5.322125   -0.396679
    -3.172765   -1.075544    5.989606
   Sr   Nb   H 
   2   1  12
Direct configuration=     3
   0.63689366  0.56875514  0.57048599
   0.65057300  0.08296207  0.02639140
   0.09698216  0.79112756  0.36410910
   0.18217862  0.19076761  0.98062696
   0.15223611  0.19283302  0.85460428
   0.15821645  0.11432010  0.25863282
   0.31234043  0.67886430  0.61856052
   0.14147172  0.93613553  0.63859318
   0.16268114  0.58589458  0.84448863
   0.16825638  0.61837306  0.96109090
   0.75511627  0.80334290  0.28334576
   0.76940196  0.61619629  0.00370820
   0.80297629  0.45211444  0.34101516
   0.16405491  0.54408653  0.23745543
   0.55485089  0.08255386  0.59068067
unknown system                          
           1
     5.931190   -0.474185   -0.551616
    -2.238800    5.235926   -0.394347
    -3.118193   -1.066633    5.899256
   Sr   Nb   H 
   2   1  12
Direct configuration=     4
   0.63749817  0.56849417  0.57074480
   0.64982826  0.08278950  0.02532513
   0.09928368  0.79288747  0.36272688
   0.18290695  0.19164616  0.98090782
   0.15219068  0.19333962  0.85431435
   0.15841006  0.11418282  0.25842509
   0.31207202  0.67833457  0.61885816
   0.14013099  0.93471110  0.63832728
   0.16301148  0.58583320  0.84476355
   0.16878347  0.61910057  0.96168189
   0.75411399  0.80276320  0.28386494
   0.76915797  0.61608196  0.00396595
   0.80286306  0.45267533  0.34144601
   0.16376944  0.54334272  0.23737600
   0.55420978  0.08214462  0.59106116
unknown system                          
           1
     5.924097   -0.472792   -0.553902
    -2.235967    5.216737   -0.391038
    -3.119826   -1.063858    5.866355
   Sr   Nb   H 
   2   1  12
Direct configuration=     5
   0.63582705  0.56789822  0.56917816
   0.65113714  0.08329653  0.02581605
   0.10057373  0.79392241  0.36242127
   0.18137073  0.19110301  0.97660915
   0.15329940  0.19285612  0.85871659
   0.15745851  0.11099547  0.25970529
   0.31150126  0.67946283  0.61778306
   0.14096207  0.93468640  0.63799362
   0.16298290  0.58727606  0.84834068
   0.16816043  0.61750359  0.95750651
   0.75613664  0.80292656  0.28405133
   0.77195478  0.61740019  0.00657710
   0.80324458  0.45302972  0.34132995
   0.16364476  0.54631973  0.23894024
   0.54997600  0.07965018  0.58882000
unknown system                          
           1
     5.928444   -0.473646   -0.552501
    -2.237703    5.228495   -0.393065
    -3.118826   -1.065558    5.886516
   Sr   Nb   H 
   2   1  12
Direct configuration=     6
   0.63685652  0.56826572  0.57014437
   0.65033254  0.08298440  0.02551307
   0.09978231  0.79328612  0.36260941
   0.18232385  0.19143980  0.97925950
   0.15260887  0.19315067  0.85600238
   0.15804095  0.11295492  0.25891594
   0.31185350  0.67876961  0.61844616
   0.14045288  0.93470182  0.63819903
   0.16299129  0.58638637  0.84613576
   0.16855339  0.61848844  0.96008041
   0.75489492  0.80282600  0.28393580
   0.77023171  0.61658782  0.00496674
   0.80301056  0.45281184  0.34140143
   0.16371613  0.54448780  0.23797644
   0.55258056  0.08118568  0.59020257
unknown system                          
           1
     5.938895   -0.474160   -0.563262
    -2.241648    5.222566   -0.390776
    -3.134958   -1.066309    5.886712
   Sr   Nb   H 
   2   1  12
Direct configuration=     7
   0.63507213  0.56764419  0.56845286
   0.65178310  0.08351510  0.02610919
   0.10080087  0.79422266  0.36244753
   0.18194774  0.19077636  0.97999401
   0.15245459  0.19274455  0.85533456
   0.15712077  0.11010934  0.26014798
   0.31155818  0.67987260  0.61759229
   0.14137954  0.93473925  0.63807193
   0.16267180  0.58657329  0.84553774
   0.16808997  0.61797724  0.95993547
   0.75682562  0.80298581  0.28403516
   0.77283356  0.61777956  0.00725575
   0.80337177  0.45313537  0.34130534
   0.16363494  0.54730652  0.23948124
   0.54868542  0.07894516  0.58808797
unknown system                          
           1
     5.944307   -0.474427   -0.568834
    -2.243691    5.219497   -0.389591
    -3.143311   -1.066698    5.886814
   Sr   Nb   H 
   2   1  12
Direct configuration=     8
   0.63414586  0.56732122  0.56757523
   0.65253486  0.08379065  0.02641920
   0.10132811  0.79470831  0.36236454
   0.18175395  0.19043256  0.98037414
   0.15237349  0.19253383  0.85498859
   0.15664513  0.10863440  0.26078552
   0.31140459  0.68044408  0.61714966
   0.14185883  0.93475881  0.63800695
   0.16250565  0.58666997  0.84522770
   0.16784970  0.61771211  0.95986003
   0.75782482  0.80306908  0.28408839
   0.77418403  0.61839844  0.00844353
   0.80355868  0.45330312  0.34125587
   0.16359677  0.54876801  0.24026019
   0.54666553  0.07778240  0.58698944
unknown system                          
           1
     5.967327   -0.477863   -0.577852
    -2.254472    5.222013   -0.388199
    -3.163762   -1.067842    5.888133
   Sr   Nb   H 
   2   1  12
Direct configuration=     9
   0.63256046  0.56686022  0.56579019
   0.65402824  0.08431915  0.02696253
   0.10008693  0.79368769  0.36316838
   0.18067490  0.18943617  0.97898425
   0.15269674  0.19193212  0.85641065
   0.15597591  0.10708624  0.26187485
   0.31191868  0.68177960  0.61672318
   0.14326328  0.93501790  0.63803170
   0.16198398  0.58687291  0.84459492
   0.16730772  0.61714152  0.95942217
   0.75968619  0.80333854  0.28384663
   0.77652546  0.61943694  0.01006732
   0.80414446  0.45379430  0.34114068
   0.16366172  0.55122532  0.24153768
   0.54371534  0.07639838  0.58523387
unknown system                          
           1
     5.969674   -0.478213   -0.578771
    -2.255571    5.222270   -0.388057
    -3.165848   -1.067959    5.888268
   Sr   Nb   H 
   2   1  12
Direct configuration=    10
   0.63239853  0.56681302  0.56560796
   0.65418035  0.08437315  0.02701812
   0.09996089  0.79358363  0.36325020
   0.18056451  0.18933446  0.97884239
   0.15273004  0.19187090  0.85655571
   0.15590803  0.10692847  0.26198587
   0.31197099  0.68191572  0.61667974
   0.14340611  0.93504440  0.63803440
   0.16193074  0.58689352  0.84453032
   0.16725236  0.61708331  0.95937746
   0.75987537  0.80336611  0.28382222
   0.77676428  0.61954304  0.01023320
   0.80420404  0.45384440  0.34112900
   0.16366922  0.55147585  0.24166793
   0.54341453  0.07625701  0.58505447
