       N       E                     dE             d eps       ncg     rms          rms(c)
DAV:   1     0.115840033046E+03    0.11584E+03   -0.10862E+04 18616   0.642E+02
DAV:   2    -0.484331293833E+02   -0.16427E+03   -0.15850E+03 22572   0.250E+02
DAV:   3    -0.582219361751E+02   -0.97888E+01   -0.97202E+01 29776   0.493E+01
DAV:   4    -0.586172362141E+02   -0.39530E+00   -0.39410E+00 28904   0.824E+00
DAV:   5    -0.586231014144E+02   -0.58652E-02   -0.58646E-02 26936   0.832E-01    0.379E+01
DAV:   6    -0.565428496641E+02    0.20803E+01   -0.32344E+00 26824   0.127E+01    0.167E+01
DAV:   7    -0.558981231205E+02    0.64473E+00   -0.10557E+00 25944   0.487E+00    0.679E+00
DAV:   8    -0.558723805475E+02    0.25743E-01   -0.30625E-01 26812   0.303E+00    0.210E+00
DAV:   9    -0.558745645159E+02   -0.21840E-02   -0.13304E-02 22264   0.624E-01    0.156E+00
DAV:  10    -0.558777468863E+02   -0.31824E-02   -0.74220E-03 25564   0.523E-01    0.169E-01
DAV:  11    -0.558780993878E+02   -0.35250E-03   -0.76856E-04 25944   0.154E-01    0.107E-01
DAV:  12    -0.558781762095E+02   -0.76822E-04   -0.78052E-05 15732   0.491E-02
   1 F= -.55878176E+02 E0= -.55878418E+02  d E =-.558782E+02
       N       E                     dE             d eps       ncg     rms          rms(c)
DAV:   1    -0.558790345433E+02   -0.93516E-03   -0.28593E-02 22180   0.113E+00    0.106E-01
DAV:   2    -0.558790740960E+02   -0.39553E-04   -0.17198E-03 23016   0.247E-01    0.567E-02
DAV:   3    -0.558790377342E+02    0.36362E-04   -0.63587E-05 14292   0.533E-02
   2 F= -.55879038E+02 E0= -.55879281E+02  d E =-.861525E-03
       N       E                     dE             d eps       ncg     rms          rms(c)
DAV:   1    -0.558791121194E+02   -0.38023E-04   -0.94197E-03 21500   0.650E-01    0.586E-02
DAV:   2    -0.558791221919E+02   -0.10072E-04   -0.55658E-04 24456   0.140E-01
   3 F= -.55879122E+02 E0= -.55879367E+02  d E =-.945982E-03
