       N       E                     dE             d eps       ncg     rms          rms(c)
DAV:   1     0.171607336489E+03    0.17161E+03   -0.12712E+04 21912   0.757E+02
DAV:   2    -0.288214247503E+02   -0.20043E+03   -0.19587E+03 26960   0.293E+02
DAV:   3    -0.423342422106E+02   -0.13513E+02   -0.13408E+02 37948   0.576E+01
DAV:   4    -0.429533619767E+02   -0.61912E+00   -0.61726E+00 33456   0.101E+01
DAV:   5    -0.429659321070E+02   -0.12570E-01   -0.12565E-01 35828   0.151E+00    0.374E+01
DAV:   6    -0.403631779130E+02    0.26028E+01   -0.10403E+01 32448   0.165E+01    0.154E+01
DAV:   7    -0.398953991818E+02    0.46778E+00   -0.33186E+00 34000   0.724E+00    0.119E+01
DAV:   8    -0.397779171825E+02    0.11748E+00   -0.10956E+00 33204   0.531E+00    0.348E+00
DAV:   9    -0.397723330515E+02    0.55841E-02   -0.10142E-01 32364   0.185E+00    0.457E-01
DAV:  10    -0.397689884647E+02    0.33446E-02   -0.20387E-02 32996   0.594E-01    0.192E-01
DAV:  11    -0.397690762540E+02   -0.87789E-04   -0.13289E-03 28896   0.179E-01    0.752E-02
DAV:  12    -0.397690472435E+02    0.29010E-04   -0.25177E-04 21156   0.759E-02
   1 F= -.39769047E+02 E0= -.39768964E+02  d E =-.397690E+02
       N       E                     dE             d eps       ncg     rms          rms(c)
DAV:   1    -0.397701056522E+02   -0.10294E-02   -0.29216E-02 23776   0.118E+00    0.211E-01
DAV:   2    -0.397699353034E+02    0.17035E-03   -0.27524E-03 29048   0.350E-01    0.935E-02
DAV:   3    -0.397698399372E+02    0.95366E-04   -0.34361E-04 23220   0.973E-02
   2 F= -.39769840E+02 E0= -.39769748E+02  d E =-.792694E-03
       N       E                     dE             d eps       ncg     rms          rms(c)
DAV:   1    -0.397733803129E+02   -0.34450E-02   -0.25525E-01 22080   0.351E+00    0.581E-01
DAV:   2    -0.397718198869E+02    0.15604E-02   -0.23959E-02 28300   0.103E+00    0.222E-01
DAV:   3    -0.397710426478E+02    0.77724E-03   -0.30194E-03 31064   0.281E-01    0.147E-01
DAV:   4    -0.397708216876E+02    0.22096E-03   -0.11801E-03 39640   0.195E-01    0.144E-01
DAV:   5    -0.397708466801E+02   -0.24992E-04   -0.45279E-05 16352   0.399E-02
   3 F= -.39770847E+02 E0= -.39770751E+02  d E =-.179944E-02
       N       E                     dE             d eps       ncg     rms          rms(c)
DAV:   1    -0.397713642537E+02   -0.54257E-03   -0.23193E-02 25408   0.114E+00    0.968E-02
DAV:   2    -0.397714821976E+02   -0.11794E-03   -0.21368E-03 25656   0.258E-01    0.517E-02
DAV:   3    -0.397714592531E+02    0.22945E-04   -0.54711E-05 19760   0.482E-02
   4 F= -.39771459E+02 E0= -.39771357E+02  d E =-.612573E-03
       N       E                     dE             d eps       ncg     rms          rms(c)
DAV:   1    -0.397716293102E+02   -0.14711E-03   -0.20938E-01 24944   0.340E+00    0.266E-01
DAV:   2    -0.397726543228E+02   -0.10250E-02   -0.18833E-02 24784   0.765E-01    0.136E-01
DAV:   3    -0.397724604288E+02    0.19389E-03   -0.53258E-04 30604   0.138E-01    0.666E-02
DAV:   4    -0.397724183605E+02    0.42068E-04   -0.11300E-04 15820   0.761E-02
   5 F= -.39772418E+02 E0= -.39772288E+02  d E =-.157168E-02
       N       E                     dE             d eps       ncg     rms          rms(c)
DAV:   1    -0.397729991923E+02   -0.53876E-03   -0.27853E-02 23848   0.126E+00    0.195E-01
DAV:   2    -0.397729411295E+02    0.58063E-04   -0.39872E-03 28740   0.376E-01    0.686E-02
DAV:   3    -0.397728560129E+02    0.85117E-04   -0.36185E-04 22900   0.102E-01
   6 F= -.39772856E+02 E0= -.39772741E+02  d E =-.437652E-03
       N       E                     dE             d eps       ncg     rms          rms(c)
DAV:   1    -0.397742550488E+02   -0.13139E-02   -0.24478E-01 22496   0.373E+00    0.551E-01
DAV:   2    -0.397737694456E+02    0.48560E-03   -0.36661E-02 28708   0.115E+00    0.198E-01
DAV:   3    -0.397730232231E+02    0.74622E-03   -0.35504E-03 33440   0.307E-01    0.151E-01
DAV:   4    -0.397727983903E+02    0.22483E-03   -0.10987E-03 37276   0.189E-01    0.150E-01
DAV:   5    -0.397728180269E+02   -0.19637E-04   -0.60741E-05 16848   0.414E-02
   7 F= -.39772818E+02 E0= -.39772728E+02  d E =-.399666E-03
