unknown system                          
           1
     5.055629    0.674132    0.302265
    -0.684267    4.817501    0.165062
     0.835594    1.403595    6.329222
   H    Nb   H    Nb   H    Sr
  10   1   1   1   6   1
Direct configuration=     1
   0.13616167  0.05729530  0.47290088
   0.82350302  0.12546383  0.85813363
   0.41931311  0.16132661  0.62342530
   0.71760744  0.41659405  0.01683414
   0.06157492  0.80083509  0.05041299
   0.97995924  0.85343301  0.96090573
   0.38700316  0.12770219  0.03827499
   0.20458175  0.35575043  0.83700635
   0.99944283  0.44298353  0.28057250
   0.81094204  0.19318521  0.57650124
   0.57699585  0.38796561  0.79275253
   0.43649950  0.61168300  0.01004649
   0.15036850  0.39216003  0.54004579
   0.41327390  0.72585200  0.89609931
   0.45492425  0.46141693  0.32121040
   0.87759694  0.65399069  0.62426785
   0.12928136  0.34022305  0.25423033
   0.42331724  0.65421009  0.59996440
   0.19034506  0.73381005  0.35015962
   0.68452524  0.00107529  0.29226555
unknown system                          
           1
     5.015789    0.665124    0.307331
    -0.685628    4.801987    0.171832
     0.834048    1.408581    6.298080
   H    Nb   H    Nb   H    Sr
  10   1   1   1   6   1
Direct configuration=     2
   0.13931444  0.05716061  0.47203377
   0.82304014  0.12764489  0.85806201
   0.41869627  0.15977680  0.62391136
   0.71944207  0.41854872  0.01822889
   0.05829092  0.80288110  0.04661978
   0.98261551  0.85079947  0.96551384
   0.39036861  0.12993742  0.03650163
   0.20368310  0.35591005  0.83690871
   0.00033948  0.44450717  0.27932899
   0.81234627  0.19767241  0.57626605
   0.57297614  0.38464730  0.79391978
   0.43628780  0.61393760  0.00429021
   0.14906782  0.39744471  0.53942593
   0.41624360  0.72046293  0.89912885
   0.45220432  0.45998627  0.32219191
   0.87749944  0.65168609  0.62603763
   0.12896510  0.33970012  0.25437544
   0.42258149  0.65369584  0.59865164
   0.19121497  0.73261827  0.35094073
   0.68203951 -0.00206178  0.29367287
unknown system                          
           1
     5.028522    0.668003    0.305712
    -0.685193    4.806945    0.169668
     0.834542    1.406987    6.308033
   H    Nb   H    Nb   H    Sr
  10   1   1   1   6   1
Direct configuration=     3
   0.13829822  0.05720205  0.47231350
   0.82318863  0.12694550  0.85808568
   0.41889566  0.16027443  0.62375438
   0.71885063  0.41792226  0.01778234
   0.05934757  0.80222315  0.04783775
   0.98176155  0.85164670  0.96403363
   0.38928288  0.12921801  0.03707348
   0.20397263  0.35585910  0.83693978
   0.00004972  0.44401725  0.27972938
   0.81189232  0.19623263  0.57634390
   0.57427287  0.38571383  0.79354195
   0.43635376  0.61321017  0.00614006
   0.14948521  0.39574981  0.53962658
   0.41528904  0.72219258  0.89815476
   0.45308155  0.46044681  0.32187499
   0.87753204  0.65242660  0.62546819
   0.12906722  0.33986805  0.25432850
   0.42281839  0.65386002  0.59907284
   0.19093520  0.73300079  0.35068970
   0.68284190 -0.00105373  0.29321860
unknown system                          
           1
     4.999485    0.656507    0.318031
    -0.690526    4.797316    0.169581
     0.842977    1.404748    6.296213
   H    Nb   H    Nb   H    Sr
  10   1   1   1   6   1
Direct configuration=     4
   0.14232483  0.05822213  0.47137679
   0.82246250  0.12926614  0.85824279
   0.41755913  0.15824201  0.62441953
   0.72100412  0.42020535  0.01922307
   0.06165964  0.80066581  0.04997146
   0.97887803  0.85215837  0.96290306
   0.39247487  0.13054024  0.03615902
   0.20137280  0.35587128  0.83736180
   0.00061216  0.44649071  0.27794824
   0.81274668  0.20161562  0.57606769
   0.57333598  0.38374178  0.79344486
   0.43651431  0.61198271  0.00379852
   0.14833195  0.39729623  0.53960785
   0.41775527  0.72023177  0.89752772
   0.45040409  0.45901327  0.32245573
   0.87678423  0.65024629  0.62792799
   0.12908451  0.33907269  0.25449584
   0.42169953  0.65339447  0.59750115
   0.19234987  0.73355098  0.35060949
   0.67986252 -0.00485185  0.29496739
unknown system                          
           1
     4.996769    0.655431    0.319184
    -0.691025    4.796416    0.169573
     0.843766    1.404538    6.295107
   H    Nb   H    Nb   H    Sr
  10   1   1   1   6   1
Direct configuration=     5
   0.14270424  0.05831854  0.47128811
   0.82239440  0.12948347  0.85825765
   0.41743291  0.15805128  0.62448219
   0.72120689  0.42041977  0.01935761
   0.06187672  0.80052037  0.05017095
   0.97860682  0.85220571  0.96279773
   0.39277573  0.13066479  0.03607260
   0.20112795  0.35587189  0.83740193
   0.00066575  0.44672259  0.27778115
   0.81282784  0.20212025  0.57604156
   0.57324755  0.38355678  0.79343598
   0.43652970  0.61186768  0.00357904
   0.14822357  0.39744092  0.53960633
   0.41798733  0.72004851  0.89746843
   0.45015172  0.45887838  0.32251076
   0.87671309  0.65004185  0.62815872
   0.12908601  0.33899816  0.25451153
   0.42159442  0.65335059  0.59735409
   0.19248314  0.73360283  0.35060166
   0.67958121 -0.00520837  0.29513198
unknown system                          
           1
     4.977144    0.646143    0.325048
    -0.696764    4.796571    0.165119
     0.846421    1.398320    6.289207
   H    Nb   H    Nb   H    Sr
  10   1   1   1   6   1
Direct configuration=     6
   0.14722498  0.05994658  0.47019855
   0.82214133  0.13088011  0.85885476
   0.41539526  0.15572319  0.62533553
   0.72311699  0.42268981  0.02018349
   0.06168713  0.80067977  0.04960163
   0.97800873  0.85105601  0.96446953
   0.39522482  0.13047939  0.03646559
   0.19737476  0.35572830  0.83827775
   0.00138679  0.44944409  0.27568981
   0.81209454  0.20719666  0.57566472
   0.57423809  0.38415049  0.79243913
   0.43695007  0.60786090  0.00423300
   0.14816055  0.39647647  0.54011177
   0.41999808  0.72108373  0.89380330
   0.44827826  0.45758385  0.32224396
   0.87561966  0.64873513  0.63099943
   0.12894678  0.33829683  0.25479711
   0.42032582  0.65249893  0.59604623
   0.19432258  0.73547082  0.34987153
   0.67672181 -0.00902506  0.29672318
unknown system                          
           1
     4.969735    0.642636    0.327262
    -0.698930    4.796630    0.163438
     0.847424    1.395973    6.286980
   H    Nb   H    Nb   H    Sr
  10   1   1   1   6   1
Direct configuration=     7
   0.14893983  0.06056337  0.46978522
   0.82204578  0.13140723  0.85908084
   0.41462164  0.15484371  0.62565831
   0.72384189  0.42354798  0.02049525
   0.06161542  0.80073956  0.04938664
   0.97778119  0.85062248  0.96510120
   0.39615323  0.13041115  0.03661292
   0.19595151  0.35567208  0.83861034
   0.00166161  0.45047066  0.27489996
   0.81181848  0.20911166  0.57552394
   0.57461407  0.38437475  0.79206217
   0.43710782  0.60634946  0.00447889
   0.14813619  0.39611270  0.54030254
   0.42076158  0.72147415  0.89241779
   0.44756751  0.45709404  0.32214367
   0.87520402  0.64824250  0.63207296
   0.12889367  0.33803221  0.25490491
   0.41984479  0.65217619  0.59555242
   0.19502085  0.73617659  0.34959528
   0.67563593 -0.01046648  0.29732475
unknown system                          
           1
     4.972870    0.643200    0.322013
    -0.700207    4.806843    0.161711
     0.841622    1.395665    6.285384
   H    Nb   H    Nb   H    Sr
  10   1   1   1   6   1
Direct configuration=     8
   0.15251352  0.06139484  0.46861902
   0.82264779  0.13164076  0.85981525
   0.41289677  0.15300506  0.62664465
   0.72456797  0.42508425  0.02011359
   0.06146791  0.80111817  0.04879903
   0.97727096  0.84956061  0.96652141
   0.39742377  0.12937743  0.03757913
   0.19352054  0.35561239  0.83945683
   0.00308323  0.45176853  0.27333184
   0.80899725  0.21156551  0.57481116
   0.57348535  0.38517864  0.79307971
   0.43703075  0.60554804  0.00313763
   0.14885835  0.39690772  0.54017533
   0.42290001  0.72033596  0.89140361
   0.44766916  0.45618097  0.32082941
   0.87518204  0.64893313  0.63405582
   0.12789714  0.33815689  0.25515230
   0.41906663  0.65093314  0.59521018
   0.19649776  0.73712042  0.34935235
   0.67424009 -0.01246646  0.29792173
unknown system                          
           1
     4.976009    0.643764    0.316757
    -0.701485    4.817070    0.159982
     0.835812    1.395357    6.283785
   H    Nb   H    Nb   H    Sr
  10   1   1   1   6   1
Direct configuration=     9
   0.15608759  0.06222478  0.46745450
   0.82325089  0.13187381  0.86055139
   0.41117235  0.15116838  0.62763035
   0.72529382  0.42661900  0.01973251
   0.06131964  0.80149656  0.04821053
   0.97676217  0.84849962  0.96794297
   0.39869612  0.12834416  0.03854758
   0.19108931  0.35555328  0.84030242
   0.00450366  0.45306508  0.27176305
   0.80617356  0.21401802  0.57409564
   0.57235710  0.38598196  0.79409806
   0.43695224  0.60474755  0.00179400
   0.14958065  0.39770185  0.54004884
   0.42503849  0.71919837  0.89038940
   0.44776951  0.45526888  0.31951294
   0.87516219  0.64962287  0.63604190
   0.12690038  0.33828168  0.25539922
   0.41828784  0.64969146  0.59486632
   0.19797504  0.73806304  0.34911068
   0.67284445 -0.01446437  0.29851771
unknown system                          
           1
     4.981275    0.645470    0.312616
    -0.701760    4.825197    0.159978
     0.831652    1.397012    6.285029
   H    Nb   H    Nb   H    Sr
  10   1   1   1   6   1
Direct configuration=    10
   0.15872365  0.06317784  0.46653880
   0.82342341  0.13242588  0.86105706
   0.40987007  0.15014434  0.62857640
   0.72558390  0.42762024  0.01934576
   0.06261798  0.80110358  0.04906267
   0.97503175  0.84836677  0.96771851
   0.39950770  0.12758399  0.03927008
   0.18979008  0.35564728  0.84089608
   0.00556965  0.45398444  0.27068308
   0.80398699  0.21597706  0.57339999
   0.57213109  0.38482904  0.79465047
   0.43659705  0.60453315  0.00115977
   0.14913026  0.39797581  0.53963923
   0.42662426  0.71871367  0.88960760
   0.44803892  0.45452392  0.31855030
   0.87534406  0.65034032  0.63754704
   0.12611769  0.33836623  0.25546186
   0.41785581  0.64864860  0.59489192
   0.19908020  0.73842678  0.34916577
   0.67219246 -0.01543293  0.29878761
unknown system                          
           1
     4.985028    0.646686    0.309665
    -0.701956    4.830989    0.159976
     0.828687    1.398191    6.285915
   H    Nb   H    Nb   H    Sr
  10   1   1   1   6   1
Direct configuration=    11
   0.16059947  0.06385548  0.46588771
   0.82354644  0.13281852  0.86141750
   0.40894372  0.14941581  0.62924981
   0.72579004  0.42833268  0.01907037
   0.06354277  0.80082335  0.04967054
   0.97379983  0.84827280  0.96755766
   0.40008595  0.12704266  0.03978531
   0.18886555  0.35571437  0.84131843
   0.00632772  0.45463860  0.26991412
   0.80242980  0.21737181  0.57290322
   0.57197068  0.38400860  0.79504394
   0.43634386  0.60438087  0.00070765
   0.14880937  0.39817098  0.53934714
   0.42775271  0.71836854  0.88905132
   0.44823024  0.45399403  0.31786446
   0.87547430  0.65085035  0.63861968
   0.12556056  0.33842659  0.25550608
   0.41754843  0.64790668  0.59490990
   0.19986690  0.73868527  0.34920561
   0.67172864 -0.01612200  0.29897956
unknown system                          
           1
     4.986255    0.647947    0.306187
    -0.701608    4.834745    0.161615
     0.824600    1.400929    6.284362
   H    Nb   H    Nb   H    Sr
  10   1   1   1   6   1
Direct configuration=    12
   0.16205154  0.06483559  0.46527087
   0.82349647  0.13332226  0.86171863
   0.40800222  0.14926166  0.63001035
   0.72572357  0.42859734  0.01884251
   0.06354445  0.80116418  0.04945214
   0.97354981  0.84768872  0.96816768
   0.40045960  0.12661478  0.04014761
   0.18891336  0.35593534  0.84147524
   0.00668284  0.45538296  0.26934858
   0.80126132  0.21882070  0.57231436
   0.57232465  0.38224767  0.79468481
   0.43583650  0.60447493  0.00087988
   0.14813399  0.39796477  0.53893499
   0.42864470  0.71863140  0.88835052
   0.44816646  0.45338679  0.31766878
   0.87553169  0.65107781  0.63963956
   0.12527106  0.33823509  0.25536476
   0.41738613  0.64699053  0.59522321
   0.20044892  0.73848652  0.34950257
   0.67178771 -0.01616303  0.29901295
unknown system                          
           1
     4.988000    0.649740    0.301239
    -0.701113    4.840088    0.163947
     0.818787    1.404823    6.282153
   H    Nb   H    Nb   H    Sr
  10   1   1   1   6   1
Direct configuration=    13
   0.16411552  0.06622869  0.46439409
   0.82342561  0.13403807  0.86214688
   0.40666422  0.14904226  0.63109174
   0.72562878  0.42897382  0.01851816
   0.06354656  0.80164889  0.04914129
   0.97319499  0.84685793  0.96903563
   0.40099133  0.12600597  0.04066356
   0.18898147  0.35624926  0.84169831
   0.00718713  0.45644147  0.26854394
   0.79959896  0.22088155  0.57147506
   0.57282795  0.37974465  0.79417471
   0.43511521  0.60460873  0.00112448
   0.14717328  0.39767242  0.53834809
   0.42991234  0.71900531  0.88735403
   0.44807569  0.45252383  0.31739052
   0.87561423  0.65140007  0.64109065
   0.12485932  0.33796317  0.25516351
   0.41715583  0.64568795  0.59566918
   0.20127684  0.73820338  0.34992564
   0.67187174 -0.01622142  0.29906053
unknown system                          
           1
     4.988095    0.649568    0.299571
    -0.701751    4.842306    0.165828
     0.816617    1.407674    6.276600
   H    Nb   H    Nb   H    Sr
  10   1   1   1   6   1
Direct configuration=    14
   0.16542167  0.06721918  0.46352798
   0.82384646  0.13399747  0.86254247
   0.40539920  0.14895272  0.63199464
   0.72535188  0.42858315  0.01823150
   0.06374394  0.80207304  0.04905986
   0.97277373  0.84618537  0.96954460
   0.40132272  0.12546519  0.04085043
   0.19000225  0.35653513  0.84150879
   0.00727257  0.45738042  0.26790084
   0.79847123  0.22243701  0.57057139
   0.57251756  0.37977693  0.79390453
   0.43453966  0.60513389  0.00083017
   0.14729638  0.39785694  0.53830362
   0.43090163  0.71890896  0.88681011
   0.44749605  0.45165920  0.31773191
   0.87529573  0.65098852  0.64234637
   0.12463984  0.33764375  0.25484490
   0.41686343  0.64433078  0.59602838
   0.20170748  0.73770419  0.35036283
   0.67235360 -0.01587585  0.29911467
unknown system                          
           1
     4.988311    0.649175    0.295773
    -0.703203    4.847357    0.170111
     0.811677    1.414166    6.263955
   H    Nb   H    Nb   H    Sr
  10   1   1   1   6   1
Direct configuration=    15
   0.16839575  0.06947546  0.46155405
   0.82480488  0.13390423  0.86344439
   0.40251902  0.14874722  0.63405184
   0.72472115  0.42769446  0.01757822
   0.06419347  0.80303867  0.04887408
   0.97181450  0.84465345  0.97070487
   0.40207722  0.12423384  0.04127691
   0.19232661  0.35718615  0.84107727
   0.00746713  0.45951904  0.26643448
   0.79590345  0.22597958  0.56850997
   0.57181071  0.37985097  0.79328852
   0.43322915  0.60632995  0.00015868
   0.14757669  0.39827704  0.53820224
   0.43315405  0.71869063  0.88557104
   0.44617608  0.44969040  0.31851026
   0.87457083  0.65004925  0.64520854
   0.12413987  0.33691731  0.25411878
   0.41619741  0.64124075  0.59684781
   0.20268809  0.73656699  0.35135990
   0.67345092 -0.01508938  0.29923813
unknown system                          
           1
     4.989726    0.648719    0.296219
    -0.704168    4.849776    0.170480
     0.812434    1.415453    6.259504
   H    Nb   H    Nb   H    Sr
  10   1   1   1   6   1
Direct configuration=    16
   0.16940114  0.07026802  0.46072708
   0.82519542  0.13387586  0.86366596
   0.40148638  0.14850307  0.63489781
   0.72444559  0.42711898  0.01738144
   0.06479130  0.80328386  0.04914850
   0.97106356  0.84415990  0.97080830
   0.40231595  0.12379167  0.04125631
   0.19316741  0.35741779  0.84092259
   0.00780552  0.46002912  0.26584293
   0.79512012  0.22741821  0.56762069
   0.57214192  0.37986446  0.79361647
   0.43275050  0.60659669 -0.00004892
   0.14690705  0.39800292  0.53847197
   0.43398713  0.71892900  0.88484144
   0.44570744  0.44896789  0.31885317
   0.87424136  0.64956085  0.64629352
   0.12366632  0.33703083  0.25390485
   0.41591073  0.64042464  0.59685343
   0.20311495  0.73641982  0.35157830
   0.67399720 -0.01470759  0.29937414
unknown system                          
           1
     4.992620    0.647785    0.297131
    -0.706141    4.854728    0.171236
     0.813982    1.418088    6.250396
   H    Nb   H    Nb   H    Sr
  10   1   1   1   6   1
Direct configuration=    17
   0.17145895  0.07189025  0.45903321
   0.82599430  0.13381775  0.86411971
   0.39937292  0.14800260  0.63663054
   0.72388177  0.42594195  0.01697852
   0.06601434  0.80378533  0.04971042
   0.96952694  0.84315004  0.97102028
   0.40280431  0.12288732  0.04121413
   0.19488786  0.35789202  0.84060568
   0.00849839  0.46107313  0.26463132
   0.79351842  0.23036148  0.56579936
   0.57281937  0.37989188  0.79428807
   0.43177137  0.60714235 -0.00047405
   0.14553670  0.39744176  0.53902449
   0.43569218  0.71941748  0.88334706
   0.44474817  0.44748954  0.31955560
   0.87356638  0.64856075  0.64851571
   0.12269761  0.33726308  0.25346676
   0.41532397  0.63875519  0.59686506
   0.20398813  0.73611870  0.35202555
   0.67511491 -0.01392659  0.29965259
unknown system                          
           1
     4.994950    0.647680    0.298432
    -0.706957    4.858432    0.170358
     0.816151    1.418352    6.246617
   H    Nb   H    Nb   H    Sr
  10   1   1   1   6   1
Direct configuration=    18
   0.17206371  0.07236654  0.45825383
   0.82647978  0.13390412  0.86403300
   0.39859469  0.14762244  0.63745968
   0.72379033  0.42525348  0.01722297
   0.06583416  0.80440425  0.04936701
   0.96962416  0.84226978  0.97170153
   0.40292757  0.12239605  0.04110846
   0.19533051  0.35805730  0.84069306
   0.00903478  0.46123128  0.26407538
   0.79293681  0.23167696  0.56500122
   0.57322469  0.37953917  0.79453277
   0.43135416  0.60729711 -0.00069033
   0.14461053  0.39674432  0.53949903
   0.43646632  0.72000288  0.88250391
   0.44433688  0.44693502  0.31992836
   0.87340910  0.64822473  0.64939154
   0.12201779  0.33782251  0.25338348
   0.41516662  0.63853459  0.59648702
   0.20440823  0.73630761  0.35206600
   0.67560618 -0.01363413  0.29999208
unknown system                          
           1
     4.997522    0.647564    0.299868
    -0.707857    4.862524    0.169388
     0.818547    1.418643    6.242444
   H    Nb   H    Nb   H    Sr
  10   1   1   1   6   1
Direct configuration=    19
   0.17273190  0.07289243  0.45739240
   0.82701584  0.13399953  0.86393708
   0.39773495  0.14720263  0.63837617
   0.72368919  0.42449361  0.01749303
   0.06563545  0.80508733  0.04898761
   0.96973105  0.84129820  0.97245428
   0.40306371  0.12185391  0.04099155
   0.19581918  0.35823975  0.84078957
   0.00962733  0.46140601  0.26346085
   0.79229519  0.23312880  0.56411945
   0.57367202  0.37914992  0.79480306
   0.43089367  0.60746788 -0.00092925
   0.14358767  0.39597439  0.54002357
   0.43732156  0.72064921  0.88157199
   0.44388254  0.44632292  0.32034034
   0.87323491  0.64785370  0.65035950
   0.12126728  0.33843983  0.25329168
   0.41499313  0.63829117  0.59606920
   0.20487203  0.73651614  0.35211066
   0.67614837 -0.01331136  0.30036725
unknown system                          
           1
     5.001864    0.647675    0.302532
    -0.708912    4.867983    0.168237
     0.822745    1.419316    6.238861
   H    Nb   H    Nb   H    Sr
  10   1   1   1   6   1
Direct configuration=    20
   0.17289522  0.07297966  0.45665233
   0.82778037  0.13426092  0.86342939
   0.39710804  0.14669919  0.63924538
   0.72377519  0.42369026  0.01828464
   0.06590052  0.80563255  0.04898415
   0.96950214  0.84037225  0.97279136
   0.40311660  0.12114154  0.04093215
   0.19588464  0.35833586  0.84121399
   0.00991090  0.46173805  0.26294455
   0.79165164  0.23429104  0.56341520
   0.57332048  0.37890517  0.79445773
   0.43051582  0.60793223 -0.00154502
   0.14363773  0.39566101  0.54033650
   0.43819147  0.72113644  0.88094303
   0.44334161  0.44584090  0.32085821
   0.87327054  0.64766999  0.65110842
   0.12078738  0.33898869  0.25321551
   0.41502738  0.63828254  0.59551331
   0.20515713  0.73655508  0.35227399
   0.67644219 -0.01315736  0.30095516
unknown system                          
           1
     5.009514    0.647871    0.307227
    -0.710771    4.877603    0.166209
     0.830143    1.420503    6.232548
   H    Nb   H    Nb   H    Sr
  10   1   1   1   6   1
Direct configuration=    21
   0.17318407  0.07313351  0.45534726
   0.82912747  0.13472145  0.86253374
   0.39600264  0.14581255  0.64077834
   0.72392526  0.42227601  0.01968014
   0.06636728  0.80659230  0.04897807
   0.96909848  0.83874224  0.97338553
   0.40320983  0.11988770  0.04082710
   0.19599919  0.35850489  0.84196238
   0.01041111  0.46232276  0.26203408
   0.79051966  0.23633675  0.56217427
   0.57270205  0.37847436  0.79384895
   0.42985152  0.60874962 -0.00263040
   0.14372535  0.39510934  0.54088815
   0.43972433  0.72199453  0.87983355
   0.44238822  0.44499213  0.32177159
   0.87333200  0.64734640  0.65242892
   0.11994246  0.33995462  0.25308175
   0.41508864  0.63826755  0.59453308
   0.20565888  0.73662367  0.35256182
   0.67695855 -0.01288639  0.30199168
unknown system                          
           1
     5.011926    0.647531    0.307916
    -0.711755    4.880332    0.165887
     0.831623    1.421160    6.225945
   H    Nb   H    Nb   H    Sr
  10   1   1   1   6   1
Direct configuration=    22
   0.17283232  0.07316995  0.45488727
   0.82977900  0.13558351  0.86131740
   0.39567795  0.14520135  0.64165296
   0.72356813  0.42143051  0.02026639
   0.06703061  0.80710002  0.04927879
   0.96859622  0.83773985  0.97338911
   0.40332641  0.11909319  0.04064932
   0.19546439  0.35852610  0.84271824
   0.01011102  0.46321518  0.26180467
   0.79012798  0.23733410  0.56160516
   0.57311118  0.37836755  0.79400216
   0.42956175  0.60946666 -0.00350723
   0.14360778  0.39535429  0.54095095
   0.44072484  0.72227353  0.87935232
   0.44218649  0.44468055  0.32204436
   0.87344380  0.64711083  0.65298362
   0.12014692  0.34002326  0.25285610
   0.41533114  0.63810631  0.59408890
   0.20572782  0.73602177  0.35311741
   0.67686128 -0.01284250  0.30255211
unknown system                          
           1
     5.014578    0.647157    0.308674
    -0.712836    4.883334    0.165533
     0.833252    1.421883    6.218680
   H    Nb   H    Nb   H    Sr
  10   1   1   1   6   1
Direct configuration=    23
   0.17244578  0.07321014  0.45438070
   0.83049626  0.13653196  0.85997779
   0.39532032  0.14452892  0.64261621
   0.72317496  0.42050059  0.02091203
   0.06775992  0.80765824  0.04960995
   0.96804379  0.83663765  0.97339302
   0.40345463  0.11821973  0.04045346
   0.19487586  0.35854900  0.84355076
   0.00978125  0.46419642  0.26155211
   0.78969770  0.23843085  0.56097848
   0.57356097  0.37825012  0.79417085
   0.42924370  0.61025535 -0.00447284
   0.14347849  0.39562356  0.54102014
   0.44182535  0.72258065  0.87882223
   0.44196445  0.44433782  0.32234476
   0.87356638  0.64685161  0.65359449
   0.12037190  0.34009886  0.25260757
   0.41559804  0.63792926  0.59359968
   0.20580324  0.73535977  0.35372925
   0.67675400 -0.01279450  0.30316935
unknown system                          
           1
     5.014610    0.646856    0.308089
    -0.713273    4.884459    0.165114
     0.832766    1.421694    6.213875
   H    Nb   H    Nb   H    Sr
  10   1   1   1   6   1
Direct configuration=    24
   0.17211894  0.07332468  0.45418702
   0.83095652  0.13709688  0.85913715
   0.39517327  0.14419799  0.64314755
   0.72286939  0.41998838  0.02123942
   0.06780863  0.80811480  0.04951925
   0.96810748  0.83588087  0.97365216
   0.40357196  0.11768455  0.04034199
   0.19458317  0.35856354  0.84404481
   0.00971190  0.46461572  0.26148734
   0.78952198  0.23902018  0.56067614
   0.57364844  0.37826475  0.79419603
   0.42903827  0.61058956 -0.00481127
   0.14327711  0.39550279  0.54112664
   0.44249172  0.72292193  0.87835771
   0.44195574  0.44421673  0.32240224
   0.87368161  0.64673815  0.65388165
   0.12044171  0.34027357  0.25247824
   0.41580108  0.63773039  0.59341953
   0.20584220  0.73501111  0.35406095
   0.67661588 -0.01278056  0.30346546
unknown system                          
           1
     5.014703    0.645952    0.306333
    -0.714582    4.887833    0.163856
     0.831309    1.421127    6.199459
   H    Nb   H    Nb   H    Sr
  10   1   1   1   6   1
Direct configuration=    25
   0.17113848  0.07366829  0.45360544
   0.83233749  0.13879170  0.85661351
   0.39473199  0.14320513  0.64474269
   0.72195257  0.41845195  0.02222215
   0.06795482  0.80948419  0.04924705
   0.96829839  0.83361100  0.97443002
   0.40392391  0.11607948  0.04000723
   0.19370503  0.35860685  0.84552804
   0.00950391  0.46587335  0.26129296
   0.78899496  0.24078786  0.55976850
   0.57391082  0.37830862  0.79427166
   0.42842210  0.61159210 -0.00582734
   0.14267294  0.39514049  0.54144630
   0.44449094  0.72394581  0.87696330
   0.44192958  0.44385350  0.32257477
   0.87402722  0.64639774  0.65474378
   0.12065117  0.34079765  0.25209003
   0.41641020  0.63713403  0.59287869
   0.20595899  0.73396522  0.35505678
   0.67620147 -0.01273895  0.30435444
unknown system                          
           1
     5.014891    0.644146    0.302822
    -0.717200    4.894581    0.161341
     0.828395    1.419994    6.170628
   H    Nb   H    Nb   H    Sr
  10   1   1   1   6   1
Direct configuration=    26
   0.16917795  0.07435539  0.45243916
   0.83510057  0.14218178  0.85155588
   0.39384869  0.14121910  0.64793977
   0.72011833  0.41538018  0.02419106
   0.06824762  0.81222118  0.04870204
   0.96867941  0.82907395  0.97598851
   0.40462753  0.11287225  0.03933564
   0.19194832  0.35869160  0.84850099
   0.00908832  0.46838684  0.26090371
   0.78794168  0.24432137  0.55794943
   0.57443553  0.37839628  0.79442345
   0.42719042  0.61359662 -0.00786416
   0.14146446  0.39441598  0.54208663
   0.44848990  0.72599397  0.87416951
   0.44187711  0.44312742  0.32292047
   0.87471802  0.64571656  0.65647214
   0.12107033  0.34184546  0.25131211
   0.41762843  0.63594294  0.59179454
   0.20619197  0.73187399  0.35705274
   0.67537240 -0.01265684  0.30613636
unknown system                          
           1
     5.013702    0.644614    0.303532
    -0.716588    4.895505    0.160020
     0.828972    1.418558    6.177539
   H    Nb   H    Nb   H    Sr
  10   1   1   1   6   1
Direct configuration=    27
   0.16886120  0.07448498  0.45260994
   0.83600629  0.14191697  0.85148051
   0.39371185  0.14144263  0.64798308
   0.72002636  0.41545549  0.02438763
   0.06955080  0.81232546  0.04952807
   0.96740039  0.82894900  0.97505603
   0.40493663  0.11259042  0.03926042
   0.19284823  0.35881244  0.84845496
   0.01016817  0.46726202  0.26105836
   0.78781392  0.24438408  0.55786781
   0.57254963  0.37871197  0.79399860
   0.42688609  0.61336924 -0.00710363
   0.14136781  0.39295934  0.54269615
   0.44893468  0.72669492  0.87348975
   0.44193841  0.44327676  0.32269700
   0.87487841  0.64591135  0.65639328
   0.12020429  0.34303316  0.25134279
   0.41759043  0.63547699  0.59224393
   0.20631007  0.73261556  0.35664263
   0.67523337 -0.01271679  0.30592269
unknown system                          
           1
     5.013749    0.644596    0.303504
    -0.716613    4.895468    0.160072
     0.828949    1.418615    6.177267
   H    Nb   H    Nb   H    Sr
  10   1   1   1   6   1
Direct configuration=    28
   0.16887365  0.07447988  0.45260323
   0.83597068  0.14192738  0.85148347
   0.39371723  0.14143385  0.64798138
   0.72002997  0.41545253  0.02437991
   0.06949956  0.81232135  0.04949565
   0.96745068  0.82895392  0.97509263
   0.40492447  0.11260150  0.03926337
   0.19281285  0.35880769  0.84845677
   0.01012570  0.46730622  0.26105230
   0.78781894  0.24438162  0.55787102
   0.57262378  0.37869957  0.79401527
   0.42689805  0.61337816 -0.00713349
   0.14137159  0.39301656  0.54267223
   0.44891720  0.72666740  0.87351643
   0.44193600  0.44327090  0.32270577
   0.87487210  0.64590370  0.65639638
   0.12023834  0.34298649  0.25134157
   0.41759191  0.63549529  0.59222629
   0.20630543  0.73258643  0.35665873
   0.67523884 -0.01271443  0.30593108
unknown system                          
           1
     5.011174    0.644604    0.303221
    -0.716283    4.895836    0.159918
     0.827963    1.418301    6.181466
   H    Nb   H    Nb   H    Sr
  10   1   1   1   6   1
Direct configuration=    29
   0.16849994  0.07435103  0.45278367
   0.83676863  0.14195226  0.85121050
   0.39354359  0.14153308  0.64802832
   0.71973347  0.41556251  0.02435707
   0.06904064  0.81278650  0.04904187
   0.96790709  0.82846575  0.97547062
   0.40520920  0.11238251  0.03906766
   0.19336159  0.35891394  0.84843931
   0.01074578  0.46667526  0.26122745
   0.78764685  0.24449534  0.55773628
   0.57212518  0.37880902  0.79423034
   0.42669634  0.61356103 -0.00689733
   0.14119392  0.39243342  0.54301292
   0.44935417  0.72691760  0.87326120
   0.44191043  0.44333328  0.32258962
   0.87485461  0.64589949  0.65634565
   0.11980544  0.34369938  0.25124666
   0.41746858  0.63509689  0.59266081
   0.20629662  0.73290776  0.35650624
   0.67505492 -0.01282006  0.30569114
unknown system                          
           1
     5.010175    0.644607    0.303112
    -0.716156    4.895979    0.159858
     0.827581    1.418179    6.183095
   H    Nb   H    Nb   H    Sr
  10   1   1   1   6   1
Direct configuration=    30
   0.16835492  0.07430107  0.45285362
   0.83707829  0.14196187  0.85110470
   0.39347620  0.14157159  0.64804652
   0.71961839  0.41560518  0.02434822
   0.06886245  0.81296690  0.04886596
   0.96808429  0.82827642  0.97561715
   0.40531969  0.11229754  0.03899179
   0.19357456  0.35895514  0.84843255
   0.01098648  0.46643051  0.26129534
   0.78758004  0.24453944  0.55768405