 running on   32 total cores
 distrk:  each k-point on   32 cores,    1 groups
 distr:  one band on    8 cores,    4 groups
 using from now: INCAR     
 vasp.5.4.4.18Apr17-6-g9f103f2a35 (build Nov 01 2019 12:17:22) complex          
  
 POSCAR found type information on POSCAR  H  Nb H  Sr
 POSCAR found :  4 types and      12 ions
 LDA part: xc-table for Pade appr. of Perdew
 generate k-points for:    9    8    8
 POSCAR, INCAR and KPOINTS ok, starting setup
 FFT: planning ...
 WAVECAR not read
 entering main loop
       N       E                     dE             d eps       ncg     rms          rms(c)
DAV:   1     0.171233394472E+03    0.17123E+03   -0.13473E+04 16904   0.758E+02
DAV:   2    -0.343921033273E+02   -0.20563E+03   -0.20169E+03 20700   0.296E+02
DAV:   3    -0.486207626787E+02   -0.14229E+02   -0.14160E+02 25864   0.591E+01
DAV:   4    -0.494730955482E+02   -0.85233E+00   -0.85057E+00 26680   0.124E+01
DAV:   5    -0.494914912783E+02   -0.18396E-01   -0.18393E-01 25716   0.173E+00    0.356E+01
DAV:   6    -0.468647535213E+02    0.26267E+01   -0.48710E+00 23332   0.123E+01    0.169E+01
DAV:   7    -0.461462107522E+02    0.71854E+00   -0.28907E+00 23192   0.587E+00    0.782E+00
DAV:   8    -0.460857201195E+02    0.60491E-01   -0.77740E-01 24848   0.415E+00    0.325E+00
DAV:   9    -0.460945128265E+02   -0.87927E-02   -0.49335E-02 23160   0.121E+00    0.837E-01
DAV:  10    -0.460934738049E+02    0.10390E-02   -0.14685E-02 23800   0.464E-01    0.150E-01
DAV:  11    -0.460939978587E+02   -0.52405E-03   -0.15028E-03 19388   0.209E-01    0.117E-01
DAV:  12    -0.460941381753E+02   -0.14032E-03   -0.19511E-04 18260   0.805E-02    0.425E-02
DAV:  13    -0.460941601760E+02   -0.22001E-04   -0.60412E-05 11972   0.440E-02
   1 F= -.46094160E+02 E0= -.46094868E+02  d E =-.460942E+02
 curvature:   0.00 expect dE= 0.000E+00 dE for cont linesearch  0.000E+00
 trial: gam= 0.00000 g(F)=  0.206E-02 g(S)=  0.111E-02 ort = 0.000E+00 (trialstep = 0.100E+01)
 search vector abs. value=  0.317E-02
 bond charge predicted
       N       E                     dE             d eps       ncg     rms          rms(c)
DAV:   1    -0.460959859087E+02   -0.18477E-02   -0.10058E-01 17076   0.191E+00    0.240E-01
DAV:   2    -0.460955639635E+02    0.42195E-03   -0.45939E-03 21800   0.449E-01    0.119E-01
DAV:   3    -0.460953601050E+02    0.20386E-03   -0.62864E-04 19760   0.135E-01    0.647E-02
DAV:   4    -0.460953054943E+02    0.54611E-04   -0.19685E-04 13704   0.942E-02
   2 F= -.46095305E+02 E0= -.46096018E+02  d E =-.114532E-02
 trial-energy change:   -0.001145  1 .order   -0.001183   -0.003172    0.000807
 step:   0.7972(harm=  0.7972)  dis= 0.00346  next Energy=   -46.095425 (dE=-0.126E-02)
 bond charge predicted
       N       E                     dE             d eps       ncg     rms          rms(c)
DAV:   1    -0.460954341968E+02   -0.74092E-04   -0.43786E-03 17248   0.397E-01    0.536E-02
DAV:   2    -0.460954154612E+02    0.18736E-04   -0.19835E-04 15060   0.101E-01
   3 F= -.46095415E+02 E0= -.46096127E+02  d E =-.125529E-02
 curvature:  -0.40 expect dE=-0.140E-02 dE for cont linesearch -0.713E-05
 trial: gam= 1.18196 g(F)=  0.293E-02 g(S)=  0.581E-03 ort =-0.238E-03 (trialstep = 0.412E+00)
 search vector abs. value=  0.738E-02
 bond charge predicted
       N       E                     dE             d eps       ncg     rms          rms(c)
DAV:   1    -0.460970328207E+02   -0.15986E-02   -0.41313E-02 16412   0.132E+00    0.173E-01
DAV:   2    -0.460968383048E+02    0.19452E-03   -0.24673E-03 21592   0.342E-01    0.785E-02
DAV:   3    -0.460967520365E+02    0.86268E-04   -0.29133E-04 12380   0.936E-02
   4 F= -.46096752E+02 E0= -.46097466E+02  d E =-.133658E-02
 ZBRENT: can't locate minimum, use default step
 trial-energy change:   -0.001337  1 .order   -0.001417   -0.001332   -0.001501
 step:   1.6497(harm=  1.6497)  dis= 0.00679  next Energy=   -46.102096 (dE=-0.668E-02)
 bond charge predicted
       N       E                     dE             d eps       ncg     rms          rms(c)
DAV:   1    -0.461029997226E+02   -0.61614E-02   -0.36424E-01 16248   0.391E+00    0.528E-01
DAV:   2    -0.461007197048E+02    0.22800E-02   -0.22906E-02 21952   0.104E+00    0.257E-01
DAV:   3    -0.460998624566E+02    0.85725E-03   -0.32817E-03 23440   0.294E-01    0.151E-01
DAV:   4    -0.460995485301E+02    0.31393E-03   -0.91590E-04 23600   0.192E-01    0.105E-01
DAV:   5    -0.460995379838E+02    0.10546E-04   -0.10397E-04 11320   0.667E-02
   5 F= -.46099538E+02 E0= -.46100259E+02  d E =-.412252E-02
 curvature:  -2.93 expect dE=-0.520E-02 dE for cont linesearch -0.127E-02
 ZBRENT: increasing intervall
 opt :   4.1241  next Energy=   -46.099362 (dE=-0.395E-02)
 bond charge predicted
       N       E                     dE             d eps       ncg     rms          rms(c)
DAV:   1    -0.461130978628E+02   -0.13549E-01   -0.14734E+00 16240   0.786E+00    0.105E+00
DAV:   2    -0.461044942682E+02    0.86036E-02   -0.92084E-02 21928   0.209E+00    0.504E-01
DAV:   3    -0.461012101375E+02    0.32841E-02   -0.12325E-02 23424   0.572E-01    0.285E-01
DAV:   4    -0.461000130899E+02    0.11970E-02   -0.34165E-03 24128   0.370E-01    0.198E-01
DAV:   5    -0.460999896400E+02    0.23450E-04   -0.55021E-04 23400   0.126E-01
   6 F= -.46099990E+02 E0= -.46100727E+02  d E =-.457418E-02
 curvature:   0.41 expect dE= 0.256E-02 dE for cont linesearch  0.419E-04
 trial: gam= 0.00000 g(F)=  0.423E-02 g(S)=  0.205E-02 ort =-0.871E-03 (trialstep = 0.115E+01)
 search vector abs. value=  0.629E-02
 bond charge predicted
       N       E                     dE             d eps       ncg     rms          rms(c)
DAV:   1    -0.461070352764E+02   -0.70222E-02   -0.49457E-01 16240   0.508E+00    0.777E-01
DAV:   2    -0.461055092967E+02    0.15260E-02   -0.66899E-02 21068   0.169E+00    0.322E-01
DAV:   3    -0.461041131760E+02    0.13961E-02   -0.68701E-03 23280   0.413E-01    0.183E-01
DAV:   4    -0.461036232280E+02    0.48995E-03   -0.18707E-03 29064   0.249E-01    0.176E-01
DAV:   5    -0.461036688315E+02   -0.45603E-04   -0.11902E-04 13796   0.532E-02
   7 F= -.46103669E+02 E0= -.46104400E+02  d E =-.367919E-02
 trial-energy change:   -0.003679  1 .order   -0.003988   -0.007258   -0.000717
 step:   1.2814(harm=  1.2814)  dis= 0.00514  next Energy=   -46.104017 (dE=-0.403E-02)
 bond charge predicted
       N       E                     dE             d eps       ncg     rms          rms(c)
DAV:   1    -0.461036995552E+02   -0.76327E-04   -0.53560E-03 16688   0.530E-01    0.797E-02
DAV:   2    -0.461036671310E+02    0.32424E-04   -0.73390E-04 19636   0.182E-01
   8 F= -.46103667E+02 E0= -.46104398E+02  d E =-.367749E-02
 curvature:  -0.64 expect dE=-0.580E-02 dE for cont linesearch -0.334E-04
 trial: gam= 1.53195 g(F)=  0.842E-02 g(S)=  0.634E-03 ort =-0.572E-03 (trialstep = 0.336E+00)
 search vector abs. value=  0.221E-01
 bond charge predicted
       N       E                     dE             d eps       ncg     rms          rms(c)
DAV:   1    -0.461069807027E+02   -0.32811E-02   -0.13507E-01 16248   0.226E+00    0.394E-01
DAV:   2    -0.461060803601E+02    0.90034E-03   -0.11569E-02 22072   0.778E-01    0.158E-01
DAV:   3    -0.461057553307E+02    0.32503E-03   -0.15080E-03 23376   0.188E-01    0.101E-01
DAV:   4    -0.461056558311E+02    0.99500E-04   -0.37154E-04 18908   0.118E-01
   9 F= -.46105656E+02 E0= -.46106378E+02  d E =-.198870E-02
 trial-energy change:   -0.001989  1 .order   -0.002213   -0.002751   -0.001675
 step:   0.8600(harm=  0.8600)  dis= 0.00550  next Energy=   -46.107184 (dE=-0.352E-02)
 bond charge predicted
       N       E                     dE             d eps       ncg     rms          rms(c)
DAV:   1    -0.461094073246E+02   -0.36520E-02   -0.32648E-01 16240   0.352E+00    0.608E-01
DAV:   2    -0.461073314003E+02    0.20759E-02   -0.27987E-02 22280   0.121E+00    0.242E-01
DAV:   3    -0.461065582437E+02    0.77316E-03   -0.36225E-03 23912   0.292E-01    0.159E-01
DAV:   4    -0.461063285872E+02    0.22966E-03   -0.10306E-03 28112   0.182E-01    0.149E-01
DAV:   5    -0.461063614574E+02   -0.32870E-04   -0.56819E-05 11376   0.384E-02
  10 F= -.46106361E+02 E0= -.46107069E+02  d E =-.269433E-02
 curvature:  -1.16 expect dE=-0.535E-02 dE for cont linesearch -0.189E-04
 trial: gam= 0.36281 g(F)=  0.404E-02 g(S)=  0.578E-03 ort =-0.600E-03 (trialstep = 0.441E+00)
 search vector abs. value=  0.709E-02
 bond charge predicted
       N       E                     dE             d eps       ncg     rms          rms(c)
DAV:   1    -0.461073495195E+02   -0.10209E-02   -0.80070E-02 18560   0.219E+00    0.140E-01
DAV:   2    -0.461080179627E+02   -0.66844E-03   -0.91146E-03 17932   0.536E-01    0.943E-02
DAV:   3    -0.461080125821E+02    0.53807E-05   -0.21862E-04 20472   0.854E-02
  11 F= -.46108013E+02 E0= -.46108718E+02  d E =-.165112E-02
 trial-energy change:   -0.001651  1 .order   -0.001668   -0.001941   -0.001394
 step:   1.5661(harm=  1.5661)  dis= 0.00891  next Energy=   -46.109807 (dE=-0.345E-02)
 bond charge predicted
       N       E                     dE             d eps       ncg     rms          rms(c)
DAV:   1    -0.461054757425E+02    0.25422E-02   -0.52035E-01 18560   0.557E+00    0.354E-01
DAV:   2    -0.461097759421E+02   -0.43002E-02   -0.58546E-02 17800   0.135E+00    0.231E-01
DAV:   3    -0.461097400175E+02    0.35925E-04   -0.15207E-03 26240   0.215E-01    0.144E-01
DAV:   4    -0.461096935760E+02    0.46442E-04   -0.28001E-04 14420   0.118E-01
  12 F= -.46109694E+02 E0= -.46110399E+02  d E =-.333212E-02
 curvature:  -1.26 expect dE=-0.585E-02 dE for cont linesearch -0.168E-05
 trial: gam= 0.87582 g(F)=  0.316E-02 g(S)=  0.147E-02 ort = 0.971E-04 (trialstep = 0.461E+00)
 search vector abs. value=  0.102E-01
 bond charge predicted
       N       E                     dE             d eps       ncg     rms          rms(c)
DAV:   1    -0.461116314617E+02   -0.18914E-02   -0.63590E-02 16276   0.169E+00    0.188E-01
DAV:   2    -0.461116061782E+02    0.25283E-04   -0.35369E-03 21036   0.389E-01    0.104E-01
DAV:   3    -0.461115198662E+02    0.86312E-04   -0.23505E-04 15368   0.934E-02
  13 F= -.46111520E+02 E0= -.46112232E+02  d E =-.182629E-02
 ZBRENT: can't locate minimum, use default step
 trial-energy change:   -0.001826  1 .order   -0.001908   -0.002176   -0.001640
 step:   1.8432(harm=  1.8713)  dis= 0.01258  next Energy=   -46.114111 (dE=-0.442E-02)
 bond charge predicted
       N       E                     dE             d eps       ncg     rms          rms(c)
DAV:   1    -0.461140190742E+02   -0.24129E-02   -0.56878E-01 16240   0.506E+00    0.518E-01
DAV:   2    -0.461137943758E+02    0.22470E-03   -0.30662E-02 21076   0.114E+00    0.276E-01
DAV:   3    -0.461130772157E+02    0.71716E-03   -0.21762E-03 26168   0.263E-01    0.142E-01
DAV:   4    -0.461129696302E+02    0.10759E-03   -0.49099E-04 20868   0.146E-01    0.731E-02
DAV:   5    -0.461129645809E+02    0.50493E-05   -0.82390E-05 11392   0.600E-02
  14 F= -.46112965E+02 E0= -.46113697E+02  d E =-.327100E-02
 curvature:  -2.03 expect dE=-0.278E-01 dE for cont linesearch -0.160E-03
 trial: gam= 0.00000 g(F)=  0.120E-01 g(S)=  0.171E-02 ort =-0.899E-03 (trialstep = 0.551E+00)
 search vector abs. value=  0.137E-01
 bond charge predicted
       N       E                     dE             d eps       ncg     rms          rms(c)
DAV:   1    -0.461155304367E+02   -0.25608E-02   -0.14936E-01 18552   0.258E+00    0.238E-01
DAV:   2    -0.461159497330E+02   -0.41930E-03   -0.11618E-02 20096   0.580E-01    0.146E-01
DAV:   3    -0.461157542133E+02    0.19552E-03   -0.50048E-04 22180   0.128E-01    0.611E-02
DAV:   4    -0.461157308301E+02    0.23383E-04   -0.15492E-04 13472   0.729E-02
  15 F= -.46115731E+02 E0= -.46116458E+02  d E =-.276625E-02
 trial-energy change:   -0.002766  1 .order   -0.002867   -0.007551    0.001817
 step:   0.4438(harm=  0.4438)  dis= 0.00439  next Energy=   -46.116008 (dE=-0.304E-02)
 bond charge predicted
       N       E                     dE             d eps       ncg     rms          rms(c)
DAV:   1    -0.461159116153E+02   -0.15740E-03   -0.55850E-03 18816   0.490E-01    0.454E-02
DAV:   2    -0.461159272447E+02   -0.15629E-04   -0.43297E-04 19516   0.112E-01
  16 F= -.46115927E+02 E0= -.46116656E+02  d E =-.296266E-02
 curvature:  -0.22 expect dE=-0.660E-03 dE for cont linesearch -0.352E-05
 trial: gam= 0.25102 g(F)=  0.229E-02 g(S)=  0.689E-03 ort =-0.466E-03 (trialstep = 0.529E+00)
 search vector abs. value=  0.361E-02
 bond charge predicted
       N       E                     dE             d eps       ncg     rms          rms(c)
DAV:   1    -0.461171503309E+02   -0.12387E-02   -0.42084E-02 18416   0.156E+00    0.181E-01
DAV:   2    -0.461173054893E+02   -0.15516E-03   -0.44517E-03 18096   0.367E-01    0.923E-02
DAV:   3    -0.461172309501E+02    0.74539E-04   -0.20940E-04 17660   0.874E-02
  17 F= -.46117231E+02 E0= -.46117964E+02  d E =-.130371E-02
 ZBRENT: can't locate minimum, use default step
 trial-energy change:   -0.001304  1 .order   -0.001371   -0.001513   -0.001229
 step:   2.1172(harm=  2.8188)  dis= 0.00942  next Energy=   -46.119957 (dE=-0.403E-02)
 bond charge predicted
       N       E                     dE             d eps       ncg     rms          rms(c)
DAV:   1    -0.461176544957E+02   -0.34901E-03   -0.37097E-01 18144   0.466E+00    0.549E-01
DAV:   2    -0.461188497106E+02   -0.11952E-02   -0.39445E-02 18072   0.109E+00    0.279E-01
DAV:   3    -0.461181614844E+02    0.68823E-03   -0.22106E-03 27016   0.266E-01    0.143E-01
DAV:   4    -0.461180371293E+02    0.12436E-03   -0.70994E-04 22216   0.165E-01    0.904E-02
DAV:   5    -0.461180442255E+02   -0.70961E-05   -0.76821E-05 11196   0.558E-02
  18 F= -.46118044E+02 E0= -.46118791E+02  d E =-.211698E-02
 curvature:  -1.61 expect dE=-0.963E-02 dE for cont linesearch -0.289E-03
 trial: gam= 0.00000 g(F)=  0.528E-02 g(S)=  0.695E-03 ort =-0.805E-03 (trialstep = 0.511E+00)
 search vector abs. value=  0.598E-02
 bond charge predicted
       N       E                     dE             d eps       ncg     rms          rms(c)
DAV:   1    -0.461185323136E+02   -0.49518E-03   -0.15378E-01 18456   0.306E+00    0.253E-01
DAV:   2    -0.461202342925E+02   -0.17020E-02   -0.22172E-02 16432   0.742E-01    0.127E-01
DAV:   3    -0.461201727593E+02    0.61533E-04   -0.65536E-04 23840   0.131E-01
  19 F= -.46120173E+02 E0= -.46120923E+02  d E =-.212853E-02
 trial-energy change:   -0.002129  1 .order   -0.002184   -0.003054   -0.001315
 step:   0.8975(harm=  0.8975)  dis= 0.00858  next Energy=   -46.120726 (dE=-0.268E-02)
 bond charge predicted
       N       E                     dE             d eps       ncg     rms          rms(c)
DAV:   1    -0.461195701473E+02    0.66415E-03   -0.85593E-02 18480   0.227E+00    0.184E-01
DAV:   2    -0.461205016959E+02   -0.93155E-03   -0.12260E-02 16712   0.552E-01    0.932E-02
DAV:   3    -0.461204703527E+02    0.31343E-04   -0.37247E-04 21524   0.958E-02
  20 F= -.46120470E+02 E0= -.46121222E+02  d E =-.242613E-02
 curvature:  -0.45 expect dE=-0.115E-02 dE for cont linesearch -0.746E-05
 trial: gam= 0.47977 g(F)=  0.192E-02 g(S)=  0.636E-03 ort =-0.315E-03 (trialstep = 0.588E+00)
 search vector abs. value=  0.362E-02
 bond charge predicted
       N       E                     dE             d eps       ncg     rms          rms(c)
DAV:   1    -0.461215560598E+02   -0.10544E-02   -0.48486E-02 17232   0.165E+00    0.194E-01
DAV:   2    -0.461215843179E+02   -0.28258E-04   -0.53388E-03 18904   0.435E-01    0.771E-02
DAV:   3    -0.461214945173E+02    0.89801E-04   -0.35552E-04 19032   0.101E-01
  21 F= -.46121495E+02 E0= -.46122256E+02  d E =-.102416E-02
 trial-energy change:   -0.001024  1 .order   -0.001206   -0.001412   -0.001000
 step:   2.0138(harm=  2.0138)  dis= 0.00726  next Energy=   -46.122887 (dE=-0.242E-02)
 bond charge predicted
       N       E                     dE             d eps       ncg     rms          rms(c)
DAV:   1    -0.461220699208E+02   -0.48560E-03   -0.28546E-01 16792   0.401E+00    0.466E-01
DAV:   2    -0.461222824965E+02   -0.21258E-03   -0.32514E-02 18740   0.107E+00    0.182E-01
DAV:   3    -0.461217711200E+02    0.51138E-03   -0.22076E-03 24168   0.248E-01    0.126E-01
DAV:   4    -0.461216189687E+02    0.15215E-03   -0.58177E-04 22688   0.149E-01    0.105E-01
DAV:   5    -0.461216228661E+02   -0.38974E-05   -0.54377E-05 11160   0.441E-02
  22 F= -.46121623E+02 E0= -.46122406E+02  d E =-.115251E-02
 curvature:  -1.52 expect dE=-0.144E-01 dE for cont linesearch -0.293E-03
 trial: gam= 0.00000 g(F)=  0.792E-02 g(S)=  0.155E-02 ort =-0.836E-03 (trialstep = 0.334E+00)
 search vector abs. value=  0.946E-02
 bond charge predicted
       N       E                     dE             d eps       ncg     rms          rms(c)
DAV:   1    -0.461234866712E+02   -0.18677E-02   -0.56523E-02 17904   0.178E+00    0.177E-01
DAV:   2    -0.461238756230E+02   -0.38895E-03   -0.73062E-03 18328   0.446E-01    0.794E-02
DAV:   3    -0.461238080174E+02    0.67606E-04   -0.27710E-04 19136   0.922E-02
  23 F= -.46123808E+02 E0= -.46124589E+02  d E =-.218515E-02
 trial-energy change:   -0.002185  1 .order   -0.002274   -0.003166   -0.001382
 step:   0.5938(harm=  0.5938)  dis= 0.00434  next Energy=   -46.124433 (dE=-0.281E-02)
 bond charge predicted
       N       E                     dE             d eps       ncg     rms          rms(c)
DAV:   1    -0.461239488733E+02   -0.73250E-04   -0.32093E-02 17592   0.135E+00    0.123E-01
DAV:   2    -0.461241656420E+02   -0.21677E-03   -0.42252E-03 18512   0.330E-01    0.586E-02
DAV:   3    -0.461241287113E+02    0.36931E-04   -0.14463E-04 16224   0.674E-02
  24 F= -.46124129E+02 E0= -.46124907E+02  d E =-.250585E-02
 curvature:  -0.30 expect dE=-0.131E-02 dE for cont linesearch -0.640E-05
 trial: gam= 0.51533 g(F)=  0.282E-02 g(S)=  0.161E-02 ort =-0.452E-03 (trialstep = 0.386E+00)
 search vector abs. value=  0.647E-02
 bond charge predicted
       N       E                     dE             d eps       ncg     rms          rms(c)
DAV:   1    -0.461256669189E+02   -0.15013E-02   -0.49591E-02 16240   0.172E+00    0.292E-01
DAV:   2    -0.461254599108E+02    0.20701E-03   -0.86954E-03 20552   0.560E-01    0.102E-01
DAV:   3    -0.461252756482E+02    0.18426E-03   -0.78227E-04 23144   0.149E-01    0.662E-02
DAV:   4    -0.461252056467E+02    0.70002E-04   -0.19917E-04 12868   0.944E-02
  25 F= -.46125206E+02 E0= -.46125983E+02  d E =-.107694E-02
 trial-energy change:   -0.001077  1 .order   -0.001284   -0.001620   -0.000949
 step:   0.9325(harm=  0.9325)  dis= 0.00400  next Energy=   -46.126084 (dE=-0.196E-02)
 bond charge predicted
       N       E                     dE             d eps       ncg     rms          rms(c)
DAV:   1    -0.461266995132E+02   -0.14239E-02   -0.10207E-01 16240   0.249E+00    0.422E-01
DAV:   2    -0.461262178955E+02    0.48162E-03   -0.17610E-02 20028   0.798E-01    0.143E-01
DAV:   3    -0.461258260408E+02    0.39185E-03   -0.15464E-03 23152   0.211E-01    0.102E-01
DAV:   4    -0.461257003053E+02    0.12574E-03   -0.59511E-04 22768   0.140E-01    0.107E-01
DAV:   5    -0.461257173439E+02   -0.17039E-04   -0.54060E-05  9952   0.411E-02
  26 F= -.46125717E+02 E0= -.46126495E+02  d E =-.158863E-02
 curvature:  -0.72 expect dE=-0.232E-02 dE for cont linesearch -0.423E-05
 trial: gam= 0.42765 g(F)=  0.301E-02 g(S)=  0.220E-03 ort = 0.195E-03 (trialstep = 0.496E+00)
 search vector abs. value=  0.458E-02
 bond charge predicted
       N       E                     dE             d eps       ncg     rms          rms(c)
DAV:   1    -0.461269532040E+02   -0.12529E-02   -0.49779E-02 18552   0.171E+00    0.172E-01
DAV:   2    -0.461271071986E+02   -0.15399E-03   -0.57269E-03 18592   0.441E-01    0.714E-02
DAV:   3    -0.461270539667E+02    0.53232E-04   -0.21053E-04 15636   0.896E-02
  27 F= -.46127054E+02 E0= -.46127834E+02  d E =-.133662E-02
 ZBRENT: can't locate minimum, use default step
 trial-energy change:   -0.001337  1 .order   -0.001439   -0.001641   -0.001237
 step:   1.9823(harm=  2.0141)  dis= 0.00791  next Energy=   -46.129053 (dE=-0.334E-02)
 bond charge predicted
       N       E                     dE             d eps       ncg     rms          rms(c)
DAV:   1    -0.461271505792E+02   -0.43381E-04   -0.44796E-01 18560   0.511E+00    0.503E-01
DAV:   2    -0.461286414070E+02   -0.14908E-02   -0.51546E-02 18588   0.132E+00    0.215E-01
DAV:   3    -0.461281986527E+02    0.44275E-03   -0.22653E-03 26324   0.272E-01    0.129E-01
DAV:   4    -0.461280431587E+02    0.15549E-03   -0.59838E-04 23120   0.153E-01    0.108E-01
DAV:   5    -0.461280575146E+02   -0.14356E-04   -0.79313E-05 11320   0.523E-02
  28 F= -.46128058E+02 E0= -.46128842E+02  d E =-.234017E-02
 curvature:  -1.39 expect dE=-0.186E-01 dE for cont linesearch -0.108E-03
 trial: gam= 4.39377 g(F)=  0.113E-01 g(S)=  0.201E-02 ort =-0.595E-03 (trialstep = 0.376E-01)
 search vector abs. value=  0.965E-01
 bond charge predicted
       N       E                     dE             d eps       ncg     rms          rms(c)
DAV:   1    -0.461284340044E+02   -0.39085E-03   -0.52319E-03 18896   0.541E-01    0.450E-02
DAV:   2    -0.461284498553E+02   -0.15851E-04   -0.50152E-04 16220   0.130E-01
  29 F= -.46128450E+02 E0= -.46129235E+02  d E =-.392341E-03
 ZBRENT: can't locate minimum, use default step
 trial-energy change:   -0.000392  1 .order   -0.000392   -0.000403   -0.000380
 step:   0.1505(harm=  0.6633)  dis= 0.00222  next Energy=   -46.131612 (dE=-0.355E-02)
 bond charge predicted
       N       E                     dE             d eps       ncg     rms          rms(c)
DAV:   1    -0.461294381891E+02   -0.10042E-02   -0.48305E-02 18568   0.164E+00    0.144E-01
DAV:   2    -0.461295477611E+02   -0.10957E-03   -0.46363E-03 18548   0.393E-01    0.707E-02
DAV:   3    -0.461294941260E+02    0.53635E-04   -0.17011E-04 16152   0.824E-02
  30 F= -.46129494E+02 E0= -.46130282E+02  d E =-.143661E-02
 curvature:  -0.98 expect dE=-0.128E-01 dE for cont linesearch -0.105E-02
 ZBRENT: increasing intervall
 opt :   0.3763  next Energy=   -46.131800 (dE=-0.374E-02)
 bond charge predicted
       N       E                     dE             d eps       ncg     rms          rms(c)
DAV:   1    -0.461309256369E+02   -0.13779E-02   -0.19057E-01 18560   0.326E+00    0.277E-01
DAV:   2    -0.461314517090E+02   -0.52607E-03   -0.18238E-02 18520   0.782E-01    0.136E-01
DAV:   3    -0.461312741438E+02    0.17757E-03   -0.73047E-04 23208   0.159E-01    0.838E-02
DAV:   4    -0.461312075219E+02    0.66622E-04   -0.18265E-04 12776   0.986E-02
  31 F= -.46131208E+02 E0= -.46131997E+02  d E =-.315001E-02
 curvature:  -2.16 expect dE=-0.286E-01 dE for cont linesearch -0.124E-02
 ZBRENT: increasing intervall
 opt :   0.8278  next Energy=   -46.133354 (dE=-0.530E-02)
 bond charge predicted
       N       E                     dE             d eps       ncg     rms          rms(c)
DAV:   1    -0.461319877988E+02   -0.71366E-03   -0.77320E-01 18560   0.660E+00    0.572E-01
DAV:   2    -0.461342363925E+02   -0.22486E-02   -0.74161E-02 18432   0.157E+00    0.261E-01
DAV:   3    -0.461335288271E+02    0.70757E-03   -0.29730E-03 26128   0.318E-01    0.154E-01
DAV:   4    -0.461332761072E+02    0.25272E-03   -0.80582E-04 22476   0.187E-01    0.990E-02
DAV:   5    -0.461332822063E+02   -0.60991E-05   -0.11047E-04 11484   0.665E-02
  32 F= -.46133282E+02 E0= -.46134074E+02  d E =-.522469E-02
 curvature:  -3.72 expect dE=-0.671E-01 dE for cont linesearch -0.333E-03
 trial: gam= 0.58047 g(F)=  0.146E-01 g(S)=  0.339E-02 ort = 0.294E-02 (trialstep = 0.196E+00)
 search vector abs. value=  0.539E-01
 bond charge predicted
       N       E                     dE             d eps       ncg     rms          rms(c)
DAV:   1    -0.461368226978E+02   -0.35466E-02   -0.71376E-02 18576   0.189E+00    0.156E-01
DAV:   2    -0.461368136457E+02    0.90520E-05   -0.46196E-03 19752   0.410E-01    0.814E-02
DAV:   3    -0.461366979393E+02    0.11571E-03   -0.24319E-04 17368   0.101E-01    0.391E-02
DAV:   4    -0.461366782193E+02    0.19720E-04   -0.83883E-05 10920   0.735E-02
  33 F= -.46136678E+02 E0= -.46137470E+02  d E =-.339601E-02
 ZBRENT: can't locate minimum, use default step
 trial-energy change:   -0.003396  1 .order   -0.003445   -0.003858   -0.003031
 step:   0.7826(harm=  0.9126)  dis= 0.00967  next Energy=   -46.142281 (dE=-0.900E-02)
 bond charge predicted
       N       E                     dE             d eps       ncg     rms          rms(c)
DAV:   1    -0.461433355965E+02   -0.66377E-02   -0.64893E-01 18536   0.569E+00    0.463E-01
DAV:   2    -0.461432557996E+02    0.79797E-04   -0.41626E-02 19828   0.123E+00    0.239E-01
DAV:   3    -0.461422046494E+02    0.10512E-02   -0.22457E-03 23240   0.295E-01    0.115E-01
DAV:   4    -0.461420184595E+02    0.18619E-03   -0.70222E-04 21224   0.177E-01    0.382E-02
DAV:   5    -0.461420204942E+02   -0.20348E-05   -0.64817E-05 11412   0.576E-02
  34 F= -.46142020E+02 E0= -.46142813E+02  d E =-.873829E-02
 curvature:  -1.21 expect dE=-0.165E-01 dE for cont linesearch -0.201E-03
 trial: gam= 0.73077 g(F)=  0.126E-01 g(S)=  0.107E-02 ort = 0.300E-02 (trialstep = 0.313E+00)
 search vector abs. value=  0.469E-01
 bond charge predicted
       N       E                     dE             d eps       ncg     rms          rms(c)
DAV:   1    -0.461460255684E+02   -0.40071E-02   -0.17583E-01 18560   0.309E+00    0.234E-01
DAV:   2    -0.461464480054E+02   -0.42244E-03   -0.14647E-02 18368   0.695E-01    0.123E-01
DAV:   3    -0.461462061292E+02    0.24188E-03   -0.60559E-04 23168   0.154E-01    0.638E-02
DAV:   4    -0.461461450824E+02    0.61047E-04   -0.18034E-04 12600   0.972E-02
  35 F= -.46146145E+02 E0= -.46146925E+02  d E =-.412459E-02
 trial-energy change:   -0.004125  1 .order   -0.004187   -0.004967   -0.003407
 step:   0.9963(harm=  0.9963)  dis= 0.01210  next Energy=   -46.149925 (dE=-0.790E-02)
 bond charge predicted
       N       E                     dE             d eps       ncg     rms          rms(c)
DAV:   1    -0.461489179569E+02   -0.27118E-02   -0.83639E-01 18560   0.675E+00    0.508E-01
DAV:   2    -0.461509146472E+02   -0.19967E-02   -0.69506E-02 18284   0.151E+00    0.264E-01
DAV:   3    -0.461497761056E+02    0.11385E-02   -0.28193E-03 24360   0.331E-01    0.137E-01
DAV:   4    -0.461494934224E+02    0.28268E-03   -0.94225E-04 22008   0.206E-01    0.433E-02
DAV:   5    -0.461494964706E+02   -0.30482E-05   -0.10683E-04 12068   0.727E-02
  36 F= -.46149496E+02 E0= -.46150242E+02  d E =-.747598E-02
 curvature:  -1.47 expect dE=-0.130E-01 dE for cont linesearch -0.138E-04
 trial: gam= 0.92221 g(F)=  0.835E-02 g(S)=  0.501E-03 ort =-0.663E-03 (trialstep = 0.444E+00)
 search vector abs. value=  0.475E-01
 bond charge predicted
       N       E                     dE             d eps       ncg     rms          rms(c)
DAV:   1    -0.461540684335E+02   -0.45750E-02   -0.28316E-01 16240   0.340E+00    0.308E-01
DAV:   2    -0.461534101933E+02    0.65824E-03   -0.12031E-02 20756   0.729E-01    0.153E-01
DAV:   3    -0.461529613801E+02    0.44881E-03   -0.10818E-03 23836   0.195E-01    0.754E-02
DAV:   4    -0.461528961800E+02    0.65200E-04   -0.18219E-04 11676   0.105E-01
  37 F= -.46152896E+02 E0= -.46153626E+02  d E =-.339971E-02
 ZBRENT: can't locate minimum, use default step
 trial-energy change:   -0.003400  1 .order   -0.003507   -0.003656   -0.003359
 step:   1.7754(harm=  5.4646)  dis= 0.02265  next Energy=   -46.171999 (dE=-0.225E-01)
 bond charge predicted
       N       E                     dE             d eps       ncg     rms          rms(c)
DAV:   1    -0.461712688936E+02   -0.18308E-01   -0.25522E+00 16240   0.102E+01    0.925E-01
DAV:   2    -0.461652323972E+02    0.60365E-02   -0.10836E-01 20852   0.218E+00    0.456E-01
DAV:   3    -0.461611701652E+02    0.40622E-02   -0.96998E-03 24432   0.577E-01    0.222E-01
DAV:   4    -0.461606024885E+02    0.56768E-03   -0.20955E-03 25128   0.314E-01    0.857E-02
DAV:   5    -0.461605963233E+02    0.61652E-05   -0.19000E-04 13744   0.946E-02
  38 F= -.46160596E+02 E0= -.46161285E+02  d E =-.110999E-01
 curvature:  -7.25 expect dE=-0.132E+00 dE for cont linesearch -0.321E-02
 ZBRENT: increasing intervall
 opt :   4.4385  next Energy=   -46.164852 (dE=-0.154E-01)
 bond charge predicted
       N       E                     dE             d eps       ncg     rms          rms(c)
DAV:   1    -0.462078117762E+02   -0.47209E-01   -0.10292E+01 16240   0.204E+01    0.184E+00
DAV:   2    -0.461839369681E+02    0.23875E-01   -0.43440E-01 20688   0.435E+00    0.911E-01
DAV:   3    -0.461674787981E+02    0.16458E-01   -0.38210E-02 24012   0.113E+00    0.433E-01
DAV:   4    -0.461651433329E+02    0.23355E-02   -0.85363E-03 25592   0.635E-01    0.162E-01
DAV:   5    -0.461651347084E+02    0.86245E-05   -0.86883E-04 23216   0.183E-01
  39 F= -.46165135E+02 E0= -.46165776E+02  d E =-.156382E-01
 curvature:  -9.62 expect dE=-0.565E+00 dE for cont linesearch -0.262E-03
 trial: gam= 6.16328 g(F)=  0.520E-01 g(S)=  0.673E-02 ort =-0.114E-02 (trialstep = 0.319E-01)
 search vector abs. value=  0.185E+01
 bond charge predicted
       N       E                     dE             d eps       ncg     rms          rms(c)
DAV:   1    -0.461668850601E+02   -0.17417E-02   -0.57404E-02 16892   0.155E+00    0.135E-01
DAV:   2    -0.461668123106E+02    0.72750E-04   -0.25950E-03 19344   0.334E-01    0.658E-02
DAV:   3    -0.461667336639E+02    0.78647E-04   -0.19378E-04 13784   0.860E-02
  40 F= -.46166734E+02 E0= -.46167374E+02  d E =-.159896E-02
 ZBRENT: can't locate minimum, use default step
 trial-energy change:   -0.001599  1 .order   -0.001673   -0.001652   -0.001693
 step:   0.1277(harm=  0.1277)  dis= 0.01008  next Energy=   -46.172070 (dE=-0.694E-02)
 bond charge predicted
       N       E                     dE             d eps       ncg     rms          rms(c)
DAV:   1    -0.461728258741E+02   -0.60136E-02   -0.51673E-01 16252   0.464E+00    0.406E-01
DAV:   2    -0.461719273900E+02    0.89848E-03   -0.22970E-02 19624   0.986E-01    0.204E-01
DAV:   3    -0.461711402795E+02    0.78711E-03   -0.20822E-03 25544   0.265E-01    0.938E-02
DAV:   4    -0.461710400941E+02    0.10019E-03   -0.31165E-04 17904   0.123E-01    0.302E-02
DAV:   5    -0.461710421303E+02   -0.20362E-05   -0.28684E-05 11344   0.421E-02
  41 F= -.46171042E+02 E0= -.46171678E+02  d E =-.590742E-02
 curvature:  -3.46 expect dE=-0.191E+00 dE for cont linesearch -0.322E-02
 ZBRENT: increasing intervall
 opt :   0.3192  next Energy=   -46.176786 (dE=-0.117E-01)
 bond charge predicted
       N       E                     dE             d eps       ncg     rms          rms(c)
DAV:   1    -0.461844013202E+02   -0.13361E-01   -0.20929E+00 16240   0.934E+00    0.818E-01
DAV:   2    -0.461809087549E+02    0.34926E-02   -0.92697E-02 19496   0.198E+00    0.405E-01
DAV:   3    -0.461777132785E+02    0.31955E-02   -0.81313E-03 24932   0.530E-01    0.183E-01
DAV:   4    -0.461773210628E+02    0.39222E-03   -0.13592E-03 23976   0.249E-01    0.607E-02
DAV:   5    -0.461773240527E+02   -0.29900E-05   -0.80293E-05 11704   0.645E-02
  42 F= -.46177324E+02 E0= -.46177977E+02  d E =-.121893E-01
 curvature:  -6.16 expect dE=-0.362E+00 dE for cont linesearch -0.163E-02
 ZBRENT: increasing intervall
 opt :   0.7023  next Energy=   -46.178378 (dE=-0.132E-01)
 bond charge predicted
       N       E                     dE             d eps       ncg     rms          rms(c)
DAV:   1    -0.462050492205E+02   -0.27728E-01   -0.84731E+00 16240   0.188E+01    0.166E+00
DAV:   2    -0.461909792255E+02    0.14070E-01   -0.37416E-01 19632   0.396E+00    0.825E-01
DAV:   3    -0.461777943722E+02    0.13185E-01   -0.32338E-02 24812   0.105E+00    0.366E-01
DAV:   4    -0.461761686785E+02    0.16257E-02   -0.56678E-03 23728   0.505E-01    0.121E-01
DAV:   5    -0.461761933875E+02   -0.24709E-04   -0.41498E-04 20944   0.135E-01
  43 F= -.46176193E+02 E0= -.46176937E+02  d E =-.110587E-01
 curvature:  -3.98 expect dE=-0.461E+00 dE for cont linesearch -0.274E-02
 ZBRENT: bracketing found
 ZBRENT: interpolating
 opt :   0.4659  next Energy=   -46.178947 (dE=-0.138E-01)
 bond charge predicted
       N       E                     dE             d eps       ncg     rms          rms(c)
DAV:   1    -0.461909553848E+02   -0.14787E-01   -0.32500E+00 16240   0.116E+01    0.103E+00
DAV:   2    -0.461851115626E+02    0.58438E-02   -0.14267E-01 19896   0.248E+00    0.523E-01
DAV:   3    -0.461798725358E+02    0.52390E-02   -0.12424E-02 23584   0.637E-01    0.221E-01
DAV:   4    -0.461792430712E+02    0.62946E-03   -0.21387E-03 24776   0.308E-01    0.771E-02
DAV:   5    -0.461792410599E+02    0.20114E-05   -0.14570E-04 12248   0.819E-02
  44 F= -.46179241E+02 E0= -.46179927E+02  d E =-.141064E-01
 curvature:  -2.35 expect dE=-0.170E+00 dE for cont linesearch -0.169E-04
 trial: gam= 0.42455 g(F)=  0.539E-01 g(S)=  0.181E-01 ort = 0.364E-02 (trialstep = 0.119E+00)
 search vector abs. value=  0.408E+00
 bond charge predicted
       N       E                     dE             d eps       ncg     rms          rms(c)
DAV:   1    -0.461868283297E+02   -0.75853E-02   -0.24990E-01 18568   0.385E+00    0.364E-01
DAV:   2    -0.461877350810E+02   -0.90675E-03   -0.24434E-02 17764   0.910E-01    0.149E-01
DAV:   3    -0.461874650616E+02    0.27002E-03   -0.98984E-04 26036   0.185E-01    0.776E-02
DAV:   4    -0.461873869359E+02    0.78126E-04   -0.17305E-04 13092   0.953E-02
  45 F= -.46187387E+02 E0= -.46188084E+02  d E =-.814588E-02
 ZBRENT: can't locate minimum, use default step
 trial-energy change:   -0.008146  1 .order   -0.008258   -0.008732   -0.007783
 step:   0.4749(harm=  1.0927)  dis= 0.02143  next Energy=   -46.219427 (dE=-0.402E-01)
 bond charge predicted
       N       E                     dE             d eps       ncg     rms          rms(c)
DAV:   1    -0.461993629663E+02   -0.11898E-01   -0.22416E+00 18560   0.116E+01    0.108E+00
DAV:   2    -0.462075386142E+02   -0.81756E-02   -0.21878E-01 18100   0.272E+00    0.437E-01
DAV:   3    -0.462051663373E+02    0.23723E-02   -0.89730E-03 27244   0.548E-01    0.242E-01
DAV:   4    -0.462045460243E+02    0.62031E-03   -0.21679E-03 28052   0.291E-01    0.184E-01
DAV:   5    -0.462045912480E+02   -0.45224E-04   -0.25000E-04 17716   0.891E-02
  46 F= -.46204591E+02 E0= -.46205323E+02  d E =-.253502E-01
 curvature:  -1.81 expect dE=-0.345E-01 dE for cont linesearch -0.578E-02
 ZBRENT: increasing intervall
 opt :   1.1872  next Energy=   -46.209276 (dE=-0.300E-01)
 bond charge predicted
       N       E                     dE             d eps       ncg     rms          rms(c)
DAV:   1    -0.461863130113E+02    0.18233E-01   -0.89737E+00 18560   0.231E+01    0.227E+00
DAV:   2    -0.462194328995E+02   -0.33120E-01   -0.86745E-01 18072   0.543E+00    0.883E-01
DAV:   3    -0.462096240678E+02    0.98088E-02   -0.35859E-02 27316   0.109E+00    0.473E-01
DAV:   4    -0.462071025461E+02    0.25215E-02   -0.86121E-03 27712   0.586E-01    0.357E-01
DAV:   5    -0.462072738298E+02   -0.17128E-03   -0.11239E-03 24560   0.184E-01    0.169E-01
DAV:   6    -0.462073349699E+02   -0.61140E-04   -0.40209E-04 22400   0.110E-01
  47 F= -.46207335E+02 E0= -.46208089E+02  d E =-.280939E-01
 curvature:  -1.47 expect dE=-0.657E-01 dE for cont linesearch -0.244E-02
 ZBRENT: bracketing found
 ZBRENT: interpolating
 opt :   0.8885  next Energy=   -46.211225 (dE=-0.320E-01)
 bond charge predicted
       N       E                     dE             d eps       ncg     rms          rms(c)
DAV:   1    -0.462079242599E+02   -0.65043E-03   -0.16068E+00 18552   0.980E+00    0.911E-01
DAV:   2    -0.462135481446E+02   -0.56239E-02   -0.15872E-01 18016   0.233E+00    0.379E-01
DAV:   3    -0.462117991231E+02    0.17490E-02   -0.65828E-03 26968   0.480E-01    0.207E-01
DAV:   4    -0.462112927616E+02    0.50636E-03   -0.15445E-03 26840   0.240E-01    0.153E-01
DAV:   5    -0.462113035183E+02   -0.10757E-04   -0.17380E-04 15400   0.734E-02
  48 F= -.46211304E+02 E0= -.46212057E+02  d E =-.320625E-01
 curvature:  -2.34 expect dE=-0.388E-01 dE for cont linesearch -0.840E-04
 trial: gam= 0.31323 g(F)=  0.113E-01 g(S)=  0.524E-02 ort =-0.383E-02 (trialstep = 0.273E+00)
 search vector abs. value=  0.542E-01
 bond charge predicted
       N       E                     dE             d eps       ncg     rms          rms(c)
DAV:   1    -0.462175750070E+02   -0.62822E-02   -0.15199E-01 16248   0.269E+00    0.511E-01
DAV:   2    -0.462160822069E+02    0.14928E-02   -0.17615E-02 22892   0.933E-01    0.178E-01
DAV:   3    -0.462155648844E+02    0.51732E-03   -0.15157E-03 24008   0.228E-01    0.109E-01
DAV:   4    -0.462153760677E+02    0.18882E-03   -0.57885E-04 24168   0.133E-01    0.118E-01
DAV:   5    -0.462154008293E+02   -0.24762E-04   -0.49116E-05  9612   0.389E-02
  49 F= -.46215401E+02 E0= -.46216155E+02  d E =-.409731E-02
 ZBRENT: can't locate minimum, use default step
 trial-energy change:   -0.004097  1 .order   -0.004167   -0.004195   -0.004140
 step:   1.0907(harm= 20.7183)  dis= 0.01362  next Energy=   -46.370678 (dE=-0.159E+00)
 bond charge predicted
       N       E                     dE             d eps       ncg     rms          rms(c)
DAV:   1    -0.462426148129E+02   -0.27239E-01   -0.13388E+00 16240   0.802E+00    0.157E+00
DAV:   2    -0.462285507959E+02    0.14064E-01   -0.14737E-01 21840   0.276E+00    0.524E-01
DAV:   3    -0.462241582568E+02    0.43925E-02   -0.12499E-02 23632   0.660E-01    0.306E-01
DAV:   4    -0.462227447836E+02    0.14135E-02   -0.53364E-03 29560   0.395E-01    0.338E-01
DAV:   5    -0.462229589152E+02   -0.21413E-03   -0.39910E-04 20228   0.958E-02    0.181E-01
DAV:   6    -0.462229850865E+02   -0.26171E-04   -0.87292E-04 27744   0.154E-01
  50 F= -.46222985E+02 E0= -.46223736E+02  d E =-.116816E-01
 curvature:  -2.86 expect dE=-0.240E-01 dE for cont linesearch -0.129E-02
 ZBRENT: extrapolating
 opt :   1.4852  next Energy=   -46.223959 (dE=-0.127E-01)
 bond charge predicted
       N       E                     dE             d eps       ncg     rms          rms(c)
DAV:   1    -0.462286411601E+02   -0.56822E-02   -0.31610E-01 16244   0.390E+00    0.749E-01
DAV:   2    -0.462253685662E+02    0.32726E-02   -0.34915E-02 21988   0.134E+00    0.249E-01
DAV:   3    -0.462243534150E+02    0.10152E-02   -0.29690E-03 24048   0.323E-01    0.153E-01
DAV:   4    -0.462240290134E+02    0.32440E-03   -0.12110E-03 28800   0.188E-01    0.170E-01
DAV:   5    -0.462240842921E+02   -0.55279E-04   -0.87752E-05 12580   0.469E-02
  51 F= -.46224084E+02 E0= -.46224831E+02  d E =-.127808E-01
 curvature:  -2.17 expect dE=-0.280E-01 dE for cont linesearch -0.344E-03
 trial: gam= 0.69494 g(F)=  0.105E-01 g(S)=  0.242E-02 ort = 0.294E-02 (trialstep = 0.515E+00)
 search vector abs. value=  0.432E-01
 bond charge predicted
       N       E                     dE             d eps       ncg     rms          rms(c)
DAV:   1    -0.462339086093E+02   -0.98796E-02   -0.39285E-01 16244   0.401E+00    0.692E-01
DAV:   2    -0.462299208651E+02    0.39877E-02   -0.29724E-02 22104   0.130E+00    0.292E-01
DAV:   3    -0.462289040484E+02    0.10168E-02   -0.25325E-03 23120   0.300E-01    0.160E-01
DAV:   4    -0.462285256591E+02    0.37839E-03   -0.11655E-03 27316   0.197E-01    0.142E-01
DAV:   5    -0.462285576086E+02   -0.31950E-04   -0.13036E-04 13620   0.550E-02
  52 F= -.46228558E+02 E0= -.46229296E+02  d E =-.447332E-02
 trial-energy change:   -0.004473  1 .order   -0.005296   -0.007716   -0.002875
 step:   0.8211(harm=  0.8211)  dis= 0.01053  next Energy=   -46.230234 (dE=-0.615E-02)
 bond charge predicted
       N       E                     dE             d eps       ncg     rms          rms(c)
DAV:   1    -0.462309600678E+02   -0.24344E-02   -0.13853E-01 16284   0.238E+00    0.406E-01
DAV:   2    -0.462295471608E+02    0.14129E-02   -0.10508E-02 22112   0.776E-01    0.174E-01
DAV:   3    -0.462291967053E+02    0.35046E-03   -0.89105E-04 23116   0.178E-01    0.964E-02
DAV:   4    -0.462290619193E+02    0.13479E-03   -0.36138E-04 17944   0.117E-01    0.891E-02
DAV:   5    -0.462290733816E+02   -0.11462E-04   -0.60153E-05 10884   0.534E-02
  53 F= -.46229073E+02 E0= -.46229805E+02  d E =-.498909E-02
 curvature:  -1.18 expect dE=-0.163E-01 dE for cont linesearch -0.894E-07
 trial: gam= 1.12200 g(F)=  0.119E-01 g(S)=  0.180E-02 ort =-0.571E-04 (trialstep = 0.366E+00)
 search vector abs. value=  0.680E-01
 bond charge predicted
       N       E                     dE             d eps       ncg     rms          rms(c)
DAV:   1    -0.462359344299E+02   -0.68725E-02   -0.31596E-01 16240   0.363E+00    0.441E-01
DAV:   2    -0.462341920144E+02    0.17424E-02   -0.20315E-02 22848   0.106E+00    0.256E-01
DAV:   3    -0.462336607242E+02    0.53129E-03   -0.14000E-03 23264   0.231E-01    0.140E-01
DAV:   4    -0.462334091967E+02    0.25153E-03   -0.60776E-04 21840   0.157E-01    0.884E-02
DAV:   5    -0.462334156093E+02   -0.64125E-05   -0.91677E-05 11432   0.600E-02
  54 F= -.46233416E+02 E0= -.46234135E+02  d E =-.434223E-02
 ZBRENT: can't locate minimum, use default step
 trial-energy change:   -0.004342  1 .order   -0.004602   -0.005003   -0.004201
 step:   1.4652(harm=  2.2852)  dis= 0.01772  next Energy=   -46.244678 (dE=-0.156E-01)
 bond charge predicted
       N       E                     dE             d eps       ncg     rms          rms(c)
DAV:   1    -0.462649939504E+02   -0.31585E-01   -0.28818E+00 16240   0.110E+01    0.132E+00
DAV:   2    -0.462494486049E+02    0.15545E-01   -0.18262E-01 22696   0.314E+00    0.759E-01
DAV:   3    -0.462445075863E+02    0.49410E-02   -0.12568E-02 23072   0.693E-01    0.415E-01
DAV:   4    -0.462421650797E+02    0.23425E-02   -0.58444E-03 26200   0.481E-01    0.261E-01
DAV:   5    -0.462422387872E+02   -0.73708E-04   -0.10675E-03 26812   0.155E-01    0.150E-01
DAV:   6    -0.462422747016E+02   -0.35914E-04   -0.12030E-04 12112   0.787E-02
  55 F= -.46242275E+02 E0= -.46242944E+02  d E =-.132013E-01
 curvature:  -4.65 expect dE=-0.797E-01 dE for cont linesearch -0.199E-02
 ZBRENT: increasing intervall
 opt :   3.6630  next Energy=   -46.240775 (dE=-0.117E-01)
 bond charge predicted
       N       E                     dE             d eps       ncg     rms          rms(c)
DAV:   1    -0.463345277819E+02   -0.92289E-01   -0.11755E+01 16240   0.221E+01    0.274E+00
DAV:   2    -0.462708020654E+02    0.63726E-01   -0.73187E-01 22648   0.628E+00    0.149E+00
DAV:   3    -0.462499012270E+02    0.20901E-01   -0.50239E-02 22948   0.139E+00    0.808E-01
DAV:   4    -0.462402054134E+02    0.96958E-02   -0.24817E-02 26644   0.995E-01    0.519E-01
DAV:   5    -0.462416152708E+02   -0.14099E-02   -0.42280E-03 26412   0.308E-01    0.302E-01
DAV:   6    -0.462406468438E+02    0.96843E-03   -0.79991E-04 28480   0.165E-01    0.702E-02
DAV:   7    -0.462417321633E+02   -0.10853E-02   -0.57442E-05 11456   0.537E-02    0.223E-02
DAV:   8    -0.462417326580E+02   -0.49471E-06   -0.18570E-05 11468   0.319E-02
  56 F= -.46241733E+02 E0= -.46241629E+02  d E =-.126593E-01
 curvature:   3.51 expect dE= 0.222E+00 dE for cont linesearch  0.222E-02
 ZBRENT: bracketing found
 ZBRENT: interpolating
 opt :   2.4561  next Energy=   -46.244947 (dE=-0.159E-01)
 bond charge predicted
       N       E                     dE             d eps       ncg     rms          rms(c)
DAV:   1    -0.462756270829E+02   -0.33895E-01   -0.35864E+00 16240   0.122E+01    0.154E+00
DAV:   2    -0.462546798525E+02    0.20947E-01   -0.23897E-01 23008   0.366E+00    0.868E-01
DAV:   3    -0.462479729463E+02    0.67069E-02   -0.17802E-02 23872   0.813E-01    0.469E-01
DAV:   4    -0.462459429501E+02    0.20300E-02   -0.69687E-03 24896   0.526E-01    0.309E-01
DAV:   5    -0.462459810380E+02   -0.38088E-04   -0.14453E-03 28628   0.173E-01    0.176E-01
DAV:   6    -0.462459930106E+02   -0.11973E-04   -0.15824E-04 14016   0.831E-02
  57 F= -.46245993E+02 E0= -.46245799E+02  d E =-.169196E-01
 curvature:  -4.21 expect dE=-0.135E+00 dE for cont linesearch -0.697E-05
 trial: gam= 1.75751 g(F)=  0.283E-01 g(S)=  0.376E-02 ort =-0.335E-03 (trialstep = 0.221E+00)
 search vector abs. value=  0.241E+00
 bond charge predicted
       N       E                     dE             d eps       ncg     rms          rms(c)
DAV:   1    -0.462514411248E+02   -0.54601E-02   -0.44099E-01 17344   0.466E+00    0.391E-01
DAV:   2    -0.462530305777E+02   -0.15895E-02   -0.32278E-02 19596   0.115E+00    0.256E-01
DAV:   3    -0.462512990629E+02    0.17315E-02   -0.14955E-03 23504   0.237E-01    0.141E-01
DAV:   4    -0.462510613912E+02    0.23767E-03   -0.51993E-04 20436   0.152E-01    0.575E-02
DAV:   5    -0.462510639592E+02   -0.25680E-05   -0.67993E-05 11212   0.562E-02
  58 F= -.46251064E+02 E0= -.46251689E+02  d E =-.507095E-02
 ZBRENT: can't locate minimum, use default step
 trial-energy change:   -0.005071  1 .order   -0.006341   -0.006974   -0.005707
 step:   0.8853(harm=  1.2185)  dis= 0.01999  next Energy=   -46.265190 (dE=-0.192E-01)
 bond charge predicted
       N       E                     dE             d eps       ncg     rms          rms(c)
DAV:   1    -0.462634870196E+02   -0.12426E-01   -0.39638E+00 16352   0.140E+01    0.118E+00
DAV:   2    -0.462676746528E+02   -0.41876E-02   -0.29664E-01 19376   0.349E+00    0.743E-01
DAV:   3    -0.462634458057E+02    0.42288E-02   -0.13491E-02 22784   0.708E-01    0.411E-01
DAV:   4    -0.462612715432E+02    0.21743E-02   -0.51726E-03 20648   0.486E-01    0.158E-01
DAV:   5    -0.462613410927E+02   -0.69550E-04   -0.92257E-04 27748   0.172E-01
  59 F= -.46261341E+02 E0= -.46261920E+02  d E =-.153481E-01
 curvature:  -4.14 expect dE=-0.798E-01 dE for cont linesearch -0.599E-03
 trial: gam= 0.46028 g(F)=  0.169E-01 g(S)=  0.241E-02 ort = 0.591E-02 (trialstep = 0.354E+00)
 search vector abs. value=  0.758E-01
 bond charge predicted
       N       E                     dE             d eps       ncg     rms          rms(c)
DAV:   1    -0.462653360172E+02   -0.40645E-02   -0.41903E-01 18568   0.492E+00    0.365E-01
DAV:   2    -0.462677300062E+02   -0.23940E-02   -0.41161E-02 18296   0.112E+00    0.185E-01
DAV:   3    -0.462673468439E+02    0.38316E-03   -0.13747E-03 24872   0.224E-01    0.105E-01
DAV:   4    -0.462672151117E+02    0.13173E-03   -0.39090E-04 17488   0.138E-01    0.296E-02
DAV:   5    -0.462672175825E+02   -0.24709E-05   -0.53732E-05 11512   0.593E-02
  60 F= -.46267218E+02 E0= -.46267778E+02  d E =-.587649E-02
 trial-energy change:   -0.005876  1 .order   -0.005964   -0.007794   -0.004135
 step:   0.7543(harm=  0.7543)  dis= 0.01158  next Energy=   -46.269642 (dE=-0.830E-02)
