Automatically generated mesh
     270
Reciprocal lattice
    0.00000000000000    0.00000000000000    0.00000000000000             1
    0.14285714285714    0.00000000000000    0.00000000000000             2
    0.28571428571429    0.00000000000000    0.00000000000000             2
    0.42857142857143    0.00000000000000    0.00000000000000             2
    0.00000000000000    0.14285714285714    0.00000000000000             2
    0.14285714285714    0.14285714285714    0.00000000000000             2
    0.28571428571429    0.14285714285714    0.00000000000000             2
    0.42857142857143    0.14285714285714    0.00000000000000             2
   -0.42857142857143    0.14285714285714    0.00000000000000             2
   -0.28571428571429    0.14285714285714    0.00000000000000             2
   -0.14285714285714    0.14285714285714    0.00000000000000             2
    0.00000000000000    0.28571428571429    0.00000000000000             2
    0.14285714285714    0.28571428571429    0.00000000000000             2
    0.28571428571429    0.28571428571429    0.00000000000000             2
    0.42857142857143    0.28571428571429    0.00000000000000             2
   -0.42857142857143    0.28571428571429    0.00000000000000             2
   -0.28571428571429    0.28571428571429    0.00000000000000             2
   -0.14285714285714    0.28571428571429    0.00000000000000             2
    0.00000000000000    0.42857142857143    0.00000000000000             2
    0.14285714285714    0.42857142857143    0.00000000000000             2
    0.28571428571429    0.42857142857143    0.00000000000000             2
    0.42857142857143    0.42857142857143    0.00000000000000             2
   -0.42857142857143    0.42857142857143    0.00000000000000             2
   -0.28571428571429    0.42857142857143    0.00000000000000             2
   -0.14285714285714    0.42857142857143    0.00000000000000             2
    0.00000000000000    0.00000000000000    0.09090909090909             2
    0.14285714285714    0.00000000000000    0.09090909090909             2
    0.28571428571429    0.00000000000000    0.09090909090909             2
    0.42857142857143    0.00000000000000    0.09090909090909             2
   -0.42857142857143    0.00000000000000    0.09090909090909             2
   -0.28571428571429    0.00000000000000    0.09090909090909             2
   -0.14285714285714    0.00000000000000    0.09090909090909             2
    0.00000000000000    0.14285714285714    0.09090909090909             2
    0.14285714285714    0.14285714285714    0.09090909090909             2
    0.28571428571429    0.14285714285714    0.09090909090909             2
    0.42857142857143    0.14285714285714    0.09090909090909             2
   -0.42857142857143    0.14285714285714    0.09090909090909             2
   -0.28571428571429    0.14285714285714    0.09090909090909             2
   -0.14285714285714    0.14285714285714    0.09090909090909             2
    0.00000000000000    0.28571428571429    0.09090909090909             2
    0.14285714285714    0.28571428571429    0.09090909090909             2
    0.28571428571429    0.28571428571429    0.09090909090909             2
    0.42857142857143    0.28571428571429    0.09090909090909             2
   -0.42857142857143    0.28571428571429    0.09090909090909             2
   -0.28571428571429    0.28571428571429    0.09090909090909             2
   -0.14285714285714    0.28571428571429    0.09090909090909             2
    0.00000000000000    0.42857142857143    0.09090909090909             2
    0.14285714285714    0.42857142857143    0.09090909090909             2
    0.28571428571429    0.42857142857143    0.09090909090909             2
    0.42857142857143    0.42857142857143    0.09090909090909             2
   -0.42857142857143    0.42857142857143    0.09090909090909             2
   -0.28571428571429    0.42857142857143    0.09090909090909             2
   -0.14285714285714    0.42857142857143    0.09090909090909             2
    0.00000000000000   -0.42857142857143    0.09090909090909             2
    0.14285714285714   -0.42857142857143    0.09090909090909             2
    0.28571428571429   -0.42857142857143    0.09090909090909             2
    0.42857142857143   -0.42857142857143    0.09090909090909             2
   -0.42857142857143   -0.42857142857143    0.09090909090909             2
   -0.28571428571429   -0.42857142857143    0.09090909090909             2
   -0.14285714285714   -0.42857142857143    0.09090909090909             2
    0.00000000000000   -0.28571428571429    0.09090909090909             2
    0.14285714285714   -0.28571428571429    0.09090909090909             2
    0.28571428571429   -0.28571428571429    0.09090909090909             2
    0.42857142857143   -0.28571428571429    0.09090909090909             2
   -0.42857142857143   -0.28571428571429    0.09090909090909             2
   -0.28571428571429   -0.28571428571429    0.09090909090909             2
   -0.14285714285714   -0.28571428571429    0.09090909090909             2
    0.00000000000000   -0.14285714285714    0.09090909090909             2
    0.14285714285714   -0.14285714285714    0.09090909090909             2
    0.28571428571429   -0.14285714285714    0.09090909090909             2
    0.42857142857143   -0.14285714285714    0.09090909090909             2
   -0.42857142857143   -0.14285714285714    0.09090909090909             2
   -0.28571428571429   -0.14285714285714    0.09090909090909             2
   -0.14285714285714   -0.14285714285714    0.09090909090909             2
    0.00000000000000    0.00000000000000    0.18181818181818             2
    0.14285714285714    0.00000000000000    0.18181818181818             2
    0.28571428571429    0.00000000000000    0.18181818181818             2
    0.42857142857143    0.00000000000000    0.18181818181818             2
   -0.42857142857143    0.00000000000000    0.18181818181818             2
   -0.28571428571429    0.00000000000000    0.18181818181818             2
   -0.14285714285714    0.00000000000000    0.18181818181818             2
    0.00000000000000    0.14285714285714    0.18181818181818             2
    0.14285714285714    0.14285714285714    0.18181818181818             2
    0.28571428571429    0.14285714285714    0.18181818181818             2
    0.42857142857143    0.14285714285714    0.18181818181818             2
   -0.42857142857143    0.14285714285714    0.18181818181818             2
   -0.28571428571429    0.14285714285714    0.18181818181818             2
   -0.14285714285714    0.14285714285714    0.18181818181818             2
    0.00000000000000    0.28571428571429    0.18181818181818             2
    0.14285714285714    0.28571428571429    0.18181818181818             2
    0.28571428571429    0.28571428571429    0.18181818181818             2
    0.42857142857143    0.28571428571429    0.18181818181818             2
   -0.42857142857143    0.28571428571429    0.18181818181818             2
   -0.28571428571429    0.28571428571429    0.18181818181818             2
   -0.14285714285714    0.28571428571429    0.18181818181818             2
    0.00000000000000    0.42857142857143    0.18181818181818             2
    0.14285714285714    0.42857142857143    0.18181818181818             2
    0.28571428571429    0.42857142857143    0.18181818181818             2
    0.42857142857143    0.42857142857143    0.18181818181818             2
   -0.42857142857143    0.42857142857143    0.18181818181818             2
   -0.28571428571429    0.42857142857143    0.18181818181818             2
   -0.14285714285714    0.42857142857143    0.18181818181818             2
    0.00000000000000   -0.42857142857143    0.18181818181818             2
    0.14285714285714   -0.42857142857143    0.18181818181818             2
    0.28571428571429   -0.42857142857143    0.18181818181818             2
    0.42857142857143   -0.42857142857143    0.18181818181818             2
   -0.42857142857143   -0.42857142857143    0.18181818181818             2
   -0.28571428571429   -0.42857142857143    0.18181818181818             2
   -0.14285714285714   -0.42857142857143    0.18181818181818             2
    0.00000000000000   -0.28571428571429    0.18181818181818             2
    0.14285714285714   -0.28571428571429    0.18181818181818             2
    0.28571428571429   -0.28571428571429    0.18181818181818             2
    0.42857142857143   -0.28571428571429    0.18181818181818             2
   -0.42857142857143   -0.28571428571429    0.18181818181818             2
   -0.28571428571429   -0.28571428571429    0.18181818181818             2
   -0.14285714285714   -0.28571428571429    0.18181818181818             2
    0.00000000000000   -0.14285714285714    0.18181818181818             2
    0.14285714285714   -0.14285714285714    0.18181818181818             2
    0.28571428571429   -0.14285714285714    0.18181818181818             2
    0.42857142857143   -0.14285714285714    0.18181818181818             2
   -0.42857142857143   -0.14285714285714    0.18181818181818             2
   -0.28571428571429   -0.14285714285714    0.18181818181818             2
   -0.14285714285714   -0.14285714285714    0.18181818181818             2
    0.00000000000000    0.00000000000000    0.27272727272727             2
    0.14285714285714    0.00000000000000    0.27272727272727             2
    0.28571428571429    0.00000000000000    0.27272727272727             2
    0.42857142857143    0.00000000000000    0.27272727272727             2
   -0.42857142857143    0.00000000000000    0.27272727272727             2
   -0.28571428571429    0.00000000000000    0.27272727272727             2
   -0.14285714285714    0.00000000000000    0.27272727272727             2
    0.00000000000000    0.14285714285714    0.27272727272727             2
    0.14285714285714    0.14285714285714    0.27272727272727             2
    0.28571428571429    0.14285714285714    0.27272727272727             2
    0.42857142857143    0.14285714285714    0.27272727272727             2
   -0.42857142857143    0.14285714285714    0.27272727272727             2
   -0.28571428571429    0.14285714285714    0.27272727272727             2
   -0.14285714285714    0.14285714285714    0.27272727272727             2
    0.00000000000000    0.28571428571429    0.27272727272727             2
    0.14285714285714    0.28571428571429    0.27272727272727             2
    0.28571428571429    0.28571428571429    0.27272727272727             2
    0.42857142857143    0.28571428571429    0.27272727272727             2
   -0.42857142857143    0.28571428571429    0.27272727272727             2
   -0.28571428571429    0.28571428571429    0.27272727272727             2
   -0.14285714285714    0.28571428571429    0.27272727272727             2
    0.00000000000000    0.42857142857143    0.27272727272727             2
    0.14285714285714    0.42857142857143    0.27272727272727             2
    0.28571428571429    0.42857142857143    0.27272727272727             2
    0.42857142857143    0.42857142857143    0.27272727272727             2
   -0.42857142857143    0.42857142857143    0.27272727272727             2
   -0.28571428571429    0.42857142857143    0.27272727272727             2
   -0.14285714285714    0.42857142857143    0.27272727272727             2
    0.00000000000000   -0.42857142857143    0.27272727272727             2
    0.14285714285714   -0.42857142857143    0.27272727272727             2
    0.28571428571429   -0.42857142857143    0.27272727272727             2
    0.42857142857143   -0.42857142857143    0.27272727272727             2
   -0.42857142857143   -0.42857142857143    0.27272727272727             2
   -0.28571428571429   -0.42857142857143    0.27272727272727             2
   -0.14285714285714   -0.42857142857143    0.27272727272727             2
    0.00000000000000   -0.28571428571429    0.27272727272727             2
    0.14285714285714   -0.28571428571429    0.27272727272727             2
    0.28571428571429   -0.28571428571429    0.27272727272727             2
    0.42857142857143   -0.28571428571429    0.27272727272727             2
   -0.42857142857143   -0.28571428571429    0.27272727272727             2
   -0.28571428571429   -0.28571428571429    0.27272727272727             2
   -0.14285714285714   -0.28571428571429    0.27272727272727             2
    0.00000000000000   -0.14285714285714    0.27272727272727             2
    0.14285714285714   -0.14285714285714    0.27272727272727             2
    0.28571428571429   -0.14285714285714    0.27272727272727             2
    0.42857142857143   -0.14285714285714    0.27272727272727             2
   -0.42857142857143   -0.14285714285714    0.27272727272727             2
   -0.28571428571429   -0.14285714285714    0.27272727272727             2
   -0.14285714285714   -0.14285714285714    0.27272727272727             2
    0.00000000000000    0.00000000000000    0.36363636363636             2
    0.14285714285714    0.00000000000000    0.36363636363636             2
    0.28571428571429    0.00000000000000    0.36363636363636             2
    0.42857142857143    0.00000000000000    0.36363636363636             2
   -0.42857142857143    0.00000000000000    0.36363636363636             2
   -0.28571428571429    0.00000000000000    0.36363636363636             2
   -0.14285714285714    0.00000000000000    0.36363636363636             2
    0.00000000000000    0.14285714285714    0.36363636363636             2
    0.14285714285714    0.14285714285714    0.36363636363636             2
    0.28571428571429    0.14285714285714    0.36363636363636             2
    0.42857142857143    0.14285714285714    0.36363636363636             2
   -0.42857142857143    0.14285714285714    0.36363636363636             2
   -0.28571428571429    0.14285714285714    0.36363636363636             2
   -0.14285714285714    0.14285714285714    0.36363636363636             2
    0.00000000000000    0.28571428571429    0.36363636363636             2
    0.14285714285714    0.28571428571429    0.36363636363636             2
    0.28571428571429    0.28571428571429    0.36363636363636             2
    0.42857142857143    0.28571428571429    0.36363636363636             2
   -0.42857142857143    0.28571428571429    0.36363636363636             2
   -0.28571428571429    0.28571428571429    0.36363636363636             2
   -0.14285714285714    0.28571428571429    0.36363636363636             2
    0.00000000000000    0.42857142857143    0.36363636363636             2
    0.14285714285714    0.42857142857143    0.36363636363636             2
    0.28571428571429    0.42857142857143    0.36363636363636             2
    0.42857142857143    0.42857142857143    0.36363636363636             2
   -0.42857142857143    0.42857142857143    0.36363636363636             2
   -0.28571428571429    0.42857142857143    0.36363636363636             2
   -0.14285714285714    0.42857142857143    0.36363636363636             2
    0.00000000000000   -0.42857142857143    0.36363636363636             2
    0.14285714285714   -0.42857142857143    0.36363636363636             2
    0.28571428571429   -0.42857142857143    0.36363636363636             2
    0.42857142857143   -0.42857142857143    0.36363636363636             2
   -0.42857142857143   -0.42857142857143    0.36363636363636             2
   -0.28571428571429   -0.42857142857143    0.36363636363636             2
   -0.14285714285714   -0.42857142857143    0.36363636363636             2
    0.00000000000000   -0.28571428571429    0.36363636363636             2
    0.14285714285714   -0.28571428571429    0.36363636363636             2
    0.28571428571429   -0.28571428571429    0.36363636363636             2
    0.42857142857143   -0.28571428571429    0.36363636363636             2
   -0.42857142857143   -0.28571428571429    0.36363636363636             2
   -0.28571428571429   -0.28571428571429    0.36363636363636             2
   -0.14285714285714   -0.28571428571429    0.36363636363636             2
    0.00000000000000   -0.14285714285714    0.36363636363636             2
    0.14285714285714   -0.14285714285714    0.36363636363636             2
    0.28571428571429   -0.14285714285714    0.36363636363636             2
    0.42857142857143   -0.14285714285714    0.36363636363636             2
   -0.42857142857143   -0.14285714285714    0.36363636363636             2
   -0.28571428571429   -0.14285714285714    0.36363636363636             2
   -0.14285714285714   -0.14285714285714    0.36363636363636             2
    0.00000000000000    0.00000000000000    0.45454545454546             2
    0.14285714285714    0.00000000000000    0.45454545454545             2
    0.28571428571429    0.00000000000000    0.45454545454546             2
    0.42857142857143    0.00000000000000    0.45454545454545             2
   -0.42857142857143    0.00000000000000    0.45454545454546             2
   -0.28571428571429    0.00000000000000    0.45454545454546             2
   -0.14285714285714    0.00000000000000    0.45454545454546             2
    0.00000000000000    0.14285714285714    0.45454545454546             2
    0.14285714285714    0.14285714285714    0.45454545454546             2
    0.28571428571429    0.14285714285714    0.45454545454546             2
    0.42857142857143    0.14285714285714    0.45454545454546             2
   -0.42857142857143    0.14285714285714    0.45454545454546             2
   -0.28571428571429    0.14285714285714    0.45454545454545             2
   -0.14285714285714    0.14285714285714    0.45454545454546             2
    0.00000000000000    0.28571428571429    0.45454545454546             2
    0.14285714285714    0.28571428571429    0.45454545454546             2
    0.28571428571429    0.28571428571429    0.45454545454546             2
    0.42857142857143    0.28571428571429    0.45454545454546             2
   -0.42857142857143    0.28571428571429    0.45454545454546             2
   -0.28571428571429    0.28571428571429    0.45454545454545             2
   -0.14285714285714    0.28571428571429    0.45454545454546             2
    0.00000000000000    0.42857142857143    0.45454545454546             2
    0.14285714285714    0.42857142857143    0.45454545454545             2
    0.28571428571429    0.42857142857143    0.45454545454546             2
    0.42857142857143    0.42857142857143    0.45454545454545             2
   -0.42857142857143    0.42857142857143    0.45454545454546             2
   -0.28571428571429    0.42857142857143    0.45454545454545             2
   -0.14285714285714    0.42857142857143    0.45454545454545             2
    0.00000000000000   -0.42857142857143    0.45454545454545             2
    0.14285714285714   -0.42857142857143    0.45454545454546             2
    0.28571428571429   -0.42857142857143    0.45454545454546             2
    0.42857142857143   -0.42857142857143    0.45454545454545             2
   -0.42857142857143   -0.42857142857143    0.45454545454546             2
   -0.28571428571429   -0.42857142857143    0.45454545454546             2
   -0.14285714285714   -0.42857142857143    0.45454545454546             2
    0.00000000000000   -0.28571428571429    0.45454545454546             2
    0.14285714285714   -0.28571428571429    0.45454545454546             2
    0.28571428571429   -0.28571428571429    0.45454545454546             2
    0.42857142857143   -0.28571428571429    0.45454545454545             2
   -0.42857142857143   -0.28571428571429    0.45454545454545             2
   -0.28571428571429   -0.28571428571429    0.45454545454545             2
   -0.14285714285714   -0.28571428571429    0.45454545454546             2
    0.00000000000000   -0.14285714285714    0.45454545454545             2
    0.14285714285714   -0.14285714285714    0.45454545454546             2
    0.28571428571429   -0.14285714285714    0.45454545454546             2
    0.42857142857143   -0.14285714285714    0.45454545454546             2
   -0.42857142857143   -0.14285714285714    0.45454545454545             2
   -0.28571428571429   -0.14285714285714    0.45454545454545             2
   -0.14285714285714   -0.14285714285714    0.45454545454546             2
