Automatically generated mesh
      74
Reciprocal lattice
    0.00000000000000    0.00000000000000    0.00000000000000             1
    0.14285714285714    0.00000000000000    0.00000000000000             2
    0.28571428571429    0.00000000000000    0.00000000000000             2
    0.42857142857143    0.00000000000000    0.00000000000000             2
    0.00000000000000    0.14285714285714    0.00000000000000             2
    0.14285714285714    0.14285714285714    0.00000000000000             2
    0.28571428571429    0.14285714285714    0.00000000000000             2
    0.42857142857143    0.14285714285714    0.00000000000000             2
   -0.42857142857143    0.14285714285714    0.00000000000000             2
   -0.28571428571429    0.14285714285714    0.00000000000000             2
   -0.14285714285714    0.14285714285714    0.00000000000000             2
    0.00000000000000    0.28571428571429    0.00000000000000             2
    0.14285714285714    0.28571428571429    0.00000000000000             2
    0.28571428571429    0.28571428571429    0.00000000000000             2
    0.42857142857143    0.28571428571429    0.00000000000000             2
   -0.42857142857143    0.28571428571429    0.00000000000000             2
   -0.28571428571429    0.28571428571429    0.00000000000000             2
   -0.14285714285714    0.28571428571429    0.00000000000000             2
    0.00000000000000    0.42857142857143    0.00000000000000             2
    0.14285714285714    0.42857142857143    0.00000000000000             2
    0.28571428571429    0.42857142857143    0.00000000000000             2
    0.42857142857143    0.42857142857143    0.00000000000000             2
   -0.42857142857143    0.42857142857143    0.00000000000000             2
   -0.28571428571429    0.42857142857143    0.00000000000000             2
   -0.14285714285714    0.42857142857143    0.00000000000000             2
    0.00000000000000    0.00000000000000    0.33333333333333             2
    0.14285714285714    0.00000000000000    0.33333333333333             2
    0.28571428571429    0.00000000000000    0.33333333333333             2
    0.42857142857143    0.00000000000000    0.33333333333333             2
   -0.42857142857143    0.00000000000000    0.33333333333333             2
   -0.28571428571428    0.00000000000000    0.33333333333333             2
   -0.14285714285714    0.00000000000000    0.33333333333333             2
    0.00000000000000    0.14285714285714    0.33333333333333             2
    0.14285714285714    0.14285714285714    0.33333333333333             2
    0.28571428571429    0.14285714285714    0.33333333333333             2
    0.42857142857143    0.14285714285714    0.33333333333333             2
   -0.42857142857143    0.14285714285714    0.33333333333333             2
   -0.28571428571428    0.14285714285714    0.33333333333333             2
   -0.14285714285714    0.14285714285714    0.33333333333333             2
    0.00000000000000    0.28571428571429    0.33333333333333             2
    0.14285714285714    0.28571428571429    0.33333333333333             2
    0.28571428571429    0.28571428571429    0.33333333333333             2
    0.42857142857143    0.28571428571429    0.33333333333333             2
   -0.42857142857143    0.28571428571429    0.33333333333333             2
   -0.28571428571429    0.28571428571429    0.33333333333333             2
   -0.14285714285714    0.28571428571429    0.33333333333333             2
    0.00000000000000    0.42857142857143    0.33333333333333             2
    0.14285714285714    0.42857142857143    0.33333333333333             2
    0.28571428571429    0.42857142857143    0.33333333333333             2
    0.42857142857143    0.42857142857143    0.33333333333333             2
   -0.42857142857143    0.42857142857143    0.33333333333333             2
   -0.28571428571429    0.42857142857143    0.33333333333333             2
   -0.14285714285714    0.42857142857143    0.33333333333333             2
    0.00000000000000   -0.42857142857143    0.33333333333333             2
    0.14285714285714   -0.42857142857143    0.33333333333333             2
    0.28571428571429   -0.42857142857143    0.33333333333333             2
    0.42857142857143   -0.42857142857143    0.33333333333333             2
   -0.42857142857143   -0.42857142857143    0.33333333333333             2
   -0.28571428571429   -0.42857142857143    0.33333333333333             2
   -0.14285714285714   -0.42857142857143    0.33333333333333             2
    0.00000000000000   -0.28571428571429    0.33333333333333             2
    0.14285714285714   -0.28571428571429    0.33333333333333             2
    0.28571428571429   -0.28571428571429    0.33333333333333             2
    0.42857142857143   -0.28571428571429    0.33333333333333             2
   -0.42857142857143   -0.28571428571429    0.33333333333333             2
   -0.28571428571428   -0.28571428571429    0.33333333333333             2
   -0.14285714285714   -0.28571428571429    0.33333333333333             2
    0.00000000000000   -0.14285714285714    0.33333333333333             2
    0.14285714285714   -0.14285714285714    0.33333333333333             2
    0.28571428571429   -0.14285714285714    0.33333333333333             2
    0.42857142857143   -0.14285714285714    0.33333333333333             2
   -0.42857142857143   -0.14285714285714    0.33333333333333             2
   -0.28571428571429   -0.14285714285714    0.33333333333333             2
   -0.14285714285714   -0.14285714285714    0.33333333333333             2
Tetrahedra
       438    0.00113378684807
         2         1         2         6        26
         2         1         5         6        26
         2         5         6        26        33
         2         2         6        26        27
         2         6        26        27        34
         2         6        26        33        34
         2         2         3         7        27
         2         2         6         7        27
         2         6         7        27        34
         2         3         7        27        28
         2         7        27        28        35
         2         7        27        34        35
         2         3         4         8        28
         2         3         7         8        28
         2         7         8        28        35
         2         4         8        28        29
         2         8        28        29        36
         2         8        28        35        36
         2         4         4         9        29
         2         4         8         9        29
         2         8         9        29        36
         2         4         9        29        30
         2         9        29        30        37
         2         9        29        36        37
         2         3         4        10        30
         2         4         9        10        30
         2         9        10        30        37
         2         3        10        30        31
         2        10        30        31        38
         2        10        30        37        38
         2         2         3        11        31
         2         3        10        11        31
         2        10        11        31        38
         2         2        11        31        32
         2        11        31        32        39
         2        11        31        38        39
         2         1         2         5        32
         2         2         5        11        32
         2         5        11        32        39
         2         1         5        26        32
         2         5        26        32        33
         2         5        32        33        39
         2         5         6        13        33
         2         5        12        13        33
         2        12        13        33        40
         2         6        13        33        34
         2        13        33        34        41
         2        13        33        40        41
         2         6         7        14        34
         2         6        13        14        34
         2        13        14        34        41
         2         7        14        34        35
         2        14        34        35        42
         2        14        34        41        42
         2         7         8        15        35
         2         7        14        15        35
         2        14        15        35        42
         2         8        15        35        36
         2        15        35        36        43
         2        15        35        42        43
         2         8         9        16        36
         2         8        15        16        36
         2        15        16        36        43
         2         9        16        36        37
         2        16        36        37        44
         2        16        36        43        44
         2         9        10        17        37
         2         9        16        17        37
         2        16        17        37        44
         2        10        17        37        38
         2        17        37        38        45
         2        17        37        44        45
         2        10        11        18        38
         2        10        17        18        38
         2        17        18        38        45
         2        11        18        38        39
         2        18        38        39        46
         2        18        38        45        46
         2         5        11        12        39
         2        11        12        18        39
         2        12        18        39        46
         2         5        12        33        39
         2        12        33        39        40
         2        12        39        40        46
         2        12        13        20        40
         2        12        19        20        40
         2        19        20        40        47
         2        13        20        40        41
         2        20        40        41        48
         2        20        40        47        48
         2        13        14        21        41
         2        13        20        21        41
         2        20        21        41        48
         2        14        21        41        42
         2        21        41        42        49
         2        21        41        48        49
         2        14        15        22        42
         2        14        21        22        42
         2        21        22        42        49
         2        15        22        42        43
         2        22        42        43        50
         2        22        42        49        50
         2        15        16        23        43
         2        15        22        23        43
         2        22        23        43        50
         2        16        23        43        44
         2        23        43        44        51
         2        23        43        50        51
         2        16        17        24        44
         2        16        23        24        44
         2        23        24        44        51
         2        17        24        44        45
         2        24        44        45        52
         2        24        44        51        52
         2        17        18        25        45
         2        17        24        25        45
         2        24        25        45        52
         2        18        25        45        46
         2        25        45        46        53
         2        25        45        52        53
         2        12        18        19        46
         2        18        19        25        46
         2        19        25        46        53
         2        12        19        40        46
         2        19        40        46        47
         2        19        46        47        53
         2        19        20        25        47
         2        19        19        25        47
         2        19        25        47        54
         2        20        25        47        48
         2        25        47        48        55
         2        25        47        54        55
         2        20        21        24        48
         2        20        24        25        48
         2        24        25        48        55
         2        21        24        48        49
         2        24        48        49        56
         2        24        48        55        56
         2        21        22        23        49
         2        21        23        24        49
         2        23        24        49        56
         2        22        23        49        50
         2        23        49        50        57
         2        23        49        56        57
         4        22        22        23        50
         2        22        23        50        57
         2        22        23        50        51
         2        22        50        51        58
         2        22        50        57        58
         2        21        23        24        51
         2        21        22        23        51
         2        21        22        51        58
         2        21        24        51        52
         2        21        51        52        59
         2        21        51        58        59
         2        20        24        25        52
         2        20        21        24        52
         2        20        21        52        59
         2        20        25        52        53
         2        20        52        53        60
         2        20        52        59        60
         2        19        19        25        53
         2        19        20        25        53
         2        19        20        53        60
         2        19        19        47        53
         2        19        47        53        54
         2        19        53        54        60
         2        18        19        25        54
         2        12        18        19        54
         2        12        18        54        61
         2        18        25        54        55
         2        18        54        55        62
         2        18        54        61        62
         2        17        24        25        55
         2        17        18        25        55
         2        17        18        55        62
         2        17        24        55        56
         2        17        55        56        63
         2        17        55        62        63
         2        16        23        24        56
         2        16        17        24        56
         2        16        17        56        63
         2        16        23        56        57
         2        16        56        57        64
         2        16        56        63        64
         2        15        22        23        57
         2        15        16        23        57
         2        15        16        57        64
         2        15        22        57        58
         2        15        57        58        65
         2        15        57        64        65
         2        14        21        22        58
         2        14        15        22        58
         2        14        15        58        65
         2        14        21        58        59
         2        14        58        59        66
         2        14        58        65        66
         2        13        20        21        59
         2        13        14        21        59
         2        13        14        59        66
         2        13        20        59        60
         2        13        59        60        67
         2        13        59        66        67
         2        12        19        20        60
         2        12        13        20        60
         2        12        13        60        67
         2        12        19        54        60
         2        12        54        60        61
         2        12        60        61        67
         2        11        12        18        61
         2         5        11        12        61
         2         5        11        61        68
         2        11        18        61        62
         2        11        61        62        69
         2        11        61        68        69
         2        10        17        18        62
         2        10        11        18        62
         2        10        11        62        69
         2        10        17        62        63
         2        10        62        63        70
         2        10        62        69        70
         2         9        16        17        63
         2         9        10        17        63
         2         9        10        63        70
         2         9        16        63        64
         2         9        63        64        71
         2         9        63        70        71
         2         8        15        16        64
         2         8         9        16        64
         2         8         9        64        71
         2         8        15        64        65
         2         8        64        65        72
         2         8        64        71        72
         2         7        14        15        65
         2         7         8        15        65
         2         7         8        65        72
         2         7        14        65        66
         2         7        65        66        73
         2         7        65        72        73
         2         6        13        14        66
         2         6         7        14        66
         2         6         7        66        73
         2         6        13        66        67
         2         6        66        67        74
         2         6        66        73        74
         2         5        12        13        67
         2         5         6        13        67
         2         5         6        67        74
         2         5        12        61        67
         2         5        61        67        68
         2         5        67        68        74
         2         2         5        11        68
         2         1         2         5        68
         2         1         2        26        68
         2         2        11        68        69
         2         2        27        68        69
         2         2        26        27        68
         2         3        10        11        69
         2         2         3        11        69
         2         2         3        27        69
         2         3        10        69        70
         2         3        28        69        70
         2         3        27        28        69
         2         4         9        10        70
         2         3         4        10        70
         2         3         4        28        70
         2         4         9        70        71
         2         4        29        70        71
         2         4        28        29        70
         2         4         8         9        71
         2         4         4         9        71
         2         4         4        29        71
         2         4         8        71        72
         2         4        30        71        72
         2         4        29        30        71
         2         3         7         8        72
         2         3         4         8        72
         2         3         4        30        72
         2         3         7        72        73
         2         3        31        72        73
         2         3        30        31        72
         2         2         6         7        73
         2         2         3         7        73
         2         2         3        31        73
         2         2         6        73        74
         2         2        32        73        74
         2         2        31        32        73
         2         1         5         6        74
         2         1         2         6        74
         2         1         2        32        74
         2         1         5        68        74
         2         1        26        68        74
         2         1        26        32        74
         2        26        26        27        34
         2        26        26        33        34
         2        26        33        34        68
         2        26        27        32        34
         2        26        32        34        74
         2        26        34        68        74
         2        27        28        32        35
         2        27        32        34        35
         2        32        34        35        74
         2        28        31        32        35
         2        31        32        35        73
         2        32        35        73        74
         2        28        29        31        36
         2        28        31        35        36
         2        31        35        36        73
         2        29        30        31        36
         2        30        31        36        72
         2        31        36        72        73
         4        29        30        30        37
         2        29        30        36        37
         2        30        36        37        72
         2        29        30        37        71
         2        30        37        71        72
         2        29        30        31        38
         2        29        30        37        38
         2        29        37        38        71
         2        28        29        31        38
         2        28        29        38        70
         2        29        38        70        71
         2        28        31        32        39
         2        28        31        38        39
         2        28        38        39        70
         2        27        28        32        39
         2        27        28        39        69
         2        28        39        69        70
         2        26        27        32        33
         2        27        32        33        39
         2        27        33        39        69
         2        26        26        27        33
         2        26        27        33        68
         2        27        33        68        69
         2        33        34        41        68
         2        33        40        41        68
         2        40        41        61        68
         2        34        41        68        74
         2        41        67        68        74
         2        41        61        67        68
         2        34        35        42        74
         2        34        41        42        74
         2        41        42        67        74
         2        35        42        73        74
         2        42        66        73        74
         2        42        66        67        74
         2        35        36        43        73
         2        35        42        43        73
         2        42        43        66        73
         2        36        43        72        73
         2        43        65        72        73
         2        43        65        66        73
         2        36        37        44        72
         2        36        43        44        72
         2        43        44        65        72
         2        37        44        71        72
         2        44        64        71        72
         2        44        64        65        72
         2        37        38        45        71
         2        37        44        45        71
         2        44        45        64        71
         2        38        45        70        71
         2        45        63        70        71
         2        45        63        64        71
         2        38        39        46        70
         2        38        45        46        70
         2        45        46        63        70
         2        39        46        69        70
         2        46        62        69        70
         2        46        62        63        70
         2        33        39        40        69
         2        39        40        46        69
         2        40        46        62        69
         2        33        40        68        69
         2        40        61        68        69
         2        40        61        62        69
         2        40        41        48        61
         2        40        47        48        61
         2        47        48        54        61
         2        41        48        61        67
         2        48        60        61        67
         2        48        54        60        61
         2        41        42        49        67
         2        41        48        49        67
         2        48        49        60        67
         2        42        49        66        67
         2        49        59        66        67
         2        49        59        60        67
         2        42        43        50        66
         2        42        49        50        66
         2        49        50        59        66
         2        43        50        65        66
         2        50        58        65        66
         2        50        58        59        66
         2        43        44        51        65
         2        43        50        51        65
         2        50        51        58        65
         2        44        51        64        65
         2        51        57        64        65
         2        51        57        58        65
         2        44        45        52        64
         2        44        51        52        64
         2        51        52        57        64
         2        45        52        63        64
         2        52        56        63        64
         2        52        56        57        64
         2        45        46        53        63
         2        45        52        53        63
         2        52        53        56        63
         2        46        53        62        63
         2        53        55        62        63
         2        53        55        56        63
         2        40        46        47        62
         2        46        47        53        62
         2        47        53        55        62
         2        40        47        61        62
         2        47        54        61        62
         2        47        54        55        62
         2        47        48        54        55
         4        47        54        54        55
         2        48        54        55        60
         2        53        54        55        60
         2        47        53        54        55
         2        48        49        56        60
         2        48        55        56        60
         2        53        55        56        60
         2        49        56        59        60
         2        52        56        59        60
         2        52        53        56        60
         2        49        50        57        59
         2        49        56        57        59
         2        52        56        57        59
         2        50        57        58        59
         2        51        57        58        59
         2        51        52        57        59
         2        50        51        58        58
         2        50        57        58        58
         2        51        57        58        58
