       N       E                     dE             d eps       ncg     rms          rms(c)
DAV:   1     0.145955217266E+03    0.14596E+03   -0.14117E+04  6144   0.852E+02
DAV:   2    -0.340513148384E+02   -0.18001E+03   -0.16667E+03  7200   0.242E+02
DAV:   3    -0.431623740564E+02   -0.91111E+01   -0.90408E+01 11840   0.490E+01
DAV:   4    -0.432282703155E+02   -0.65896E-01   -0.65892E-01  6304   0.335E+00
DAV:   5    -0.432291530546E+02   -0.88274E-03   -0.88272E-03  9952   0.394E-01    0.371E+01
RMM:   6    -0.441526293258E+02   -0.92348E+00   -0.38271E+00  6711   0.833E+00    0.161E+01
RMM:   7    -0.435928641823E+02    0.55977E+00   -0.76899E-01  6678   0.465E+00    0.757E+00
RMM:   8    -0.435808734902E+02    0.11991E-01   -0.16984E-01  6413   0.284E+00    0.337E+00
RMM:   9    -0.435876327331E+02   -0.67592E-02   -0.46926E-02  6410   0.158E+00    0.158E+00
RMM:  10    -0.435917329865E+02   -0.41003E-02   -0.11392E-02  6219   0.765E-01    0.755E-01
RMM:  11    -0.435928781203E+02   -0.11451E-02   -0.23006E-03  5641   0.379E-01    0.253E-01
RMM:  12    -0.435931874711E+02   -0.30935E-03   -0.82476E-04  4969   0.192E-01
   1 F= -.43593187E+02 E0= -.43593187E+02  d E =-.435932E+02  mag=    -0.0001
       N       E                     dE             d eps       ncg     rms          rms(c)
DAV:   1    -0.437678979330E+02   -0.17502E+00   -0.23969E+00  9120   0.104E+01    0.441E+00
RMM:   2    -0.436629480439E+02    0.10495E+00   -0.26578E-01  6490   0.285E+00    0.924E-01
RMM:   3    -0.436436818286E+02    0.19266E-01   -0.21750E-02  6550   0.126E+00    0.869E-01
RMM:   4    -0.436399671636E+02    0.37147E-02   -0.71561E-03  6186   0.600E-01    0.811E-01
RMM:   5    -0.436395748107E+02    0.39235E-03   -0.33045E-03  5927   0.474E-01
   2 F= -.43639575E+02 E0= -.43639575E+02  d E =-.463873E-01  mag=    -0.0000
       N       E                     dE             d eps       ncg     rms          rms(c)
DAV:   1    -0.443074313001E+02   -0.66746E+00   -0.12094E+01  6560   0.234E+01    0.994E+00
RMM:   2    -0.437764148985E+02    0.53102E+00   -0.13642E+00  6399   0.644E+00    0.221E+00
RMM:   3    -0.436586196752E+02    0.11780E+00   -0.11133E-01  6451   0.279E+00    0.200E+00
RMM:   4    -0.436411026259E+02    0.17517E-01   -0.34504E-02  6581   0.126E+00    0.208E+00
RMM:   5    -0.436388128586E+02    0.22898E-02   -0.23549E-02  7193   0.114E+00    0.477E-01
RMM:   6    -0.436390705552E+02   -0.25770E-03   -0.17983E-02  7092   0.536E-01    0.132E-01
RMM:   7    -0.436395155685E+02   -0.44501E-03   -0.36753E-03  6125   0.431E-01
   3 F= -.43639516E+02 E0= -.43639516E+02  d E =-.463281E-01  mag=    -0.0000
       N       E                     dE             d eps       ncg     rms          rms(c)
DAV:   1    -0.437787270388E+02   -0.13966E+00   -0.21247E+00  8608   0.948E+00    0.397E+00
RMM:   2    -0.436792321210E+02    0.99495E-01   -0.23456E-01  6452   0.273E+00    0.908E-01
RMM:   3    -0.436616194375E+02    0.17613E-01   -0.21286E-02  6624   0.124E+00    0.714E-01
RMM:   4    -0.436566756575E+02    0.49438E-02   -0.91832E-03  6357   0.656E-01    0.636E-01
RMM:   5    -0.436564837236E+02    0.19193E-03   -0.30589E-03  5745   0.447E-01
   4 F= -.43656484E+02 E0= -.43656484E+02  d E =-.632963E-01  mag=     0.0000
       N       E                     dE             d eps       ncg     rms          rms(c)
DAV:   1    -0.436829073639E+02   -0.26232E-01   -0.16620E+00  7680   0.940E+00    0.231E+00
RMM:   2    -0.436740578159E+02    0.88495E-02   -0.75721E-02  6724   0.141E+00    0.882E-01
RMM:   3    -0.436699359154E+02    0.41219E-02   -0.89703E-03  6568   0.731E-01    0.321E-01
RMM:   4    -0.436701825876E+02   -0.24667E-03   -0.48139E-03  5838   0.320E-01
   5 F= -.43670183E+02 E0= -.43670183E+02  d E =-.136989E-01  mag=    -0.0000
       N       E                     dE             d eps       ncg     rms          rms(c)
DAV:   1    -0.436710602953E+02   -0.11244E-02   -0.41215E-02 10480   0.149E+00    0.265E-01
RMM:   2    -0.436710217668E+02    0.38529E-04   -0.14761E-03  4852   0.205E-01
   6 F= -.43671022E+02 E0= -.43671022E+02  d E =-.145380E-01  mag=     0.0000
       N       E                     dE             d eps       ncg     rms          rms(c)
DAV:   1    -0.436837963118E+02   -0.12736E-01   -0.10223E+00  7680   0.772E+00    0.644E-01
RMM:   2    -0.436809756699E+02    0.28206E-02   -0.56055E-02  6440   0.117E+00    0.244E-01
RMM:   3    -0.436794869980E+02    0.14887E-02   -0.24599E-03  5552   0.552E-01    0.410E-01
RMM:   4    -0.436794903620E+02   -0.33639E-05   -0.41560E-04  4654   0.152E-01
   7 F= -.43679490E+02 E0= -.43679490E+02  d E =-.846860E-02  mag=     0.0000
       N       E                     dE             d eps       ncg     rms          rms(c)
DAV:   1    -0.436796235613E+02   -0.13656E-03   -0.21911E-02 10624   0.116E+00    0.234E-01
RMM:   2    -0.436796106286E+02    0.12933E-04   -0.10458E-03  4514   0.173E-01
   8 F= -.43679611E+02 E0= -.43679611E+02  d E =-.858886E-02  mag=    -0.0000
       N       E                     dE             d eps       ncg     rms          rms(c)
DAV:   1    -0.436998327494E+02   -0.20209E-01   -0.38481E-01  6144   0.385E+00    0.109E+00
RMM:   2    -0.436888393434E+02    0.10993E-01   -0.31516E-02  6500   0.104E+00    0.411E-01
RMM:   3    -0.436872424760E+02    0.15969E-02   -0.23450E-03  5784   0.455E-01    0.272E-01
RMM:   4    -0.436870044989E+02    0.23798E-03   -0.12564E-03  5132   0.241E-01
   9 F= -.43687004E+02 E0= -.43687004E+02  d E =-.739387E-02  mag=    -0.0000
       N       E                     dE             d eps       ncg     rms          rms(c)
DAV:   1    -0.438068771005E+02   -0.11963E+00   -0.34546E+00  6144   0.115E+01    0.330E+00
RMM:   2    -0.437097559630E+02    0.97121E-01   -0.27684E-01  6470   0.311E+00    0.127E+00
RMM:   3    -0.436950747320E+02    0.14681E-01   -0.23334E-02  6446   0.145E+00    0.870E-01
RMM:   4    -0.436928930829E+02    0.21816E-02   -0.11466E-02  6486   0.635E-01    0.844E-01
RMM:   5    -0.436935814826E+02   -0.68840E-03   -0.65290E-03  6376   0.460E-01    0.387E-01
RMM:   6    -0.436938498571E+02   -0.26837E-03   -0.27018E-03  6018   0.241E-01
  10 F= -.43693850E+02 E0= -.43693850E+02  d E =-.142392E-01  mag=    -0.0000
       N       E                     dE             d eps       ncg     rms          rms(c)
DAV:   1    -0.437135675955E+02   -0.19986E-01   -0.58579E-01  8608   0.548E+00    0.131E+00
RMM:   2    -0.437007569587E+02    0.12811E-01   -0.46153E-02  6666   0.114E+00    0.369E-01
RMM:   3    -0.436984099441E+02    0.23470E-02   -0.35716E-03  6268   0.451E-01    0.229E-01
RMM:   4    -0.436982075997E+02    0.20234E-03   -0.26074E-03  5528   0.264E-01
  11 F= -.43698208E+02 E0= -.43698208E+02  d E =-.435774E-02  mag=    -0.0000
       N       E                     dE             d eps       ncg     rms          rms(c)
DAV:   1    -0.437265498710E+02   -0.28140E-01   -0.10690E+00  7680   0.738E+00    0.171E+00
RMM:   2    -0.437023649195E+02    0.24185E-01   -0.83752E-02  6656   0.155E+00    0.535E-01
RMM:   3    -0.436978190582E+02    0.45459E-02   -0.72427E-03  6532   0.625E-01    0.371E-01
RMM:   4    -0.436973971385E+02    0.42192E-03   -0.55348E-03  5794   0.351E-01    0.371E-01
RMM:   5    -0.436977544004E+02   -0.35726E-03   -0.11068E-03  5318   0.265E-01
  12 F= -.43697754E+02 E0= -.43697754E+02  d E =-.390454E-02  mag=     0.0000
