   10   10   99    2
  0.8135763E+01  0.3356646E-09  0.4355742E-09  0.5871822E-09  0.5000000E-15
  1.000000000000000E-004
  CAR 
 unknown system                          
     29     71     32
 
  0.3742002E-15  0.3742002E-15  0.3742002E-15  0.7142857E-02
    1      -33.299845    -33.299848   1.000000   1.000000
    2      -29.150211    -29.150211   1.000000   1.000000
    3      -28.976453    -28.976454   1.000000   1.000000
    4      -28.967301    -28.967301   1.000000   1.000000
    5      -15.321041    -15.321042   1.000000   1.000000
    6      -15.318143    -15.318144   1.000000   1.000000
    7      -15.055929    -15.055931   1.000000   1.000000
    8       -7.221395     -7.221395   1.000000   1.000000
    9       -4.489798     -4.489798   1.000000   1.000000
   10       -2.409422     -2.409423   1.000000   1.000000
   11       -1.732819     -1.732819   1.000000   1.000000
   12       -1.100576     -1.100577   1.000000   1.000000
   13       -0.730842     -0.730842   1.000000   1.000000
   14        0.835085      0.835085   1.000000   1.000000
   15        3.059892      3.059892   0.000000   0.000000
   16        3.370700      3.370699   0.000000   0.000000
   17        3.744157      3.744157   0.000000   0.000000
   18        5.377012      5.377012   0.000000   0.000000
   19        5.557870      5.557870   0.000000   0.000000
   20        7.676983      7.676982   0.000000   0.000000
   21        7.768217      7.768217   0.000000   0.000000
   22        8.304625      8.304624   0.000000   0.000000
   23        8.648448      8.648447   0.000000   0.000000
   24        8.886760      8.886760   0.000000   0.000000
   25        9.073887      9.073887   0.000000   0.000000
   26        9.674649      9.674649   0.000000   0.000000
   27       10.635915     10.635914   0.000000   0.000000
   28       11.116965     11.116965   0.000000   0.000000
   29       11.963013     11.963012   0.000000   0.000000
   30       13.367197     13.367197   0.000000   0.000000
   31       13.649925     13.649924   0.000000   0.000000
   32       15.258064     15.258064   0.000000   0.000000
 
  0.1428571E+00  0.3686287E-15  0.3764350E-15  0.1428571E-01
    1      -33.284990    -33.284993   1.000000   1.000000
    2      -29.144864    -29.144864   1.000000   1.000000
    3      -29.009496    -29.009495   1.000000   1.000000
    4      -28.972903    -28.972904   1.000000   1.000000
    5      -15.301085    -15.301086   1.000000   1.000000
    6      -15.292442    -15.292443   1.000000   1.000000
    7      -15.229361    -15.229362   1.000000   1.000000
    8       -6.982907     -6.982908   1.000000   1.000000
    9       -4.225684     -4.225684   1.000000   1.000000
   10       -2.378583     -2.378583   1.000000   1.000000
   11       -1.625857     -1.625857   1.000000   1.000000
   12       -1.239473     -1.239473   1.000000   1.000000
   13       -0.715753     -0.715753   1.000000   1.000000
   14        0.211328      0.211328   1.000000   1.000000
   15        2.791091      2.791091  -0.060362  -0.060362
   16        3.634296      3.634296   0.000000   0.000000
   17        4.237878      4.237877   0.000000   0.000000
   18        5.075761      5.075760   0.000000   0.000000
   19        5.977332      5.977332   0.000000   0.000000
   20        7.137684      7.137683   0.000000   0.000000
   21        7.374904      7.374904   0.000000   0.000000
   22        7.797557      7.797557   0.000000   0.000000
   23        7.925619      7.925619   0.000000   0.000000
   24        8.914038      8.914038   0.000000   0.000000
   25        9.330865      9.330864   0.000000   0.000000
   26       10.480936     10.480936   0.000000   0.000000
   27       10.629014     10.629014   0.000000   0.000000
   28       11.446142     11.446142   0.000000   0.000000
   29       12.214562     12.214562   0.000000   0.000000
   30       13.322508     13.322507   0.000000   0.000000
   31       13.908918     13.908917   0.000000   0.000000
   32       15.264814     15.264814   0.000000   0.000000
 
  0.2857143E+00  0.3729655E-15  0.3677614E-15  0.1428571E-01
    1      -33.251341    -33.251344   1.000000   1.000000
    2      -29.132914    -29.132914   1.000000   1.000000
    3      -29.102789    -29.102789   1.000000   1.000000
    4      -28.965063    -28.965064   1.000000   1.000000
    5      -15.597460    -15.597461   1.000000   1.000000
    6      -15.255172    -15.255174   1.000000   1.000000
    7      -15.232893    -15.232895   1.000000   1.000000
    8       -6.357124     -6.357124   1.000000   1.000000
    9       -3.632910     -3.632911   1.000000   1.000000
   10       -2.476593     -2.476593   1.000000   1.000000
   11       -1.595234     -1.595234   1.000000   1.000000
   12       -1.472779     -1.472779   1.000000   1.000000
   13       -0.729017     -0.729017   1.000000   1.000000
   14       -0.418870     -0.418870   1.000000   1.000000
   15        1.918468      1.918467   0.772859   0.772859
   16        4.325843      4.325843   0.000000   0.000000
   17        4.391831      4.391831   0.000000   0.000000
   18        5.425520      5.425520   0.000000   0.000000
   19        5.786696      5.786696   0.000000   0.000000
   20        6.670160      6.670159   0.000000   0.000000
   21        6.910713      6.910712   0.000000   0.000000
   22        8.003580      8.003580   0.000000   0.000000
   23        8.218725      8.218725   0.000000   0.000000
   24        8.266069      8.266068   0.000000   0.000000
   25        9.020470      9.020469   0.000000   0.000000
   26        9.780108      9.780108   0.000000   0.000000
   27       10.820865     10.820865   0.000000   0.000000
   28       11.832342     11.832342   0.000000   0.000000
   29       12.878015     12.878015   0.000000   0.000000
   30       12.958112     12.958111   0.000000   0.000000
   31       14.321885     14.321885   0.000000   0.000000
   32       15.797176     15.797176   0.000000   0.000000
 
  0.4285714E+00  0.3642919E-15  0.3747003E-15  0.1428571E-01
    1      -33.224079    -33.224082   1.000000   1.000000
    2      -29.176671    -29.176670   1.000000   1.000000
    3      -29.123022    -29.123023   1.000000   1.000000
    4      -28.958745    -28.958746   1.000000   1.000000
    5      -15.872706    -15.872707   1.000000   1.000000
    6      -15.218156    -15.218158   1.000000   1.000000
    7      -15.184368    -15.184369   1.000000   1.000000
    8       -5.631225     -5.631225   1.000000   1.000000
    9       -3.632489     -3.632489   1.000000   1.000000
   10       -2.252849     -2.252849   1.000000   1.000000
   11       -1.888893     -1.888893   1.000000   1.000000
   12       -1.702477     -1.702477   1.000000   1.000000
   13       -0.684816     -0.684816   1.000000   1.000000
   14       -0.473802     -0.473802   1.000000   1.000000
   15        1.294589      1.294589   1.000000   1.000000
   16        4.208459      4.208459   0.000000   0.000000
   17        5.023785      5.023785   0.000000   0.000000
   18        5.330128      5.330128   0.000000   0.000000
   19        5.573807      5.573807   0.000000   0.000000
   20        6.240269      6.240269   0.000000   0.000000
   21        7.118082      7.118081   0.000000   0.000000
   22        7.894375      7.894374   0.000000   0.000000
   23        8.174019      8.174018   0.000000   0.000000
   24        8.585912      8.585912   0.000000   0.000000
   25        9.038925      9.038925   0.000000   0.000000
   26       10.454583     10.454583   0.000000   0.000000
   27       10.644615     10.644615   0.000000   0.000000
   28       11.293154     11.293154   0.000000   0.000000
   29       12.246327     12.246326   0.000000   0.000000
   30       13.074223     13.074222   0.000000   0.000000
   31       13.579458     13.579458   0.000000   0.000000
   32       15.900097     15.900097   0.000000   0.000000
 
  0.3790371E-15  0.2000000E+00  0.3747003E-15  0.1428571E-01
    1      -33.298605    -33.298608   1.000000   1.000000
    2      -29.153868    -29.153868   1.000000   1.000000
    3      -28.976124    -28.976124   1.000000   1.000000
    4      -28.967146    -28.967146   1.000000   1.000000
    5      -15.377778    -15.377780   1.000000   1.000000
    6      -15.309042    -15.309043   1.000000   1.000000
    7      -15.054253    -15.054254   1.000000   1.000000
    8       -6.922887     -6.922887   1.000000   1.000000
    9       -4.575202     -4.575202   1.000000   1.000000
   10       -2.449492     -2.449492   1.000000   1.000000
   11       -1.997491     -1.997491   1.000000   1.000000
   12       -1.050382     -1.050382   1.000000   1.000000
   13       -0.568822     -0.568822   1.000000   1.000000
   14        0.871315      0.871315   1.000000   1.000000
   15        3.001691      3.001691   0.000000   0.000000
   16        3.356030      3.356029   0.000000   0.000000
   17        3.539958      3.539958   0.000000   0.000000
   18        5.395543      5.395543   0.000000   0.000000
   19        5.843730      5.843730   0.000000   0.000000
   20        7.159597      7.159597   0.000000   0.000000
   21        7.390080      7.390079   0.000000   0.000000
   22        8.194660      8.194659   0.000000   0.000000
   23        8.302812      8.302811   0.000000   0.000000
   24        8.648735      8.648735   0.000000   0.000000
   25        9.373571      9.373570   0.000000   0.000000
   26       10.112744     10.112744   0.000000   0.000000
   27       10.814625     10.814624   0.000000   0.000000
   28       11.958635     11.958635   0.000000   0.000000
   29       12.581611     12.581611   0.000000   0.000000
   30       13.090212     13.090212   0.000000   0.000000
   31       13.873105     13.873105   0.000000   0.000000
   32       15.408372     15.408372   0.000000   0.000000
 
  0.1428571E+00  0.2000000E+00  0.4024558E-15  0.1428571E-01
    1      -33.283756    -33.283760   1.000000   1.000000
    2      -29.148489    -29.148489   1.000000   1.000000
    3      -29.009331    -29.009330   1.000000   1.000000
    4      -28.972589    -28.972590   1.000000   1.000000
    5      -15.355352    -15.355354   1.000000   1.000000
    6      -15.283650    -15.283651   1.000000   1.000000
    7      -15.225922    -15.225923   1.000000   1.000000
    8       -6.709163     -6.709163   1.000000   1.000000
    9       -4.294134     -4.294135   1.000000   1.000000
   10       -2.352795     -2.352796   1.000000   1.000000
   11       -1.970420     -1.970420   1.000000   1.000000
   12       -1.067102     -1.067102   1.000000   1.000000
   13       -0.659022     -0.659022   1.000000   1.000000
   14        0.184249      0.184249   1.000000   1.000000
   15        2.794864      2.794864  -0.058402  -0.058402
   16        3.333177      3.333177   0.000000   0.000000
   17        4.238681      4.238681   0.000000   0.000000
   18        5.147391      5.147391   0.000000   0.000000
   19        5.939920      5.939920   0.000000   0.000000
   20        6.990986      6.990986   0.000000   0.000000
   21        7.315499      7.315499   0.000000   0.000000
   22        7.872917      7.872916   0.000000   0.000000
   23        8.365044      8.365043   0.000000   0.000000
   24        8.957974      8.957974   0.000000   0.000000
   25        9.137508      9.137508   0.000000   0.000000
   26        9.902926      9.902926   0.000000   0.000000
   27       10.817725     10.817725   0.000000   0.000000
   28       12.076525     12.076524   0.000000   0.000000
   29       12.367739     12.367739   0.000000   0.000000
   30       13.627159     13.627158   0.000000   0.000000
   31       13.936493     13.936493   0.000000   0.000000
   32       15.220523     15.220522   0.000000   0.000000
 
  0.2857143E+00  0.2000000E+00  0.3885781E-15  0.1428571E-01
    1      -33.250118    -33.250121   1.000000   1.000000
    2      -29.136449    -29.136449   1.000000   1.000000
    3      -29.102629    -29.102628   1.000000   1.000000
    4      -28.964780    -28.964781   1.000000   1.000000
    5      -15.591630    -15.591631   1.000000   1.000000
    6      -15.302626    -15.302628   1.000000   1.000000
    7      -15.225085    -15.225086   1.000000   1.000000
    8       -6.150598     -6.150598   1.000000   1.000000
    9       -3.633106     -3.633106   1.000000   1.000000
   10       -2.413059     -2.413059   1.000000   1.000000
   11       -1.880052     -1.880052   1.000000   1.000000
   12       -1.268819     -1.268819   1.000000   1.000000
   13       -0.724024     -0.724024   1.000000   1.000000
   14       -0.618450     -0.618451   1.000000   1.000000
   15        1.912673      1.912673   0.779748   0.779748
   16        3.663218      3.663218   0.000000   0.000000
   17        4.551139      4.551139   0.000000   0.000000
   18        5.511148      5.511148   0.000000   0.000000
   19        6.246289      6.246289   0.000000   0.000000
   20        6.830562      6.830561   0.000000   0.000000
   21        7.363961      7.363961   0.000000   0.000000
   22        7.550817      7.550817   0.000000   0.000000
   23        8.067755      8.067755   0.000000   0.000000
   24        8.581230      8.581230   0.000000   0.000000
   25        8.892424      8.892423   0.000000   0.000000
   26        9.972952      9.972951   0.000000   0.000000
   27       11.000969     11.000969   0.000000   0.000000
   28       12.156172     12.156171   0.000000   0.000000
   29       12.320037     12.320037   0.000000   0.000000
   30       13.326260     13.326260   0.000000   0.000000
   31       13.563811     13.563810   0.000000   0.000000
   32       15.201210     15.201210   0.000000   0.000000
 
  0.4285714E+00  0.2000000E+00  0.3885781E-15  0.1428571E-01
    1      -33.222864    -33.222868   1.000000   1.000000
    2      -29.176476    -29.176475   1.000000   1.000000
    3      -29.126526    -29.126526   1.000000   1.000000
    4      -28.958490    -28.958490   1.000000   1.000000
    5      -15.864950    -15.864951   1.000000   1.000000
    6      -15.260902    -15.260904   1.000000   1.000000
    7      -15.177025    -15.177026   1.000000   1.000000
    8       -5.509926     -5.509926   1.000000   1.000000
    9       -3.490172     -3.490172   1.000000   1.000000
   10       -2.338265     -2.338265   1.000000   1.000000
   11       -1.849084     -1.849084   1.000000   1.000000
   12       -1.634209     -1.634209   1.000000   1.000000
   13       -0.987377     -0.987377   1.000000   1.000000
   14       -0.471750     -0.471750   1.000000   1.000000
   15        1.283263      1.283263   1.000000   1.000000
   16        3.741744      3.741744   0.000000   0.000000
   17        4.690160      4.690160   0.000000   0.000000
   18        5.531524      5.531524   0.000000   0.000000
   19        6.271177      6.271177   0.000000   0.000000
   20        6.470751      6.470750   0.000000   0.000000
   21        7.269144      7.269143   0.000000   0.000000
   22        7.767039      7.767038   0.000000   0.000000
   23        8.153044      8.153044   0.000000   0.000000
   24        8.890478      8.890478   0.000000   0.000000
   25        9.360212      9.360212   0.000000   0.000000
   26       10.226822     10.226822   0.000000   0.000000
   27       10.713117     10.713116   0.000000   0.000000
   28       11.485391     11.485391   0.000000   0.000000
   29       12.096797     12.096796   0.000000   0.000000
   30       12.573374     12.573374   0.000000   0.000000
   31       13.055562     13.055562   0.000000   0.000000
   32       15.987581     15.987581   0.000000   0.000000
 
 -0.4285714E+00  0.2000000E+00  0.3851086E-15  0.1428571E-01
    1      -33.222864    -33.222867   1.000000   1.000000
    2      -29.176476    -29.176476   1.000000   1.000000
    3      -29.126525    -29.126525   1.000000   1.000000
    4      -28.958491    -28.958491   1.000000   1.000000
    5      -15.864940    -15.864941   1.000000   1.000000
    6      -15.260872    -15.260873   1.000000   1.000000
    7      -15.177014    -15.177015   1.000000   1.000000
    8       -5.511683     -5.511683   1.000000   1.000000
    9       -3.483788     -3.483788   1.000000   1.000000
   10       -2.339394     -2.339394   1.000000   1.000000
   11       -1.855179     -1.855179   1.000000   1.000000
   12       -1.629295     -1.629295   1.000000   1.000000
   13       -0.992882     -0.992882   1.000000   1.000000
   14       -0.471102     -0.471102   1.000000   1.000000
   15        1.283718      1.283718   1.000000   1.000000
   16        3.739331      3.739331   0.000000   0.000000
   17        4.691255      4.691256   0.000000   0.000000
   18        5.539636      5.539636   0.000000   0.000000
   19        6.259115      6.259114   0.000000   0.000000
   20        6.484559      6.484558   0.000000   0.000000
   21        7.265742      7.265741   0.000000   0.000000
   22        7.771262      7.771261   0.000000   0.000000
   23        8.150022      8.150022   0.000000   0.000000
   24        8.895172      8.895171   0.000000   0.000000
   25        9.357527      9.357527   0.000000   0.000000
   26       10.235251     10.235251   0.000000   0.000000
   27       10.706360     10.706360   0.000000   0.000000
   28       11.467167     11.467167   0.000000   0.000000
   29       12.096979     12.096979   0.000000   0.000000
   30       12.571066     12.571066   0.000000   0.000000
   31       13.059766     13.059765   0.000000   0.000000
   32       16.017579     16.017578   0.000000   0.000000
 
 -0.2857143E+00  0.2000000E+00  0.3885781E-15  0.1428571E-01
    1      -33.250118    -33.250121   1.000000   1.000000
    2      -29.136447    -29.136447   1.000000   1.000000
    3      -29.102630    -29.102630   1.000000   1.000000
    4      -28.964782    -28.964782   1.000000   1.000000
    5      -15.591611    -15.591612   1.000000   1.000000
    6      -15.302562    -15.302564   1.000000   1.000000
    7      -15.225058    -15.225059   1.000000   1.000000
    8       -6.152874     -6.152875   1.000000   1.000000
    9       -3.625422     -3.625422   1.000000   1.000000
   10       -2.412844     -2.412844   1.000000   1.000000
   11       -1.879210     -1.879210   1.000000   1.000000
   12       -1.275341     -1.275341   1.000000   1.000000
   13       -0.725202     -0.725202   1.000000   1.000000
   14       -0.622671     -0.622672   1.000000   1.000000
   15        1.913263      1.913262   0.778965   0.778966
   16        3.658681      3.658681   0.000000   0.000000
   17        4.554397      4.554397   0.000000   0.000000
   18        5.514724      5.514723   0.000000   0.000000
   19        6.246645      6.246645   0.000000   0.000000
   20        6.836424      6.836424   0.000000   0.000000
   21        7.373558      7.373558   0.000000   0.000000
   22        7.555243      7.555242   0.000000   0.000000
   23        8.069620      8.069620   0.000000   0.000000
   24        8.576070      8.576070   0.000000   0.000000
   25        8.891442      8.891441   0.000000   0.000000
   26        9.978933      9.978933   0.000000   0.000000
   27       10.985899     10.985899   0.000000   0.000000
   28       12.152586     12.152586   0.000000   0.000000
   29       12.300408     12.300408   0.000000   0.000000
   30       13.331056     13.331055   0.000000   0.000000
   31       13.566852     13.566851   0.000000   0.000000
   32       15.222550     15.222551   0.000000   0.000000
 
 -0.1428571E+00  0.2000000E+00  0.3885781E-15  0.1428571E-01
    1      -33.283756    -33.283759   1.000000   1.000000
    2      -29.148488    -29.148488   1.000000   1.000000
    3      -29.009335    -29.009334   1.000000   1.000000
    4      -28.972587    -28.972588   1.000000   1.000000
    5      -15.355302    -15.355304   1.000000   1.000000
    6      -15.283659    -15.283660   1.000000   1.000000
    7      -15.225868    -15.225870   1.000000   1.000000
    8       -6.710494     -6.710494   1.000000   1.000000
    9       -4.291442     -4.291442   1.000000   1.000000
   10       -2.348433     -2.348433   1.000000   1.000000
   11       -1.972392     -1.972392   1.000000   1.000000
   12       -1.070589     -1.070589   1.000000   1.000000
   13       -0.659790     -0.659790   1.000000   1.000000
   14        0.180584      0.180583   1.000000   1.000000
   15        2.794432      2.794432  -0.059922  -0.059922
   16        3.330888      3.330888   0.000000   0.000000
   17        4.243310      4.243310   0.000000   0.000000
   18        5.139850      5.139849   0.000000   0.000000
   19        5.943623      5.943622   0.000000   0.000000
   20        6.999082      6.999082   0.000000   0.000000
   21        7.318842      7.318842   0.000000   0.000000
   22        7.885862      7.885862   0.000000   0.000000
   23        8.359568      8.359567   0.000000   0.000000
   24        8.961173      8.961173   0.000000   0.000000
   25        9.140349      9.140349   0.000000   0.000000
   26        9.893058      9.893058   0.000000   0.000000
   27       10.803609     10.803609   0.000000   0.000000
   28       12.086160     12.086160   0.000000   0.000000
   29       12.392740     12.392740   0.000000   0.000000
   30       13.611412     13.611412   0.000000   0.000000
   31       13.922993     13.922993   0.000000   0.000000
   32       15.217180     15.217179   0.000000   0.000000
 
  0.3807718E-15  0.4000000E+00  0.3747003E-15  0.1428571E-01
    1      -33.296598    -33.296601   1.000000   1.000000
    2      -29.159786    -29.159787   1.000000   1.000000
    3      -28.975586    -28.975587   1.000000   1.000000
    4      -28.966897    -28.966897   1.000000   1.000000
    5      -15.459453    -15.459455   1.000000   1.000000
    6      -15.301152    -15.301153   1.000000   1.000000
    7      -15.051545    -15.051546   1.000000   1.000000
    8       -6.382889     -6.382889   1.000000   1.000000
    9       -4.621120     -4.621120   1.000000   1.000000
   10       -2.984943     -2.984943   1.000000   1.000000
   11       -1.883669     -1.883669   1.000000   1.000000
   12       -1.093805     -1.093805   1.000000   1.000000
   13       -0.488728     -0.488728   1.000000   1.000000
   14        1.001952      1.001952   1.000000   1.000000
   15        2.873035      2.873035   0.000000   0.000000
   16        3.302919      3.302918   0.000000   0.000000
   17        3.365562      3.365562   0.000000   0.000000
   18        5.258298      5.258298   0.000000   0.000000
   19        6.072942      6.072942   0.000000   0.000000
   20        6.777430      6.777430   0.000000   0.000000
   21        7.174086      7.174086   0.000000   0.000000
   22        8.044797      8.044796   0.000000   0.000000
   23        8.100334      8.100333   0.000000   0.000000
   24        8.559875      8.559875   0.000000   0.000000
   25        8.965373      8.965372   0.000000   0.000000
   26       11.098502     11.098502   0.000000   0.000000
   27       11.233166     11.233166   0.000000   0.000000
   28       12.224880     12.224880   0.000000   0.000000
   29       13.269762     13.269762   0.000000   0.000000
   30       13.687064     13.687064   0.000000   0.000000
   31       14.505789     14.505789   0.000000   0.000000
   32       14.913786     14.913786   0.000000   0.000000
 
  0.1428571E+00  0.4000000E+00  0.3885781E-15  0.1428571E-01
    1      -33.281758    -33.281761   1.000000   1.000000
    2      -29.154354    -29.154354   1.000000   1.000000
    3      -29.009068    -29.009068   1.000000   1.000000
    4      -28.972075    -28.972075   1.000000   1.000000
    5      -15.433565    -15.433567   1.000000   1.000000
    6      -15.275483    -15.275484   1.000000   1.000000
    7      -15.220997    -15.220998   1.000000   1.000000
    8       -6.223777     -6.223777   1.000000   1.000000
    9       -4.306764     -4.306765   1.000000   1.000000
   10       -2.797054     -2.797054   1.000000   1.000000
   11       -1.931601     -1.931601   1.000000   1.000000
   12       -1.043188     -1.043189   1.000000   1.000000
   13       -0.652541     -0.652541   1.000000   1.000000
   14        0.248239      0.248239   1.000000   1.000000
   15        2.743462      2.743462  -0.050829  -0.050829
   16        2.902594      2.902594   0.000000   0.000000
   17        4.221467      4.221466   0.000000   0.000000
   18        5.028911      5.028911   0.000000   0.000000
   19        6.185717      6.185716   0.000000   0.000000
   20        7.050534      7.050534   0.000000   0.000000
   21        7.509518      7.509518   0.000000   0.000000
   22        7.864826      7.864826   0.000000   0.000000
   23        8.154251      8.154250   0.000000   0.000000
   24        8.586576      8.586575   0.000000   0.000000
   25        9.216141      9.216141   0.000000   0.000000
   26       10.439285     10.439284   0.000000   0.000000
   27       10.762482     10.762482   0.000000   0.000000
   28       11.860405     11.860404   0.000000   0.000000
   29       13.187099     13.187099   0.000000   0.000000
   30       14.153029     14.153029   0.000000   0.000000
   31       14.384072     14.384072   0.000000   0.000000
   32       15.087197     15.087197   0.000000   0.000000
 
  0.2857143E+00  0.4000000E+00  0.3885781E-15  0.1428571E-01
    1      -33.248138    -33.248141   1.000000   1.000000
    2      -29.142173    -29.142174   1.000000   1.000000
    3      -29.102360    -29.102360   1.000000   1.000000
    4      -28.964320    -28.964320   1.000000   1.000000
    5      -15.581867    -15.581868   1.000000   1.000000
    6      -15.373718    -15.373720   1.000000   1.000000
    7      -15.216490    -15.216491   1.000000   1.000000
    8       -5.796029     -5.796029   1.000000   1.000000
    9       -3.572318     -3.572318   1.000000   1.000000
   10       -2.428240     -2.428240   1.000000   1.000000
   11       -2.088218     -2.088218   1.000000   1.000000
   12       -1.159501     -1.159501   1.000000   1.000000
   13       -0.920705     -0.920705   1.000000   1.000000
   14       -0.705051     -0.705051   1.000000   1.000000
   15        1.919000      1.919000   0.786409   0.786409
   16        2.938329      2.938328   0.000000   0.000000
   17        4.697416      4.697416   0.000000   0.000000
   18        5.815742      5.815742   0.000000   0.000000
   19        6.416052      6.416051   0.000000   0.000000
   20        6.952943      6.952942   0.000000   0.000000
   21        7.587802      7.587801   0.000000   0.000000
   22        8.002646      8.002645   0.000000   0.000000
   23        8.385843      8.385842   0.000000   0.000000
   24        8.503984      8.503984   0.000000   0.000000
   25        8.938868      8.938867   0.000000   0.000000
   26        9.877109      9.877109   0.000000   0.000000
   27       10.361457     10.361457   0.000000   0.000000
   28       11.793870     11.793870   0.000000   0.000000
   29       12.653535     12.653535   0.000000   0.000000
   30       13.451265     13.451265   0.000000   0.000000
   31       13.707500     13.707500   0.000000   0.000000
   32       15.352288     15.352288   0.000000   0.000000
 
  0.4285714E+00  0.4000000E+00  0.3608225E-15  0.1428571E-01
    1      -33.220898    -33.220902   1.000000   1.000000
    2      -29.176161    -29.176160   1.000000   1.000000
    3      -29.132189    -29.132189   1.000000   1.000000
    4      -28.958077    -28.958077   1.000000   1.000000
    5      -15.852393    -15.852394   1.000000   1.000000
    6      -15.325758    -15.325759   1.000000   1.000000
    7      -15.168174    -15.168175   1.000000   1.000000
    8       -5.304967     -5.304967   1.000000   1.000000
    9       -3.166537     -3.166537   1.000000   1.000000
   10       -2.505414     -2.505414   1.000000   1.000000
   11       -1.878926     -1.878926   1.000000   1.000000
   12       -1.560206     -1.560206   1.000000   1.000000
   13       -1.369159     -1.369159   1.000000   1.000000
   14       -0.473277     -0.473277   1.000000   1.000000
   15        1.274163      1.274163   1.000000   1.000000
   16        3.039900      3.039900   0.000000   0.000000
   17        4.711817      4.711817   0.000000   0.000000
   18        5.905879      5.905879   0.000000   0.000000
   19        6.465257      6.465256   0.000000   0.000000
   20        7.030536      7.030535   0.000000   0.000000
   21        7.778841      7.778841   0.000000   0.000000
   22        8.213957      8.213957   0.000000   0.000000
   23        8.309555      8.309555   0.000000   0.000000
   24        8.860761      8.860761   0.000000   0.000000
   25        9.091531      9.091531   0.000000   0.000000
   26        9.740375      9.740375   0.000000   0.000000
   27       10.135507     10.135507   0.000000   0.000000
   28       11.341930     11.341930   0.000000   0.000000
   29       12.308444     12.308442   0.000000   0.000000
   30       12.465561     12.465561   0.000000   0.000000
   31       13.507482     13.507481   0.000000   0.000000
   32       15.682511     15.682511   0.000000   0.000000
 
 -0.4285714E+00  0.4000000E+00  0.3608225E-15  0.1428571E-01
    1      -33.220898    -33.220902   1.000000   1.000000
    2      -29.176161    -29.176161   1.000000   1.000000
    3      -29.132189    -29.132189   1.000000   1.000000
    4      -28.958077    -28.958078   1.000000   1.000000
    5      -15.852386    -15.852387   1.000000   1.000000
    6      -15.325740    -15.325742   1.000000   1.000000
    7      -15.168168    -15.168169   1.000000   1.000000
    8       -5.306267     -5.306267   1.000000   1.000000
    9       -3.157551     -3.157551   1.000000   1.000000
   10       -2.511361     -2.511362   1.000000   1.000000
   11       -1.882185     -1.882185   1.000000   1.000000
   12       -1.558505     -1.558505   1.000000   1.000000
   13       -1.371146     -1.371146   1.000000   1.000000
   14       -0.473069     -0.473070   1.000000   1.000000
   15        1.274245      1.274245   1.000000   1.000000
   16        3.039586      3.039586   0.000000   0.000000