 running on   16 total cores
 distrk:  each k-point on   16 cores,    1 groups
 distr:  one band on    1 cores,   16 groups
 using from now: INCAR     
 vasp.5.4.4.18Apr17-6-g9f103f2a35 (build Nov 01 2019 12:17:22) complex          
  
 POSCAR found type information on POSCAR  Sr Nb H 
 POSCAR found :  3 types and      10 ions

 ----------------------------------------------------------------------------- 
|                                                                             |
|           W    W    AA    RRRRR   N    N  II  N    N   GGGG   !!!           |
|           W    W   A  A   R    R  NN   N  II  NN   N  G    G  !!!           |
|           W    W  A    A  R    R  N N  N  II  N N  N  G       !!!           |
|           W WW W  AAAAAA  RRRRR   N  N N  II  N  N N  G  GGG   !            |
|           WW  WW  A    A  R   R   N   NN  II  N   NN  G    G                |
|           W    W  A    A  R    R  N    N  II  N    N   GGGG   !!!           |
|                                                                             |
|      For optimal performance we recommend to set                            |
|        NCORE= 4 - approx SQRT( number of cores)                             |
|      NCORE specifies how many cores store one orbital (NPAR=cpu/NCORE).     |
|      This setting can  greatly improve the performance of VASP for DFT.     |
|      The default,   NCORE=1            might be grossly inefficient         |
|      on modern multi-core architectures or massively parallel machines.     |
|      Do your own testing !!!!                                               |
|      Unfortunately you need to use the default for GW and RPA calculations. |
|      (for HF NCORE is supported but not extensively tested yet)             |
|                                                                             |
 ----------------------------------------------------------------------------- 

 LDA part: xc-table for Pade appr. of Perdew
 POSCAR, INCAR and KPOINTS ok, starting setup
 FFT: planning ...
 WAVECAR not read
 entering main loop
       N       E                     dE             d eps       ncg     rms          rms(c)
DAV:   1     0.143349839250E+03    0.14335E+03   -0.13708E+04  9088   0.841E+02
DAV:   2    -0.314365815981E+02   -0.17479E+03   -0.16329E+03 10608   0.240E+02
DAV:   3    -0.396383514955E+02   -0.82018E+01   -0.81335E+01 16736   0.477E+01
DAV:   4    -0.397026663055E+02   -0.64315E-01   -0.64305E-01  9808   0.313E+00
DAV:   5    -0.397038936981E+02   -0.12274E-02   -0.12274E-02 13664   0.381E-01    0.332E+01
RMM:   6    -0.400724083734E+02   -0.36851E+00   -0.35864E+00  9719   0.815E+00    0.148E+01
RMM:   7    -0.397785686549E+02    0.29384E+00   -0.76384E-01  9748   0.519E+00    0.746E+00
RMM:   8    -0.397798774509E+02   -0.13088E-02   -0.12505E-01  9895   0.261E+00    0.390E+00
RMM:   9    -0.397810602610E+02   -0.11828E-02   -0.35489E-02  9517   0.111E+00    0.156E+00
RMM:  10    -0.397827839439E+02   -0.17237E-02   -0.88948E-03  9173   0.777E-01    0.686E-01
RMM:  11    -0.397830321804E+02   -0.24824E-03   -0.15807E-03  8364   0.284E-01
   1 F= -.39783032E+02 E0= -.39783032E+02  d E =-.397830E+02  mag=     0.0026
 curvature:   0.00 expect dE= 0.000E+00 dE for cont linesearch  0.000E+00
 trial: gam= 0.00000 g(F)=  0.331E-02 g(S)=  0.480E-01 ort = 0.000E+00 (trialstep = 0.100E+01)
 search vector abs. value=  0.513E-01
 bond charge predicted
       N       E                     dE             d eps       ncg     rms          rms(c)
DAV:   1    -0.399320242036E+02   -0.14924E+00   -0.19899E+00 13552   0.917E+00    0.378E+00
RMM:   2    -0.398298500415E+02    0.10217E+00   -0.19149E-01  9400   0.248E+00    0.793E-01
RMM:   3    -0.398157983668E+02    0.14052E-01   -0.19845E-02  9911   0.117E+00    0.784E-01
RMM:   4    -0.398132106638E+02    0.25877E-02   -0.53298E-03  9208   0.439E-01    0.781E-01
RMM:   5    -0.398131038702E+02    0.10679E-03   -0.49150E-03  9497   0.415E-01
   2 F= -.39813104E+02 E0= -.39813104E+02  d E =-.300717E-01  mag=     0.0000
 trial-energy change:   -0.030072  1 .order   -0.035375   -0.051335   -0.019414
 step:   1.6082(harm=  1.6082)  dis= 0.01019  next Energy=   -39.824311 (dE=-0.413E-01)
 bond charge predicted
       N       E                     dE             d eps       ncg     rms          rms(c)
DAV:   1    -0.398556803244E+02   -0.42470E-01   -0.68781E-01  9088   0.543E+00    0.225E+00
RMM:   2    -0.398186187612E+02    0.37062E-01   -0.61473E-02  9269   0.147E+00    0.454E-01
RMM:   3    -0.398141539566E+02    0.44648E-02   -0.73201E-03  9533   0.675E-01    0.452E-01
RMM:   4    -0.398135041775E+02    0.64978E-03   -0.24835E-03  8514   0.300E-01    0.475E-01
RMM:   5    -0.398137477691E+02   -0.24359E-03   -0.17293E-03  8049   0.251E-01
   3 F= -.39813748E+02 E0= -.39813748E+02  d E =-.307156E-01  mag=    -0.0000
 curvature:  -0.80 expect dE=-0.482E-01 dE for cont linesearch -0.151E-03
 trial: gam= 1.22721 g(F)=  0.572E-01 g(S)=  0.268E-02 ort =-0.310E-02 (trialstep = 0.444E+00)
 search vector abs. value=  0.130E+00
 bond charge predicted
       N       E                     dE             d eps       ncg     rms          rms(c)
DAV:   1    -0.398663574022E+02   -0.52853E-01   -0.88622E-01 10000   0.597E+00    0.216E+00
RMM:   2    -0.398309991827E+02    0.35358E-01   -0.72904E-02  9302   0.157E+00    0.488E-01
RMM:   3    -0.398266544584E+02    0.43447E-02   -0.79463E-03  9780   0.749E-01    0.444E-01
RMM:   4    -0.398258576012E+02    0.79686E-03   -0.23957E-03  8649   0.309E-01    0.454E-01
RMM:   5    -0.398259452940E+02   -0.87693E-04   -0.16295E-03  8304   0.255E-01
   4 F= -.39825945E+02 E0= -.39825945E+02  d E =-.121975E-01  mag=     0.0000
 trial-energy change:   -0.012198  1 .order   -0.015678   -0.024921   -0.006435
 step:   0.5990(harm=  0.5990)  dis= 0.01594  next Energy=   -39.830546 (dE=-0.168E-01)
 bond charge predicted
       N       E                     dE             d eps       ncg     rms          rms(c)
DAV:   1    -0.398306676012E+02   -0.48100E-02   -0.10133E-01 11296   0.203E+00    0.764E-01
RMM:   2    -0.398264634718E+02    0.42041E-02   -0.82622E-03  9309   0.525E-01    0.160E-01
RMM:   3    -0.398259707014E+02    0.49277E-03   -0.73660E-04  7177   0.244E-01
   5 F= -.39825971E+02 E0= -.39825971E+02  d E =-.122229E-01  mag=     0.0000
 curvature:  -0.69 expect dE=-0.928E-02 dE for cont linesearch -0.521E-04
 trial: gam= 0.08127 g(F)=  0.103E-01 g(S)=  0.313E-02 ort = 0.312E-02 (trialstep = 0.475E+00)
 search vector abs. value=  0.148E-01
 bond charge predicted
       N       E                     dE             d eps       ncg     rms          rms(c)
DAV:   1    -0.398322729893E+02   -0.58095E-02   -0.65562E-02 10656   0.140E+00    0.288E-01
RMM:   2    -0.398321590344E+02    0.11395E-03   -0.25476E-03  8423   0.240E-01
   6 F= -.39832159E+02 E0= -.39832159E+02  d E =-.618833E-02  mag=    -0.0000
 ZBRENT: can't locate minimum, use default step
 trial-energy change:   -0.006188  1 .order   -0.006105   -0.006492   -0.005717
 step:   1.9010(harm=  3.9794)  dis= 0.02382  next Energy=   -39.853152 (dE=-0.272E-01)
 bond charge predicted
       N       E                     dE             d eps       ncg     rms          rms(c)
DAV:   1    -0.398456466076E+02   -0.13374E-01   -0.57106E-01  9712   0.411E+00    0.676E-01
RMM:   2    -0.398438617401E+02    0.17849E-02   -0.20570E-02  9140   0.688E-01    0.325E-01
RMM:   3    -0.398427538202E+02    0.11079E-02   -0.19356E-03  8331   0.496E-01    0.290E-01
RMM:   4    -0.398426689149E+02    0.84905E-04   -0.79228E-04  7406   0.156E-01
   7 F= -.39842669E+02 E0= -.39842669E+02  d E =-.166982E-01  mag=    -0.0000
 curvature:  -1.39 expect dE=-0.121E-01 dE for cont linesearch -0.109E-02
 trial: gam= 0.35476 g(F)=  0.747E-02 g(S)=  0.119E-02 ort = 0.339E-02 (trialstep = 0.760E+00)
 search vector abs. value=  0.129E-01
 bond charge predicted
       N       E                     dE             d eps       ncg     rms          rms(c)
DAV:   1    -0.398466023303E+02   -0.38485E-02   -0.24975E-01 13792   0.343E+00    0.234E-01
RMM:   2    -0.398468001544E+02   -0.19782E-03   -0.13334E-02  9144   0.539E-01    0.145E-01
RMM:   3    -0.398462817171E+02    0.51844E-03   -0.46215E-04  6795   0.234E-01    0.119E-01
RMM:   4    -0.398462452010E+02    0.36516E-04   -0.21635E-04  5524   0.968E-02
   8 F= -.39846245E+02 E0= -.39846245E+02  d E =-.357629E-02  mag=    -0.0000
 trial-energy change:   -0.003576  1 .order   -0.003813   -0.007499   -0.000127
 step:   0.7735(harm=  0.7735)  dis= 0.00703  next Energy=   -39.846483 (dE=-0.381E-02)
 bond charge predicted
       N       E                     dE             d eps       ncg     rms          rms(c)
DAV:   1    -0.398462451898E+02    0.36527E-04   -0.10893E-04  9376   0.125E-01    0.545E-02
RMM:   2    -0.398462469088E+02   -0.17190E-05   -0.21322E-05  2416   0.305E-02
   9 F= -.39846247E+02 E0= -.39846247E+02  d E =-.357799E-02  mag=    -0.0000
 curvature:  -0.51 expect dE=-0.330E-02 dE for cont linesearch -0.419E-05
 trial: gam= 0.93712 g(F)=  0.523E-02 g(S)=  0.128E-02 ort =-0.327E-03 (trialstep = 0.572E+00)
 search vector abs. value=  0.173E-01
 reached required accuracy - stopping structural energy minimisation
