       N       E                     dE             d eps       ncg     rms          rms(c)
DAV:   1     0.219387342261E+03    0.21939E+03   -0.13628E+04 21112   0.849E+02
DAV:   2    -0.395443627352E+02   -0.25893E+03   -0.25274E+03 24440   0.368E+02
DAV:   3    -0.544651892366E+02   -0.14921E+02   -0.14726E+02 34816   0.753E+01
DAV:   4    -0.550806847834E+02   -0.61550E+00   -0.61331E+00 33808   0.113E+01
DAV:   5    -0.550911403885E+02   -0.10456E-01   -0.10451E-01 33596   0.137E+00    0.423E+01
DAV:   6    -0.515408106229E+02    0.35503E+01   -0.10549E+01 32088   0.213E+01    0.168E+01
DAV:   7    -0.511074587212E+02    0.43335E+00   -0.15234E+00 26868   0.741E+00    0.689E+00
DAV:   8    -0.511017889185E+02    0.56698E-02   -0.42715E-01 36344   0.301E+00    0.300E+00
DAV:   9    -0.511014147072E+02    0.37421E-03   -0.50247E-02 29808   0.971E-01    0.199E+00
DAV:  10    -0.510988354373E+02    0.25793E-02   -0.16924E-02 31304   0.890E-01    0.429E-01
DAV:  11    -0.510982563120E+02    0.57913E-03   -0.88793E-03 34344   0.753E-01    0.156E-01
DAV:  12    -0.510981096406E+02    0.14667E-03   -0.15371E-03 26528   0.283E-01    0.132E-01
DAV:  13    -0.510981215417E+02   -0.11901E-04   -0.16051E-04 16224   0.863E-02
   1 F= -.51098122E+02 E0= -.51098103E+02  d E =-.510981E+02
       N       E                     dE             d eps       ncg     rms          rms(c)
DAV:   1    -0.510987605590E+02   -0.65092E-03   -0.51833E-02 23856   0.200E+00    0.258E-01
DAV:   2    -0.510987411959E+02    0.19363E-04   -0.68811E-03 23656   0.599E-01    0.771E-02
DAV:   3    -0.510986367049E+02    0.10449E-03   -0.43216E-04 23996   0.172E-01    0.634E-02
DAV:   4    -0.510986220937E+02    0.14611E-04   -0.20664E-04 14276   0.142E-01
   2 F= -.51098622E+02 E0= -.51098604E+02  d E =-.500552E-03
       N       E                     dE             d eps       ncg     rms          rms(c)
DAV:   1    -0.510987169175E+02   -0.80213E-04   -0.38313E-02 23152   0.173E+00    0.235E-01
DAV:   2    -0.510986472197E+02    0.69698E-04   -0.50379E-03 23888   0.516E-01    0.701E-02
DAV:   3    -0.510985573997E+02    0.89820E-04   -0.25094E-04 21684   0.120E-01
   3 F= -.51098557E+02 E0= -.51098540E+02  d E =-.435858E-03
