       N       E                     dE             d eps       ncg     rms          rms(c)
DAV:   1     0.237518673807E+03    0.23752E+03   -0.13740E+04 20672   0.853E+02
DAV:   2    -0.237486837265E+02   -0.26127E+03   -0.25349E+03 24072   0.373E+02
DAV:   3    -0.411071096741E+02   -0.17358E+02   -0.16847E+02 36000   0.784E+01
DAV:   4    -0.417794843121E+02   -0.67237E+00   -0.66252E+00 31928   0.123E+01
DAV:   5    -0.417978872696E+02   -0.18403E-01   -0.18356E-01 33524   0.193E+00    0.509E+01
DAV:   6    -0.389157063498E+02    0.28822E+01   -0.15262E+01 32032   0.252E+01    0.235E+01
DAV:   7    -0.387646731010E+02    0.15103E+00   -0.14812E+00 29604   0.839E+00    0.991E+00
DAV:   8    -0.387511906117E+02    0.13482E-01   -0.48590E-01 37848   0.416E+00    0.198E+00
DAV:   9    -0.387558063648E+02   -0.46158E-02   -0.59952E-01 33968   0.384E+00    0.178E+00
DAV:  10    -0.387327422834E+02    0.23064E-01   -0.20075E-01 33948   0.209E+00    0.592E-01
DAV:  11    -0.387324081713E+02    0.33411E-03   -0.74498E-03 26788   0.533E-01    0.140E-01
DAV:  12    -0.387324413043E+02   -0.33133E-04   -0.10977E-03 28672   0.232E-01    0.812E-02
DAV:  13    -0.387324473589E+02   -0.60546E-05   -0.13002E-04 14976   0.797E-02
   1 F= -.38732447E+02 E0= -.38732314E+02  d E =-.387324E+02
       N       E                     dE             d eps       ncg     rms          rms(c)
DAV:   1    -0.363212623589E+02    0.24112E+01   -0.88886E+02 20288   0.258E+02    0.219E+01
DAV:   2    -0.431176091660E+02   -0.67963E+01   -0.12311E+02 21100   0.640E+01    0.107E+01
DAV:   3    -0.427744611145E+02    0.34315E+00   -0.56389E+00 31180   0.156E+01    0.608E+00
DAV:   4    -0.427814961031E+02   -0.70350E-02   -0.26562E+00 33152   0.635E+00    0.402E+00
DAV:   5    -0.427261976645E+02    0.55298E-01   -0.44775E+00 36464   0.574E+00    0.315E+00
DAV:   6    -0.426160798800E+02    0.11012E+00   -0.89215E-01 38104   0.289E+00    0.961E-01
DAV:   7    -0.426193672761E+02   -0.32874E-02   -0.33739E-02 33716   0.916E-01    0.589E-01
DAV:   8    -0.426191896581E+02    0.17762E-03   -0.90407E-03 30940   0.512E-01    0.276E-01
DAV:   9    -0.426191234241E+02    0.66234E-04   -0.12792E-03 28000   0.204E-01    0.734E-02
DAV:  10    -0.426191062960E+02    0.17128E-04   -0.20937E-04 16324   0.102E-01
   2 F= -.42619106E+02 E0= -.42619314E+02  d E =-.388666E+01
       N       E                     dE             d eps       ncg     rms          rms(c)
DAV:   1    -0.425777899412E+02    0.41333E-01   -0.80833E+00 20344   0.249E+01    0.218E+00
DAV:   2    -0.426632071224E+02   -0.85417E-01   -0.15666E+00 21796   0.754E+00    0.939E-01
DAV:   3    -0.426577700456E+02    0.54371E-02   -0.52590E-02 27468   0.150E+00    0.517E-01
DAV:   4    -0.426577400070E+02    0.30039E-04   -0.38090E-02 35128   0.899E-01    0.468E-01
DAV:   5    -0.426553398249E+02    0.24002E-02   -0.31410E-02 32848   0.592E-01    0.168E-01
DAV:   6    -0.426552604603E+02    0.79365E-04   -0.15723E-03 25588   0.205E-01    0.117E-01
DAV:   7    -0.426553016193E+02   -0.41159E-04   -0.19598E-04 18716   0.900E-02
   3 F= -.42655302E+02 E0= -.42655392E+02  d E =-.392285E+01
       N       E                     dE             d eps       ncg     rms          rms(c)
DAV:   1    -0.464803383892E+02   -0.38251E+01   -0.10454E+02 20280   0.704E+01    0.126E+01
DAV:   2    -0.441169801836E+02    0.23634E+01   -0.13669E+01 28212   0.232E+01    0.440E+00
DAV:   3    -0.437621331103E+02    0.35485E+00   -0.18044E+00 26728   0.594E+00    0.264E+00
DAV:   4    -0.436888635762E+02    0.73270E-01   -0.26925E-01 34128   0.292E+00    0.147E+00
DAV:   5    -0.436984690195E+02   -0.96054E-02   -0.14811E-01 36696   0.138E+00    0.121E+00
DAV:   6    -0.436927582087E+02    0.57108E-02   -0.17404E-01 30512   0.121E+00    0.875E-01
DAV:   7    -0.436932407802E+02   -0.48257E-03   -0.28952E-02 35900   0.641E-01    0.156E-01
DAV:   8    -0.436933468835E+02   -0.10610E-03   -0.13973E-03 26540   0.222E-01    0.920E-02
DAV:   9    -0.436933700964E+02   -0.23213E-04   -0.20894E-04 15192   0.795E-02
   4 F= -.43693370E+02 E0= -.43693235E+02  d E =-.103807E+01
       N       E                     dE             d eps       ncg     rms          rms(c)
DAV:   1    -0.440249803281E+02   -0.33163E+00   -0.10316E+01 20300   0.212E+01    0.408E+00
DAV:   2    -0.437915918319E+02    0.23339E+00   -0.12658E+00 26740   0.697E+00    0.130E+00
DAV:   3    -0.437561960476E+02    0.35396E-01   -0.10811E-01 25080   0.170E+00    0.703E-01
DAV:   4    -0.437498013815E+02    0.63947E-02   -0.29195E-02 32968   0.857E-01    0.442E-01
DAV:   5    -0.437509270294E+02   -0.11256E-02   -0.29570E-02 31748   0.525E-01    0.425E-01
DAV:   6    -0.437497831122E+02    0.11439E-02   -0.15511E-02 34552   0.348E-01    0.235E-01
DAV:   7    -0.437499400866E+02   -0.15697E-03   -0.10013E-03 32652   0.138E-01    0.341E-02
DAV:   8    -0.437499379994E+02    0.20871E-05   -0.88119E-05 14284   0.575E-02
   5 F= -.43749938E+02 E0= -.43749696E+02  d E =-.109464E+01
       N       E                     dE             d eps       ncg     rms          rms(c)
DAV:   1    -0.445280991095E+02   -0.77816E+00   -0.32131E+01 20280   0.430E+01    0.604E+00
DAV:   2    -0.444076828475E+02    0.12042E+00   -0.35937E+00 22132   0.128E+01    0.197E+00
DAV:   3    -0.443246769936E+02    0.83006E-01   -0.23965E-01 27976   0.278E+00    0.113E+00
DAV:   4    -0.443111690491E+02    0.13508E-01   -0.63911E-02 33628   0.134E+00    0.949E-01
DAV:   5    -0.443133035523E+02   -0.21345E-02   -0.75382E-02 31104   0.845E-01    0.803E-01
DAV:   6    -0.443105080882E+02    0.27955E-02   -0.41457E-02 36396   0.623E-01    0.334E-01
DAV:   7    -0.443103860308E+02    0.12206E-03   -0.40256E-03 35008   0.312E-01    0.787E-02
DAV:   8    -0.443103760830E+02    0.99477E-05   -0.31392E-04 20484   0.101E-01
   6 F= -.44310376E+02 E0= -.44310363E+02  d E =-.560438E+00
       N       E                     dE             d eps       ncg     rms          rms(c)
DAV:   1    -0.456620282543E+02   -0.13516E+01   -0.95461E+01 20280   0.746E+01    0.115E+01
DAV:   2    -0.452351808526E+02    0.42685E+00   -0.11112E+01 22188   0.222E+01    0.369E+00
DAV:   3    -0.449317468730E+02    0.30343E+00   -0.84295E-01 27916   0.529E+00    0.197E+00
DAV:   4    -0.448685823223E+02    0.63165E-01   -0.26061E-01 34456   0.309E+00    0.168E+00
DAV:   5    -0.448727442938E+02   -0.41620E-02   -0.11861E-01 32392   0.133E+00    0.110E+00
DAV:   6    -0.448695929790E+02    0.31513E-02   -0.12146E-01 36020   0.113E+00    0.764E-01
DAV:   7    -0.448682951871E+02    0.12978E-02   -0.27443E-02 35432   0.757E-01    0.174E-01
DAV:   8    -0.448680600763E+02    0.23511E-03   -0.28227E-03 29048   0.236E-01    0.130E-01
DAV:   9    -0.448680337604E+02    0.26316E-04   -0.37086E-04 21420   0.103E-01
   7 F= -.44868034E+02 E0= -.44868139E+02  d E =-.111810E+01
       N       E                     dE             d eps       ncg     rms          rms(c)
DAV:   1    -0.450280887843E+02   -0.16003E+00   -0.13331E+01 20312   0.283E+01    0.447E+00
DAV:   2    -0.449472014147E+02    0.80887E-01   -0.15689E+00 22960   0.859E+00    0.146E+00
DAV:   3    -0.449000867217E+02    0.47115E-01   -0.17460E-01 27816   0.221E+00    0.890E-01
DAV:   4    -0.448884929030E+02    0.11594E-01   -0.51754E-02 34620   0.138E+00    0.613E-01
DAV:   5    -0.448886273590E+02   -0.13446E-03   -0.24783E-02 34472   0.629E-01    0.411E-01
DAV:   6    -0.448877546072E+02    0.87275E-03   -0.18529E-02 30560   0.487E-01    0.288E-01
DAV:   7    -0.448877297830E+02    0.24824E-04   -0.32999E-03 36384   0.266E-01    0.674E-02
DAV:   8    -0.448876892385E+02    0.40544E-04   -0.40573E-04 20784   0.898E-02
   8 F= -.44887689E+02 E0= -.44887921E+02  d E =-.113775E+01
       N       E                     dE             d eps       ncg     rms          rms(c)
DAV:   1    -0.449996921491E+02   -0.11196E+00   -0.49069E+01 20288   0.546E+01    0.436E+00
DAV:   2    -0.452165101018E+02   -0.21682E+00   -0.59042E+00 21968   0.158E+01    0.215E+00
DAV:   3    -0.451342364678E+02    0.82274E-01   -0.23116E-01 29264   0.303E+00    0.123E+00
DAV:   4    -0.451108185822E+02    0.23418E-01   -0.69764E-02 29248   0.147E+00    0.564E-01
DAV:   5    -0.451114298829E+02   -0.61130E-03   -0.37411E-02 30788   0.849E-01    0.349E-01
DAV:   6    -0.451099438034E+02    0.14861E-02   -0.18995E-02 32140   0.558E-01    0.152E-01
DAV:   7    -0.451099614087E+02   -0.17605E-04   -0.81043E-04 21524   0.152E-01
   9 F= -.45109961E+02 E0= -.45109849E+02  d E =-.222272E+00
       N       E                     dE             d eps       ncg     rms          rms(c)
DAV:   1    -0.451287427429E+02   -0.18799E-01   -0.25676E+00 20316   0.126E+01    0.945E-01
DAV:   2    -0.451381787140E+02   -0.94360E-02   -0.31270E-01 21564   0.363E+00    0.476E-01
DAV:   3    -0.451346094453E+02    0.35693E-02   -0.14272E-02 29988   0.724E-01    0.266E-01
DAV:   4    -0.451337061354E+02    0.90331E-03   -0.44756E-03 28980   0.372E-01    0.131E-01
DAV:   5    -0.451336384734E+02    0.67662E-04   -0.46854E-03 29680   0.296E-01    0.943E-02
DAV:   6    -0.451334819490E+02    0.15652E-03   -0.16110E-03 21080   0.178E-01    0.486E-02
DAV:   7    -0.451334901088E+02   -0.81597E-05   -0.67940E-05 14316   0.603E-02
  10 F= -.45133490E+02 E0= -.45133418E+02  d E =-.245801E+00
       N       E                     dE             d eps       ncg     rms          rms(c)
DAV:   1    -0.452287210342E+02   -0.95239E-01   -0.13049E+01 20272   0.300E+01    0.391E+00
DAV:   2    -0.452264012166E+02    0.23198E-02   -0.17998E+00 22288   0.937E+00    0.147E+00
DAV:   3    -0.451950198486E+02    0.31381E-01   -0.10523E-01 27524   0.210E+00    0.710E-01
DAV:   4    -0.451888912528E+02    0.61286E-02   -0.25369E-02 32936   0.867E-01    0.469E-01
DAV:   5    -0.451888358154E+02    0.55437E-04   -0.50864E-03 35264   0.353E-01    0.324E-01
DAV:   6    -0.451889890603E+02   -0.15324E-03   -0.94021E-03 34880   0.360E-01    0.240E-01
DAV:   7    -0.451885873771E+02    0.40168E-03   -0.51544E-03 35148   0.295E-01    0.535E-02
DAV:   8    -0.451885880851E+02   -0.70793E-06   -0.20292E-04 16704   0.767E-02
  11 F= -.45188588E+02 E0= -.45188553E+02  d E =-.550980E-01
       N       E                     dE             d eps       ncg     rms          rms(c)
DAV:   1    -0.451898636314E+02   -0.12763E-02   -0.16164E-01 20416   0.330E+00    0.494E-01
DAV:   2    -0.451900205711E+02   -0.15694E-03   -0.23905E-02 22420   0.105E+00    0.169E-01
DAV:   3    -0.451896053908E+02    0.41518E-03   -0.15615E-03 27340   0.240E-01    0.862E-02
DAV:   4    -0.451895102709E+02    0.95120E-04   -0.58994E-04 20112   0.142E-01
  12 F= -.45189510E+02 E0= -.45189451E+02  d E =-.560202E-01
       N       E                     dE             d eps       ncg     rms          rms(c)
DAV:   1    -0.452462912741E+02   -0.56686E-01   -0.42400E+00 20936   0.158E+01    0.135E+00
DAV:   2    -0.452478975923E+02   -0.16063E-02   -0.38996E-01 21388   0.405E+00    0.716E-01
DAV:   3    -0.452405304625E+02    0.73671E-02   -0.24639E-02 28936   0.926E-01    0.292E-01
DAV:   4    -0.452399106131E+02    0.61985E-03   -0.85931E-03 29900   0.488E-01    0.159E-01
DAV:   5    -0.452396087902E+02    0.30182E-03   -0.64178E-03 29428   0.321E-01    0.889E-02
DAV:   6    -0.452395621389E+02    0.46651E-04   -0.57795E-04 14900   0.120E-01
  13 F= -.45239562E+02 E0= -.45239511E+02  d E =-.500519E-01
       N       E                     dE             d eps       ncg     rms          rms(c)
DAV:   1    -0.452672400422E+02   -0.27631E-01   -0.61022E+00 20624   0.191E+01    0.161E+00
DAV:   2    -0.452713775274E+02   -0.41375E-02   -0.56620E-01 21544   0.488E+00    0.839E-01
DAV:   3    -0.452609812638E+02    0.10396E-01   -0.39699E-02 29108   0.115E+00    0.362E-01
DAV:   4    -0.452616938764E+02   -0.71261E-03   -0.46188E-02 29912   0.870E-01    0.349E-01
DAV:   5    -0.452590811984E+02    0.26127E-02   -0.24978E-02 29868   0.581E-01    0.103E-01
DAV:   6    -0.452591284516E+02   -0.47253E-04   -0.62504E-04 20332   0.137E-01
  14 F= -.45259128E+02 E0= -.45259215E+02  d E =-.696182E-01
       N       E                     dE             d eps       ncg     rms          rms(c)
DAV:   1    -0.452638030456E+02   -0.47218E-02   -0.29503E+00 21136   0.146E+01    0.821E-01
DAV:   2    -0.452959209031E+02   -0.32118E-01   -0.41628E-01 20800   0.388E+00    0.412E-01
DAV:   3    -0.452956293673E+02    0.29154E-03   -0.90816E-03 30920   0.653E-01    0.256E-01
DAV:   4    -0.452953357094E+02    0.29366E-03   -0.24678E-03 30660   0.296E-01    0.132E-01
DAV:   5    -0.452953039802E+02    0.31729E-04   -0.38590E-03 27288   0.253E-01    0.915E-02
DAV:   6    -0.452952157401E+02    0.88240E-04   -0.87528E-04 14764   0.135E-01
  15 F= -.45295216E+02 E0= -.45295324E+02  d E =-.360873E-01
       N       E                     dE             d eps       ncg     rms          rms(c)
DAV:   1    -0.451812642180E+02    0.11404E+00   -0.13185E+01 20368   0.308E+01    0.173E+00
DAV:   2    -0.453246545843E+02   -0.14339E+00   -0.18686E+00 20772   0.828E+00    0.863E-01
DAV:   3    -0.453239165190E+02    0.73807E-03   -0.43380E-02 30576   0.143E+00    0.528E-01
DAV:   4    -0.453237387179E+02    0.17780E-03   -0.23739E-02 31520   0.719E-01    0.362E-01
DAV:   5    -0.453222206075E+02    0.15181E-02   -0.24993E-02 30592   0.576E-01    0.168E-01
DAV:   6    -0.453221346793E+02    0.85928E-04   -0.19889E-03 26664   0.214E-01    0.649E-02
DAV:   7    -0.453221309689E+02    0.37104E-05   -0.11854E-04 14460   0.931E-02
  16 F= -.45322131E+02 E0= -.45322182E+02  d E =-.630025E-01
       N       E                     dE             d eps       ncg     rms          rms(c)
DAV:   1    -0.453150480915E+02    0.70866E-02   -0.59241E+00 20272   0.200E+01    0.139E+00
DAV:   2    -0.453658354017E+02   -0.50787E-01   -0.78761E-01 20684   0.547E+00    0.750E-01
DAV:   3    -0.453633931029E+02    0.24423E-02   -0.21360E-02 29952   0.978E-01    0.480E-01
DAV:   4    -0.453620077286E+02    0.13854E-02   -0.55003E-03 27384   0.483E-01    0.167E-01
DAV:   5    -0.453619807522E+02    0.26976E-04   -0.11587E-03 27528   0.208E-01    0.900E-02
DAV:   6    -0.453619983879E+02   -0.17636E-04   -0.19578E-04 15240   0.873E-02
  17 F= -.45361998E+02 E0= -.45362027E+02  d E =-.398674E-01
       N       E                     dE             d eps       ncg     rms          rms(c)
DAV:   1    -0.452325972783E+02    0.12938E+00   -0.20749E+01 20272   0.373E+01    0.254E+00
DAV:   2    -0.454097153280E+02   -0.17712E+00   -0.27445E+00 20588   0.102E+01    0.135E+00
DAV:   3    -0.454018048064E+02    0.79105E-02   -0.85779E-02 29940   0.190E+00    0.897E-01
DAV:   4    -0.454017837630E+02    0.21043E-04   -0.81542E-02 31084   0.118E+00    0.645E-01
DAV:   5    -0.453972909415E+02    0.44928E-02   -0.85613E-02 30952   0.102E+00    0.304E-01
DAV:   6    -0.453963225611E+02    0.96838E-03   -0.10259E-02 34396   0.423E-01    0.133E-01
DAV:   7    -0.453963449612E+02   -0.22400E-04   -0.53323E-04 21296   0.140E-01
  18 F= -.45396345E+02 E0= -.45396099E+02  d E =-.742140E-01
       N       E                     dE             d eps       ncg     rms          rms(c)
DAV:   1    -0.454155030463E+02   -0.19180E-01   -0.65939E+00 20272   0.216E+01    0.181E+00
DAV:   2    -0.454636476777E+02   -0.48145E-01   -0.95504E-01 20448   0.608E+00    0.724E-01
DAV:   3    -0.454591214341E+02    0.45262E-02   -0.30651E-02 29240   0.116E+00    0.460E-01
DAV:   4    -0.454573327817E+02    0.17887E-02   -0.65314E-03 29000   0.464E-01    0.284E-01
DAV:   5    -0.454574247275E+02   -0.91946E-04   -0.11803E-02 36048   0.449E-01    0.239E-01
DAV:   6    -0.454568461164E+02    0.57861E-03   -0.73553E-03 26864   0.308E-01    0.151E-01
DAV:   7    -0.454568271923E+02    0.18924E-04   -0.46467E-04 20908   0.115E-01
  19 F= -.45456827E+02 E0= -.45456648E+02  d E =-.604822E-01
       N       E                     dE             d eps       ncg     rms          rms(c)
DAV:   1    -0.452063581341E+02    0.25049E+00   -0.60355E+01 20272   0.649E+01    0.474E+00
DAV:   2    -0.456222505833E+02   -0.41589E+00   -0.82790E+00 20328   0.179E+01    0.210E+00
DAV:   3    -0.455835266900E+02    0.38724E-01   -0.24424E-01 30304   0.339E+00    0.139E+00
DAV:   4    -0.455669484502E+02    0.16578E-01   -0.38771E-02 28144   0.118E+00    0.771E-01
DAV:   5    -0.455721760804E+02   -0.52276E-02   -0.10188E-01 35856   0.120E+00    0.676E-01
DAV:   6    -0.455653334484E+02    0.68426E-02   -0.66683E-02 30644   0.850E-01    0.223E-01
DAV:   7    -0.455654423960E+02   -0.10895E-03   -0.13492E-03 24692   0.192E-01    0.821E-02
DAV:   8    -0.455654382703E+02    0.41257E-05   -0.19606E-04 14592   0.105E-01
  20 F= -.45565438E+02 E0= -.45565343E+02  d E =-.169093E+00
       N       E                     dE             d eps       ncg     rms          rms(c)
DAV:   1    -0.454784774388E+02    0.86965E-01   -0.14042E+01 20432   0.324E+01    0.253E+00
DAV:   2    -0.456589543449E+02   -0.18048E+00   -0.24955E+00 20320   0.942E+00    0.110E+00
DAV:   3    -0.456497689710E+02    0.91854E-02   -0.67498E-02 30172   0.176E+00    0.684E-01
DAV:   4    -0.456468991657E+02    0.28698E-02   -0.23746E-02 32724   0.817E-01    0.376E-01
DAV:   5    -0.456460755890E+02    0.82358E-03   -0.29433E-02 29704   0.636E-01    0.279E-01
DAV:   6    -0.456454758608E+02    0.59973E-03   -0.55567E-03 34208   0.313E-01    0.150E-01
DAV:   7    -0.456455166924E+02   -0.40832E-04   -0.31092E-04 20924   0.939E-02
  21 F= -.45645517E+02 E0= -.45645412E+02  d E =-.800784E-01
       N       E                     dE             d eps       ncg     rms          rms(c)
DAV:   1    -0.443525046105E+02    0.12930E+01   -0.12792E+02 20272   0.981E+01    0.937E+00
DAV:   2    -0.459569611292E+02   -0.16045E+01   -0.21317E+01 20276   0.277E+01    0.326E+00
DAV:   3    -0.458456539361E+02    0.11131E+00   -0.67145E-01 30292   0.560E+00    0.235E+00
DAV:   4    -0.458060519291E+02    0.39602E-01   -0.14582E-01 32096   0.228E+00    0.113E+00
DAV:   5    -0.458080149005E+02   -0.19630E-02   -0.19431E-01 31216   0.178E+00    0.101E+00
DAV:   6    -0.457989317014E+02    0.90832E-02   -0.88280E-02 34256   0.115E+00    0.604E-01
DAV:   7    -0.457990112453E+02   -0.79544E-04   -0.36614E-03 26488   0.320E-01    0.220E-01
DAV:   8    -0.457990681040E+02   -0.56859E-04   -0.13138E-03 35208   0.224E-01    0.840E-02
DAV:   9    -0.457990689187E+02   -0.81471E-06   -0.17032E-04 14468   0.893E-02
  22 F= -.45799069E+02 E0= -.45799007E+02  d E =-.233631E+00
       N       E                     dE             d eps       ncg     rms          rms(c)
DAV:   1    -0.407066494208E+02    0.50924E+01   -0.56601E+02 20272   0.203E+02    0.175E+01
DAV:   2    -0.469075634008E+02   -0.62009E+01   -0.78805E+01 20500   0.527E+01    0.634E+00
DAV:   3    -0.463091519053E+02    0.59841E+00   -0.35110E+00 29304   0.135E+01    0.429E+00
DAV:   4    -0.461589092855E+02    0.15024E+00   -0.10182E+00 32316   0.605E+00    0.246E+00
DAV:   5    -0.461473793615E+02    0.11530E-01   -0.11119E+00 30208   0.466E+00    0.222E+00
DAV:   6    -0.461103174841E+02    0.37062E-01   -0.32060E-01 35496   0.244E+00    0.131E+00
DAV:   7    -0.461101844979E+02    0.13299E-03   -0.17496E-02 25800   0.728E-01    0.409E-01
DAV:   8    -0.461100045756E+02    0.17992E-03   -0.72911E-03 38240   0.589E-01    0.220E-01
DAV:   9    -0.461100123502E+02   -0.77747E-05   -0.82977E-04 27616   0.186E-01
  23 F= -.46110012E+02 E0= -.46109821E+02  d E =-.544574E+00
       N       E                     dE             d eps       ncg     rms          rms(c)
DAV:   1    -0.460136237292E+02    0.96381E-01   -0.10144E+01 23132   0.291E+01    0.154E+00
DAV:   2    -0.461494397781E+02   -0.13582E+00   -0.16188E+00 20840   0.750E+00    0.769E-01
DAV:   3    -0.461462626450E+02    0.31771E-02   -0.42372E-02 31860   0.134E+00    0.492E-01
DAV:   4    -0.461438735232E+02    0.23891E-02   -0.15450E-02 30048   0.838E-01    0.243E-01
DAV:   5    -0.461437052082E+02    0.16831E-03   -0.10126E-02 29176   0.588E-01    0.171E-01
DAV:   6    -0.461435202200E+02    0.18499E-03   -0.20364E-03 27664   0.283E-01    0.904E-02
DAV:   7    -0.461435112049E+02    0.90152E-05   -0.12756E-04 14336   0.759E-02
  24 F= -.46143511E+02 E0= -.46143356E+02  d E =-.334989E-01
       N       E                     dE             d eps       ncg     rms          rms(c)
DAV:   1    -0.461360256770E+02    0.74945E-02   -0.68042E-01 23016   0.752E+00    0.385E-01
DAV:   2    -0.461452495478E+02   -0.92239E-02   -0.10989E-01 21224   0.196E+00    0.209E-01
DAV:   3    -0.461450750366E+02    0.17451E-03   -0.29032E-03 31488   0.352E-01    0.132E-01
DAV:   4    -0.461450783225E+02   -0.32859E-05   -0.25706E-03 26632   0.317E-01    0.119E-01
DAV:   5    -0.461448891164E+02    0.18921E-03   -0.19261E-03 21768   0.252E-01    0.524E-02
DAV:   6    -0.461448923202E+02   -0.32038E-05   -0.81843E-05 14060   0.827E-02
  25 F= -.46144892E+02 E0= -.46144738E+02  d E =-.348800E-01
       N       E                     dE             d eps       ncg     rms          rms(c)
DAV:   1    -0.462092462920E+02   -0.64357E-01   -0.46007E-01 20436   0.575E+00    0.111E+00
DAV:   2    -0.462042691859E+02    0.49771E-02   -0.70748E-02 24132   0.201E+00    0.252E-01
DAV:   3    -0.462033221027E+02    0.94708E-03   -0.51251E-03 29372   0.464E-01    0.155E-01
DAV:   4    -0.462031185716E+02    0.20353E-03   -0.19985E-03 35104   0.275E-01    0.144E-01
DAV:   5    -0.462030486834E+02    0.69888E-04   -0.17624E-03 20720   0.252E-01    0.120E-01
DAV:   6    -0.462030289025E+02    0.19781E-04   -0.27647E-04 13564   0.121E-01
  26 F= -.46203029E+02 E0= -.46202889E+02  d E =-.581366E-01
       N       E                     dE             d eps       ncg     rms          rms(c)
DAV:   1    -0.464105216594E+02   -0.20747E+00   -0.41417E+00 20280   0.172E+01    0.317E+00
DAV:   2    -0.463634853606E+02    0.47036E-01   -0.63259E-01 23856   0.598E+00    0.729E-01
DAV:   3    -0.463553963553E+02    0.80890E-02   -0.46781E-02 28964   0.139E+00    0.482E-01
DAV:   4    -0.463539780649E+02    0.14183E-02   -0.22214E-02 36152   0.919E-01    0.463E-01
DAV:   5    -0.463530147664E+02    0.96330E-03   -0.18044E-02 36368   0.714E-01    0.370E-01
DAV:   6    -0.463529588505E+02    0.55916E-04   -0.22580E-03 30724   0.280E-01    0.214E-01
DAV:   7    -0.463530337188E+02   -0.74868E-04   -0.88679E-04 36568   0.132E-01
  27 F= -.46353034E+02 E0= -.46352930E+02  d E =-.208141E+00
       N       E                     dE             d eps       ncg     rms          rms(c)
DAV:   1    -0.467885912929E+02   -0.43563E+00   -0.16580E+01 20272   0.341E+01    0.580E+00
DAV:   2    -0.465897753840E+02    0.19882E+00   -0.25576E+00 24040   0.118E+01    0.141E+00
DAV:   3    -0.465588493745E+02    0.30926E-01   -0.18374E-01 28056   0.265E+00    0.997E-01
DAV:   4    -0.465490925440E+02    0.97568E-02   -0.30068E-02 32512   0.979E-01    0.866E-01
DAV:   5    -0.465500879818E+02   -0.99544E-03   -0.16667E-02 38240   0.744E-01    0.605E-01
DAV:   6    -0.465507234153E+02   -0.63543E-03   -0.36940E-02 37528   0.103E+00    0.460E-01
DAV:   7    -0.465495136278E+02    0.12098E-02   -0.13837E-02 36528   0.633E-01    0.712E-02
DAV:   8    -0.465495728597E+02   -0.59232E-04   -0.53591E-04 23944   0.139E-01
  28 F= -.46549573E+02 E0= -.46549580E+02  d E =-.404681E+00
       N       E                     dE             d eps       ncg     rms          rms(c)
DAV:   1    -0.476169825099E+02   -0.10675E+01   -0.66531E+01 20272   0.671E+01    0.992E+00
DAV:   2    -0.467340155458E+02    0.88297E+00   -0.10264E+01 24700   0.231E+01    0.267E+00
DAV:   3    -0.466186416596E+02    0.11537E+00   -0.85712E-01 27896   0.513E+00    0.223E+00
DAV:   4    -0.465843035597E+02    0.34338E-01   -0.14295E-01 33512   0.233E+00    0.186E+00
DAV:   5    -0.465921025801E+02   -0.77990E-02   -0.24380E-01 36968   0.264E+00    0.160E+00
DAV:   6    -0.465793238923E+02    0.12779E-01   -0.15797E-01 36848   0.187E+00    0.747E-01
DAV:   7    -0.465791881663E+02    0.13573E-03   -0.19002E-02 34792   0.696E-01    0.145E-01
DAV:   8    -0.465794147300E+02   -0.22656E-03   -0.18207E-03 30336   0.254E-01    0.127E-01
DAV:   9    -0.465794323863E+02   -0.17656E-04   -0.15631E-04 15528   0.906E-02
  29 F= -.46579432E+02 E0= -.46579341E+02  d E =-.434540E+00
       N       E                     dE             d eps       ncg     rms          rms(c)
DAV:   1    -0.467680979519E+02   -0.18868E+00   -0.11124E+01 20272   0.269E+01    0.502E+00
DAV:   2    -0.466509514045E+02    0.11715E+00   -0.17687E+00 22896   0.968E+00    0.119E+00
DAV:   3    -0.466291224528E+02    0.21829E-01   -0.11998E-01 28224   0.211E+00    0.723E-01
DAV:   4    -0.466218444264E+02    0.72780E-02   -0.35243E-02 32652   0.105E+00    0.586E-01
DAV:   5    -0.466219494261E+02   -0.10500E-03   -0.25134E-02 33920   0.904E-01    0.507E-01
DAV:   6    -0.466215997311E+02    0.34969E-03   -0.10128E-02 36240   0.573E-01    0.377E-01
DAV:   7    -0.466219528312E+02   -0.35310E-03   -0.15987E-03 32912   0.224E-01    0.745E-02
DAV:   8    -0.466219581683E+02   -0.53371E-05   -0.42417E-04 27688   0.135E-01
  30 F= -.46621958E+02 E0= -.46621841E+02  d E =-.477066E+00
       N       E                     dE             d eps       ncg     rms          rms(c)
DAV:   1    -0.467636636330E+02   -0.14171E+00   -0.45850E+00 20272   0.165E+01    0.169E+00
DAV:   2    -0.467689091959E+02   -0.52456E-02   -0.45090E-01 21904   0.449E+00    0.802E-01
DAV:   3    -0.467595727138E+02    0.93365E-02   -0.25785E-02 28984   0.103E+00    0.266E-01
DAV:   4    -0.467592492932E+02    0.32342E-03   -0.10224E-02 30456   0.653E-01    0.229E-01
DAV:   5    -0.467587675733E+02    0.48172E-03   -0.70451E-03 30280   0.501E-01    0.145E-01
DAV:   6    -0.467587155176E+02    0.52056E-04   -0.46924E-04 19708   0.142E-01
  31 F= -.46758716E+02 E0= -.46758537E+02  d E =-.136757E+00
       N       E                     dE             d eps       ncg     rms          rms(c)
DAV:   1    -0.470484122803E+02   -0.28964E+00   -0.40999E+01 20296   0.496E+01    0.555E+00
DAV:   2    -0.471075323209E+02   -0.59120E-01   -0.39984E+00 22004   0.133E+01    0.247E+00
DAV:   3    -0.470189649036E+02    0.88567E-01   -0.21588E-01 29368   0.304E+00    0.840E-01
DAV:   4    -0.470110104560E+02    0.79544E-02   -0.39322E-02 28964   0.125E+00    0.518E-01
DAV:   5    -0.470117043123E+02   -0.69386E-03   -0.33755E-02 35968   0.116E+00    0.450E-01
DAV:   6    -0.470101345742E+02    0.15697E-02   -0.14877E-02 31304   0.730E-01    0.116E-01
DAV:   7    -0.470101649010E+02   -0.30327E-04   -0.64664E-04 25544   0.155E-01
  32 F= -.47010165E+02 E0= -.47010128E+02  d E =-.388207E+00
       N       E                     dE             d eps       ncg     rms          rms(c)
DAV:   1    -0.470418690514E+02   -0.31734E-01   -0.81935E+00 20288   0.224E+01    0.250E+00
DAV:   2    -0.470519663692E+02   -0.10097E-01   -0.81474E-01 22136   0.605E+00    0.116E+00
DAV:   3    -0.470343311819E+02    0.17635E-01   -0.47088E-02 28884   0.145E+00    0.401E-01
DAV:   4    -0.470340439832E+02    0.28720E-03   -0.27350E-02 31428   0.110E+00    0.364E-01
DAV:   5    -0.470326143493E+02    0.14296E-02   -0.17131E-02 34800   0.794E-01    0.213E-01
DAV:   6    -0.470325704521E+02    0.43897E-04   -0.76695E-04 24100   0.175E-01
  33 F= -.47032570E+02 E0= -.47032553E+02  d E =-.410612E+00
       N       E                     dE             d eps       ncg     rms          rms(c)
DAV:   1    -0.470779861603E+02   -0.45372E-01   -0.13890E+01 20272   0.314E+01    0.186E+00
DAV:   2    -0.472123583058E+02   -0.13437E+00   -0.18373E+00 20580   0.829E+00    0.116E+00
DAV:   3    -0.472060820940E+02    0.62762E-02   -0.54572E-02 29712   0.159E+00    0.766E-01
DAV:   4    -0.472071990079E+02   -0.11169E-02   -0.80291E-02 31160   0.172E+00    0.674E-01
DAV:   5    -0.472013890271E+02    0.58100E-02   -0.51748E-02 31232   0.124E+00    0.149E-01
DAV:   6    -0.472013745497E+02    0.14477E-04   -0.19989E-03 23564   0.294E-01    0.851E-02
DAV:   7    -0.472013619311E+02    0.12619E-04   -0.25556E-04 19056   0.116E-01
  34 F= -.47201362E+02 E0= -.47201386E+02  d E =-.168791E+00
       N       E                     dE             d eps       ncg     rms          rms(c)
DAV:   1    -0.470828829726E+02    0.11849E+00   -0.22272E+01 20272   0.396E+01    0.240E+00
DAV:   2    -0.472977144899E+02   -0.21483E+00   -0.29287E+00 20548   0.105E+01    0.140E+00
DAV:   3    -0.472870969686E+02    0.10618E-01   -0.77945E-02 29732   0.190E+00    0.913E-01
DAV:   4    -0.472886956551E+02   -0.15987E-02   -0.11494E-01 31228   0.201E+00    0.788E-01
DAV:   5    -0.472801891572E+02    0.85065E-02   -0.82853E-02 31016   0.146E+00    0.197E-01
DAV:   6    -0.472801106868E+02    0.78470E-04   -0.30423E-03 24468   0.360E-01    0.112E-01
DAV:   7    -0.472800940168E+02    0.16670E-04   -0.42019E-04 22584   0.141E-01
  35 F= -.47280094E+02 E0= -.47279953E+02  d E =-.247524E+00
       N       E                     dE             d eps       ncg     rms          rms(c)
DAV:   1    -0.473336019027E+02   -0.53491E-01   -0.12204E+01 20272   0.283E+01    0.191E+00
DAV:   2    -0.474218541524E+02   -0.88252E-01   -0.15833E+00 21292   0.786E+00    0.988E-01
DAV:   3    -0.474127917004E+02    0.90625E-02   -0.46681E-02 28632   0.143E+00    0.569E-01
DAV:   4    -0.474087430882E+02    0.40486E-02   -0.15179E-02 29312   0.777E-01    0.250E-01
DAV:   5    -0.474087564147E+02   -0.13327E-04   -0.13415E-02 29144   0.723E-01    0.196E-01
DAV:   6    -0.474083493934E+02    0.40702E-03   -0.44727E-03 28896   0.398E-01    0.818E-02
DAV:   7    -0.474083442063E+02    0.51870E-05   -0.15255E-04 14440   0.927E-02
  36 F= -.47408344E+02 E0= -.47408299E+02  d E =-.128250E+00
       N       E                     dE             d eps       ncg     rms          rms(c)
DAV:   1    -0.473691185608E+02    0.39231E-01   -0.14588E+01 20272   0.309E+01    0.218E+00
DAV:   2    -0.474728779842E+02   -0.10376E+00   -0.18870E+00 21296   0.860E+00    0.108E+00
DAV:   3    -0.474617466306E+02    0.11131E-01   -0.57345E-02 28584   0.158E+00    0.607E-01
DAV:   4    -0.474583998740E+02    0.33468E-02   -0.31721E-02 31036   0.111E+00    0.385E-01
DAV:   5    -0.474568690999E+02    0.15308E-02   -0.26967E-02 29320   0.952E-01    0.207E-01
DAV:   6    -0.474566560238E+02    0.21308E-03   -0.26524E-03 28404   0.321E-01    0.926E-02
DAV:   7    -0.474566504215E+02    0.56023E-05   -0.14722E-04 14500   0.952E-02
  37 F= -.47456650E+02 E0= -.47456507E+02  d E =-.176556E+00
       N       E                     dE             d eps       ncg     rms          rms(c)
DAV:   1    -0.474383476221E+02    0.18308E-01   -0.19683E+01 21240   0.384E+01    0.250E+00
DAV:   2    -0.476075682718E+02   -0.16922E+00   -0.27028E+00 20408   0.990E+00    0.123E+00
DAV:   3    -0.475957548601E+02    0.11813E-01   -0.62981E-02 30032   0.169E+00    0.755E-01
DAV:   4    -0.475896922536E+02    0.60626E-02   -0.19967E-02 29884   0.926E-01    0.335E-01
DAV:   5    -0.475896207532E+02    0.71500E-04   -0.18022E-02 30376   0.823E-01    0.249E-01
DAV:   6    -0.475891448618E+02    0.47589E-03   -0.57262E-03 29352   0.448E-01    0.115E-01
DAV:   7    -0.475891393248E+02    0.55370E-05   -0.21939E-04 15848   0.112E-01
  38 F= -.47589139E+02 E0= -.47589258E+02  d E =-.132489E+00
       N       E                     dE             d eps       ncg     rms          rms(c)
DAV:   1    -0.473198284916E+02    0.26932E+00   -0.45452E+01 20504   0.585E+01    0.410E+00
DAV:   2    -0.477246078718E+02   -0.40478E+00   -0.63490E+00 20380   0.153E+01    0.189E+00
DAV:   3    -0.476960602818E+02    0.28548E-01   -0.14657E-01 29808   0.267E+00    0.119E+00
DAV:   4    -0.476838939501E+02    0.12166E-01   -0.69472E-02 31024   0.171E+00    0.648E-01
DAV:   5    -0.476806292459E+02    0.32647E-02   -0.66782E-02 30480   0.147E+00    0.400E-01
DAV:   6    -0.476798545136E+02    0.77473E-03   -0.88916E-03 29636   0.579E-01    0.182E-01
DAV:   7    -0.476798620991E+02   -0.75855E-05   -0.48228E-04 22448   0.160E-01
  39 F= -.47679862E+02 E0= -.47679781E+02  d E =-.223212E+00
       N       E                     dE             d eps       ncg     rms          rms(c)
DAV:   1    -0.476762290323E+02    0.36255E-02   -0.69130E+00 20480   0.236E+01    0.124E+00
DAV:   2    -0.477591841684E+02   -0.82955E-01   -0.10712E+00 20480   0.610E+00    0.634E-01
DAV:   3    -0.477578046341E+02    0.13795E-02   -0.17859E-02 30452   0.978E-01    0.387E-01
DAV:   4    -0.477571769311E+02    0.62770E-03   -0.12617E-02 30960   0.754E-01    0.232E-01
DAV:   5    -0.477563047597E+02    0.87217E-03   -0.96218E-03 30240   0.588E-01    0.716E-02
DAV:   6    -0.477563099038E+02   -0.51441E-05   -0.32462E-04 17536   0.122E-01
  40 F= -.47756310E+02 E0= -.47756247E+02  d E =-.764478E-01
       N       E                     dE             d eps       ncg     rms          rms(c)
DAV:   1    -0.472452122103E+02    0.51109E+00   -0.63210E+01 20272   0.707E+01    0.390E+00
DAV:   2    -0.479551680011E+02   -0.70996E+00   -0.93209E+00 20336   0.181E+01    0.197E+00
DAV:   3    -0.479450844272E+02    0.10084E-01   -0.15239E-01 30136   0.291E+00    0.129E+00
DAV:   4    -0.479360273085E+02    0.90571E-02   -0.65114E-02 30304   0.173E+00    0.585E-01
DAV:   5    -0.479328840300E+02    0.31433E-02   -0.65901E-02 30440   0.144E+00    0.284E-01
DAV:   6    -0.479323799041E+02    0.50413E-03   -0.70733E-03 32400   0.518E-01    0.105E-01
DAV:   7    -0.479323410379E+02    0.38866E-04   -0.37760E-04 20820   0.165E-01
  41 F= -.47932341E+02 E0= -.47932505E+02  d E =-.252479E+00
       N       E                     dE             d eps       ncg     rms          rms(c)
DAV:   1    -0.454131456948E+02    0.25192E+01   -0.26454E+02 20272   0.141E+02    0.805E+00
DAV:   2    -0.479642356389E+02   -0.25511E+01   -0.33948E+01 20272   0.349E+01    0.404E+00
DAV:   3    -0.479344411534E+02    0.29794E-01   -0.63905E-01 30064   0.599E+00    0.277E+00
DAV:   4    -0.479092225193E+02    0.25219E-01   -0.23770E-01 30480   0.320E+00    0.157E+00
DAV:   5    -0.478951127740E+02    0.14110E-01   -0.31733E-01 30224   0.284E+00    0.900E-01
DAV:   6    -0.478906086097E+02    0.45042E-02   -0.50971E-02 32092   0.133E+00    0.255E-01
DAV:   7    -0.478904431582E+02    0.16545E-03   -0.23825E-03 26272   0.338E-01    0.739E-02
DAV:   8    -0.478904379830E+02    0.51751E-05   -0.40624E-04 19236   0.143E-01
  42 F= -.47890438E+02 E0= -.47890505E+02  d E =-.210576E+00
       N       E                     dE             d eps       ncg     rms          rms(c)
DAV:   1    -0.469107066319E+02    0.97974E+00   -0.95592E+01 20272   0.867E+01    0.610E+00
DAV:   2    -0.480363809981E+02   -0.11257E+01   -0.14082E+01 20272   0.223E+01    0.242E+00
DAV:   3    -0.480117604794E+02    0.24621E-01   -0.22863E-01 30424   0.352E+00    0.149E+00
DAV:   4    -0.480058291980E+02    0.59313E-02   -0.15206E-01 30728   0.251E+00    0.955E-01
DAV:   5    -0.479943944501E+02    0.11435E-01   -0.13510E-01 30208   0.193E+00    0.450E-01
DAV:   6    -0.479939800871E+02    0.41436E-03   -0.80672E-03 26276   0.577E-01    0.168E-01
DAV:   7    -0.479940237921E+02   -0.43705E-04   -0.70200E-04 30232   0.193E-01
  43 F= -.47994024E+02 E0= -.47994086E+02  d E =-.314162E+00
       N       E                     dE             d eps       ncg     rms          rms(c)
DAV:   1    -0.480945463886E+02   -0.10057E+00   -0.50212E+00 20272   0.180E+01    0.138E+00
DAV:   2    -0.481243032454E+02   -0.29757E-01   -0.59507E-01 20956   0.500E+00    0.701E-01
DAV:   3    -0.481192116636E+02    0.50916E-02   -0.18267E-02 29016   0.912E-01    0.338E-01
DAV:   4    -0.481183963908E+02    0.81527E-03   -0.15532E-02 30668   0.831E-01    0.238E-01
DAV:   5    -0.481173928605E+02    0.10035E-02   -0.11151E-02 29320   0.629E-01    0.997E-02
DAV:   6    -0.481173633008E+02    0.29560E-04   -0.61229E-04 21612   0.156E-01
  44 F= -.48117363E+02 E0= -.48117426E+02  d E =-.123340E+00
       N       E                     dE             d eps       ncg     rms          rms(c)
DAV:   1    -0.481391321024E+02   -0.21739E-01   -0.14229E+01 20272   0.302E+01    0.226E+00
DAV:   2    -0.482205396998E+02   -0.81408E-01   -0.16797E+00 20872   0.838E+00    0.118E+00
DAV:   3    -0.482065850156E+02    0.13955E-01   -0.50386E-02 29032   0.151E+00    0.568E-01
DAV:   4    -0.482035230198E+02    0.30620E-02   -0.31870E-02 30520   0.120E+00    0.351E-01
DAV:   5    -0.482016657235E+02    0.18573E-02   -0.24639E-02 29272   0.929E-01    0.175E-01
DAV:   6    -0.482015292747E+02    0.13645E-03   -0.18173E-03 27888   0.275E-01    0.562E-02
DAV:   7    -0.482015329010E+02   -0.36263E-05   -0.10504E-04 14220   0.791E-02
  45 F= -.48201533E+02 E0= -.48201547E+02  d E =-.207509E+00
       N       E                     dE             d eps       ncg     rms          rms(c)
DAV:   1    -0.483104205538E+02   -0.10889E+00   -0.53837E+00 20272   0.172E+01    0.122E+00
DAV:   2    -0.483283502840E+02   -0.17930E-01   -0.45979E-01 22316   0.447E+00    0.635E-01
DAV:   3    -0.483227518887E+02    0.55984E-02   -0.16943E-02 28392   0.836E-01    0.319E-01
DAV:   4    -0.483216790787E+02    0.10728E-02   -0.97908E-03 30656   0.672E-01    0.190E-01
DAV:   5    -0.483211782606E+02    0.50082E-03   -0.68852E-03 29712   0.524E-01    0.901E-02
DAV:   6    -0.483211594936E+02    0.18767E-04   -0.37995E-04 16748   0.128E-01
  46 F= -.48321159E+02 E0= -.48321179E+02  d E =-.119627E+00
       N       E                     dE             d eps       ncg     rms          rms(c)
DAV:   1    -0.483606610566E+02   -0.39483E-01   -0.14568E+01 20272   0.282E+01    0.202E+00
DAV:   2    -0.484074705548E+02   -0.46809E-01   -0.12543E+00 22452   0.736E+00    0.110E+00
DAV:   3    -0.483919732888E+02    0.15497E-01   -0.45424E-02 28652   0.139E+00    0.553E-01
DAV:   4    -0.483889140631E+02    0.30592E-02   -0.25792E-02 30416   0.109E+00    0.307E-01
DAV:   5    -0.483876722591E+02    0.12418E-02   -0.17609E-02 29560   0.804E-01    0.150E-01
DAV:   6    -0.483876325551E+02    0.39704E-04   -0.10107E-03 25112   0.204E-01    0.499E-02
DAV:   7    -0.483876368353E+02   -0.42802E-05   -0.60757E-05 14224   0.603E-02
  47 F= -.48387637E+02 E0= -.48387704E+02  d E =-.186104E+00
       N       E                     dE             d eps       ncg     rms          rms(c)
DAV:   1    -0.484425708110E+02   -0.54938E-01   -0.58660E+00 20272   0.185E+01    0.127E+00
DAV:   2    -0.484812792989E+02   -0.38708E-01   -0.57951E-01 21156   0.493E+00    0.656E-01
DAV:   3    -0.484790104879E+02    0.22688E-02   -0.13895E-02 29832   0.799E-01    0.400E-01
DAV:   4    -0.484789301006E+02    0.80387E-04   -0.15706E-02 30808   0.869E-01    0.257E-01
DAV:   5    -0.484778075058E+02    0.11226E-02   -0.11339E-02 30032   0.649E-01    0.690E-02
DAV:   6    -0.484778100343E+02   -0.25284E-05   -0.40342E-04 20896   0.132E-01
  48 F= -.48477810E+02 E0= -.48477886E+02  d E =-.901732E-01
       N       E                     dE             d eps       ncg     rms          rms(c)
DAV:   1    -0.484312422744E+02    0.46565E-01   -0.22427E+01 20272   0.361E+01    0.239E+00
DAV:   2    -0.485819195648E+02   -0.15068E+00   -0.22455E+00 21120   0.970E+00    0.127E+00
DAV:   3    -0.485735347240E+02    0.83848E-02   -0.56853E-02 30064   0.162E+00    0.780E-01
DAV:   4    -0.485732566505E+02    0.27807E-03   -0.62253E-02 30900   0.176E+00    0.520E-01
DAV:   5    -0.485687879417E+02    0.44687E-02   -0.41823E-02 30288   0.124E+00    0.136E-01
DAV:   6    -0.485688097286E+02   -0.21787E-04   -0.15529E-03 24084   0.254E-01    0.687E-02
DAV:   7    -0.485688033891E+02    0.63395E-05   -0.28273E-04 19044   0.111E-01
  49 F= -.48568803E+02 E0= -.48568924E+02  d E =-.181167E+00
       N       E                     dE             d eps       ncg     rms          rms(c)
DAV:   1    -0.485614045757E+02    0.74052E-02   -0.19503E+00 20328   0.106E+01    0.709E-01
DAV:   2    -0.485747526635E+02   -0.13348E-01   -0.19469E-01 21640   0.285E+00    0.381E-01
DAV:   3    -0.485740384643E+02    0.71420E-03   -0.49329E-03 30604   0.471E-01    0.243E-01
DAV:   4    -0.485739977641E+02    0.40700E-04   -0.51691E-03 30864   0.526E-01    0.155E-01
DAV:   5    -0.485736143821E+02    0.38338E-03   -0.36606E-03 28960   0.410E-01    0.386E-02
DAV:   6    -0.485736163149E+02   -0.19328E-05   -0.13967E-04 14480   0.824E-02
  50 F= -.48573616E+02 E0= -.48573744E+02  d E =-.185979E+00
       N       E                     dE             d eps       ncg     rms          rms(c)
DAV:   1    -0.485163185424E+02    0.57296E-01   -0.17665E+01 20272   0.348E+01    0.263E+00
DAV:   2    -0.486608025842E+02   -0.14448E+00   -0.26221E+00 21268   0.108E+01    0.113E+00
DAV:   3    -0.486483417439E+02    0.12461E-01   -0.74795E-02 30056   0.188E+00    0.693E-01
DAV:   4    -0.486452075670E+02    0.31342E-02   -0.49964E-02 31408   0.161E+00    0.500E-01
DAV:   5    -0.486417195392E+02    0.34880E-02   -0.34179E-02 34928   0.118E+00    0.221E-01
DAV:   6    -0.486417439850E+02   -0.24446E-04   -0.18819E-03 25904   0.281E-01    0.140E-01
DAV:   7    -0.486417502099E+02   -0.62249E-05   -0.38365E-04 22164   0.143E-01
  51 F= -.48641750E+02 E0= -.48641724E+02  d E =-.681339E-01
       N       E                     dE             d eps       ncg     rms          rms(c)
DAV:   1    -0.486400158358E+02    0.17281E-02   -0.37374E-01 20464   0.502E+00    0.395E-01
DAV:   2    -0.486432512820E+02   -0.32354E-02   -0.56054E-02 22388   0.156E+00    0.179E-01
DAV:   3    -0.486429654281E+02    0.28585E-03   -0.14384E-03 28872   0.257E-01    0.117E-01
DAV:   4    -0.486428584182E+02    0.10701E-03   -0.77996E-04 22760   0.209E-01    0.705E-02
DAV:   5    -0.486428078696E+02    0.50549E-04   -0.56934E-04 15448   0.187E-01
  52 F= -.48642808E+02 E0= -.48642763E+02  d E =-.691916E-01
       N       E                     dE             d eps       ncg     rms          rms(c)
DAV:   1    -0.487351120487E+02   -0.92254E-01   -0.58310E+00 20272   0.166E+01    0.210E+00
DAV:   2    -0.486985715852E+02    0.36540E-01   -0.40304E-01 26776   0.462E+00    0.891E-01
DAV:   3    -0.486872747577E+02    0.11297E-01   -0.26743E-02 29276   0.108E+00    0.494E-01
DAV:   4    -0.486853648230E+02    0.19099E-02   -0.30925E-02 31376   0.128E+00    0.379E-01
DAV:   5    -0.486832971176E+02    0.20677E-02   -0.18057E-02 34824   0.892E-01    0.195E-01
DAV:   6    -0.486833439014E+02   -0.46784E-04   -0.69897E-04 24092   0.159E-01
  53 F= -.48683344E+02 E0= -.48683147E+02  d E =-.405360E-01
       N       E                     dE             d eps       ncg     rms          rms(c)
DAV:   1    -0.486860541476E+02   -0.27570E-02   -0.19103E-01 20656   0.301E+00    0.370E-01
DAV:   2    -0.486848222327E+02    0.12319E-02   -0.13358E-02 26696   0.834E-01    0.173E-01
DAV:   3    -0.486844440888E+02    0.37814E-03   -0.11475E-03 29160   0.239E-01    0.104E-01
DAV:   4    -0.486844017300E+02    0.42359E-04   -0.16805E-03 23752   0.303E-01    0.888E-02
DAV:   5    -0.486842789036E+02    0.12283E-03   -0.78514E-04 17432   0.211E-01    0.431E-02
DAV:   6    -0.486842850224E+02   -0.61188E-05   -0.74318E-05 14568   0.617E-02
  54 F= -.48684285E+02 E0= -.48684078E+02  d E =-.414772E-01
       N       E                     dE             d eps       ncg     rms          rms(c)
DAV:   1    -0.487063824631E+02   -0.22104E-01   -0.10556E+00 20336   0.690E+00    0.572E-01
DAV:   2    -0.487068599430E+02   -0.47748E-03   -0.54295E-02 23404   0.160E+00    0.338E-01
DAV:   3    -0.487057396573E+02    0.11203E-02   -0.31558E-03 28776   0.345E-01    0.126E-01
DAV:   4    -0.487056443237E+02    0.95334E-04   -0.43185E-04 23084   0.133E-01
  55 F= -.48705644E+02 E0= -.48705436E+02  d E =-.213593E-01
       N       E                     dE             d eps       ncg     rms          rms(c)
DAV:   1    -0.487448883434E+02   -0.39149E-01   -0.95462E+00 20276   0.207E+01    0.174E+00
DAV:   2    -0.487477782526E+02   -0.28899E-02   -0.49587E-01 23428   0.485E+00    0.105E+00
DAV:   3    -0.487373236383E+02    0.10455E-01   -0.30006E-02 28712   0.107E+00    0.384E-01
DAV:   4    -0.487365559867E+02    0.76765E-03   -0.62245E-03 30588   0.572E-01    0.199E-01
DAV:   5    -0.487365167161E+02    0.39271E-04   -0.43660E-03 30640   0.494E-01    0.149E-01
DAV:   6    -0.487364337472E+02    0.82969E-04   -0.90834E-04 20752   0.224E-01
  56 F= -.48736434E+02 E0= -.48736293E+02  d E =-.521487E-01
       N       E                     dE             d eps       ncg     rms          rms(c)
DAV:   1    -0.487448947788E+02   -0.83781E-02   -0.22265E-01 20812   0.375E+00    0.286E-01
DAV:   2    -0.487460696670E+02   -0.11749E-02   -0.23589E-02 21596   0.980E-01    0.106E-01
DAV:   3    -0.487459906114E+02    0.79056E-04   -0.68857E-04 28680   0.181E-01
  57 F= -.48745991E+02 E0= -.48745864E+02  d E =-.955686E-02
       N       E                     dE             d eps       ncg     rms          rms(c)
DAV:   1    -0.487640653647E+02   -0.17996E-01   -0.20077E+00 20368   0.112E+01    0.826E-01
DAV:   2    -0.487743121270E+02   -0.10247E-01   -0.21379E-01 20916   0.296E+00    0.331E-01
DAV:   3    -0.487736645974E+02    0.64753E-03   -0.82106E-03 30608   0.658E-01    0.213E-01
DAV:   4    -0.487735315419E+02    0.13306E-03   -0.57377E-03 30028   0.567E-01    0.174E-01
DAV:   5    -0.487731706339E+02    0.36091E-03   -0.25914E-03 32480   0.359E-01    0.811E-02
DAV:   6    -0.487731787795E+02   -0.81455E-05   -0.15651E-04 14980   0.812E-02
  58 F= -.48773179E+02 E0= -.48773054E+02  d E =-.367450E-01
       N       E                     dE             d eps       ncg     rms          rms(c)
DAV:   1    -0.487863983208E+02   -0.13228E-01   -0.80872E+00 20296   0.225E+01    0.160E+00
DAV:   2    -0.488268989882E+02   -0.40501E-01   -0.86249E-01 20660   0.591E+00    0.638E-01
DAV:   3    -0.488240155651E+02    0.28834E-02   -0.24927E-02 30024   0.107E+00    0.373E-01
DAV:   4    -0.488227278545E+02    0.12877E-02   -0.62015E-03 32600   0.555E-01    0.215E-01
DAV:   5    -0.488226052895E+02    0.12257E-03   -0.43888E-03 30968   0.476E-01    0.166E-01
DAV:   6    -0.488225451582E+02    0.60131E-04   -0.92729E-04 20592   0.223E-01
  59 F= -.48822545E+02 E0= -.48822446E+02  d E =-.861114E-01
       N       E                     dE             d eps       ncg     rms          rms(c)
DAV:   1    -0.487575791208E+02    0.65026E-01   -0.32456E+01 20320   0.449E+01    0.298E+00
DAV:   2    -0.489125737298E+02   -0.15499E+00   -0.34519E+00 20560   0.118E+01    0.132E+00
DAV:   3    -0.489001829918E+02    0.12391E-01   -0.10187E-01 29820   0.216E+00    0.749E-01
DAV:   4    -0.488948278575E+02    0.53551E-02   -0.25738E-02 31348   0.110E+00    0.429E-01
DAV:   5    -0.488943613742E+02    0.46648E-03   -0.19730E-02 32120   0.954E-01    0.333E-01
DAV:   6    -0.488940617752E+02    0.29960E-03   -0.44835E-03 31848   0.456E-01    0.182E-01
DAV:   7    -0.488940898690E+02   -0.28094E-04   -0.33774E-04 18896   0.128E-01
  60 F= -.48894090E+02 E0= -.48894123E+02  d E =-.157656E+00
