  23  23   1   0
  0.5991099E+01  0.4635739E-09  0.4802110E-09  0.6541846E-09  0.5000000E-15
  1.000000000000000E-004
  CAR 
 unknown system                          
     11.08381107    -13.16207570  301     -2.35295763      1.00000000
    -13.162  0.0000E+00  0.0000E+00  0.0000E+00  0.0000E+00
    -13.081  0.0000E+00  0.0000E+00  0.0000E+00  0.0000E+00
    -13.000  0.0000E+00  0.0000E+00  0.0000E+00  0.0000E+00
    -12.920  0.0000E+00  0.0000E+00  0.0000E+00  0.0000E+00
    -12.839  0.0000E+00  0.0000E+00  0.0000E+00  0.0000E+00
    -12.758  0.0000E+00  0.0000E+00  0.0000E+00  0.0000E+00
    -12.677  0.0000E+00  0.0000E+00  0.0000E+00  0.0000E+00
    -12.596  0.0000E+00  0.0000E+00  0.0000E+00  0.0000E+00
    -12.516  0.0000E+00  0.0000E+00  0.0000E+00  0.0000E+00
    -12.435  0.0000E+00  0.0000E+00  0.0000E+00  0.0000E+00
    -12.354  0.0000E+00  0.0000E+00  0.0000E+00  0.0000E+00
    -12.273  0.0000E+00  0.0000E+00  0.0000E+00  0.0000E+00
    -12.192  0.0000E+00  0.0000E+00  0.0000E+00  0.0000E+00
    -12.111  0.0000E+00  0.0000E+00  0.0000E+00  0.0000E+00
    -12.031  0.1509E-02  0.1514E-02  0.1476E-04  0.1483E-04
    -11.950  0.1346E-01  0.1347E-01  0.6327E-03  0.6333E-03
    -11.869  0.1703E-01  0.1703E-01  0.1983E-02  0.1984E-02
    -11.788  0.1540E-01  0.1539E-01  0.3339E-02  0.3340E-02
    -11.707  0.7439E-02  0.7435E-02  0.4270E-02  0.4270E-02
    -11.627  0.5756E-02  0.5756E-02  0.4745E-02  0.4745E-02
    -11.546  0.5755E-02  0.5755E-02  0.5210E-02  0.5210E-02
    -11.465  0.5754E-02  0.5754E-02  0.5675E-02  0.5675E-02
    -11.384  0.5754E-02  0.5754E-02  0.6140E-02  0.6141E-02
    -11.303  0.5753E-02  0.5753E-02  0.6605E-02  0.6606E-02
    -11.222  0.5752E-02  0.5752E-02  0.7070E-02  0.7070E-02
    -11.142  0.5752E-02  0.5752E-02  0.7535E-02  0.7535E-02
    -11.061  0.2304E-01  0.2303E-01  0.8734E-02  0.8734E-02
    -10.980  0.6527E-03  0.6453E-03  0.1010E-01  0.1010E-01
    -10.899  0.0000E+00  0.0000E+00  0.1010E-01  0.1010E-01
    -10.818  0.0000E+00  0.0000E+00  0.1010E-01  0.1010E-01
    -10.737  0.0000E+00  0.0000E+00  0.1010E-01  0.1010E-01
    -10.657  0.0000E+00  0.0000E+00  0.1010E-01  0.1010E-01
    -10.576  0.0000E+00  0.0000E+00  0.1010E-01  0.1010E-01
    -10.495  0.0000E+00  0.0000E+00  0.1010E-01  0.1010E-01
    -10.414  0.0000E+00  0.0000E+00  0.1010E-01  0.1010E-01
    -10.333  0.2374E-02  0.2370E-02  0.1016E-01  0.1016E-01
    -10.253  0.7221E-02  0.7220E-02  0.1055E-01  0.1055E-01
    -10.172  0.1174E-01  0.1174E-01  0.1133E-01  0.1133E-01
    -10.091  0.1415E-01  0.1415E-01  0.1238E-01  0.1238E-01
    -10.010  0.3063E-01  0.3064E-01  0.1390E-01  0.1390E-01
     -9.929  0.2966E-01  0.2966E-01  0.1635E-01  0.1635E-01
     -9.848  0.4264E-01  0.4263E-01  0.1926E-01  0.1926E-01
     -9.768  0.2678E-02  0.2675E-02  0.2022E-01  0.2022E-01
     -9.687  0.6709E-02  0.6708E-02  0.2054E-01  0.2054E-01
     -9.606  0.8647E-02  0.8649E-02  0.2131E-01  0.2131E-01
     -9.525  0.9750E-02  0.9751E-02  0.2200E-01  0.2200E-01
     -9.444  0.2161E-01  0.2162E-01  0.2315E-01  0.2315E-01
     -9.364  0.2600E-01  0.2600E-01  0.2505E-01  0.2505E-01
     -9.283  0.2474E-01  0.2475E-01  0.2709E-01  0.2709E-01
     -9.202  0.2334E-01  0.2333E-01  0.2913E-01  0.2914E-01
     -9.121  0.5131E-02  0.5129E-02  0.3030E-01  0.3030E-01
     -9.040  0.2243E-01  0.2242E-01  0.3133E-01  0.3133E-01
     -8.959  0.3274E-01  0.3275E-01  0.3384E-01  0.3384E-01
     -8.879  0.2238E-01  0.2238E-01  0.3645E-01  0.3645E-01
     -8.798  0.3624E-01  0.3625E-01  0.3849E-01  0.3849E-01
     -8.717  0.3878E-01  0.3878E-01  0.4190E-01  0.4190E-01
     -8.636  0.3398E-01  0.3398E-01  0.4449E-01  0.4449E-01
     -8.555  0.4423E-01  0.4423E-01  0.4745E-01  0.4745E-01
     -8.475  0.3989E-01  0.3990E-01  0.5089E-01  0.5089E-01
     -8.394  0.4163E-01  0.4163E-01  0.5408E-01  0.5408E-01
     -8.313  0.3580E-01  0.3580E-01  0.5693E-01  0.5693E-01
     -8.232  0.4868E-01  0.4869E-01  0.6026E-01  0.6026E-01
     -8.151  0.5655E-01  0.5656E-01  0.6445E-01  0.6446E-01
     -8.070  0.4805E-01  0.4805E-01  0.6885E-01  0.6885E-01
     -7.990  0.5944E-01  0.5943E-01  0.7298E-01  0.7298E-01
     -7.909  0.4520E-01  0.4520E-01  0.7731E-01  0.7731E-01
     -7.828  0.6173E-01  0.6172E-01  0.8147E-01  0.8147E-01
     -7.747  0.7305E-01  0.7305E-01  0.8589E-01  0.8589E-01
     -7.666  0.4100E-01  0.4100E-01  0.9117E-01  0.9117E-01
     -7.586  0.3685E-01  0.3685E-01  0.9443E-01  0.9443E-01
     -7.505  0.2567E-01  0.2567E-01  0.9649E-01  0.9649E-01
     -7.424  0.6166E-01  0.6164E-01  0.1003E+00  0.1003E+00
     -7.343  0.2161E-01  0.2161E-01  0.1031E+00  0.1031E+00
     -7.262  0.3992E-01  0.3993E-01  0.1053E+00  0.1053E+00
     -7.181  0.2555E-02  0.2555E-02  0.1073E+00  0.1073E+00
     -7.101  0.2555E-02  0.2555E-02  0.1075E+00  0.1075E+00
     -7.020  0.2555E-02  0.2555E-02  0.1077E+00  0.1077E+00
     -6.939  0.2555E-02  0.2555E-02  0.1079E+00  0.1079E+00
     -6.858  0.2556E-02  0.2556E-02  0.1082E+00  0.1082E+00
     -6.777  0.2556E-02  0.2556E-02  0.1084E+00  0.1084E+00
     -6.697  0.2556E-02  0.2556E-02  0.1086E+00  0.1086E+00
     -6.616  0.2556E-02  0.2556E-02  0.1088E+00  0.1088E+00
     -6.535  0.2556E-02  0.2556E-02  0.1090E+00  0.1090E+00
     -6.454  0.2557E-02  0.2557E-02  0.1092E+00  0.1092E+00
     -6.373  0.2557E-02  0.2557E-02  0.1094E+00  0.1094E+00
     -6.292  0.2557E-02  0.2557E-02  0.1096E+00  0.1096E+00
     -6.212  0.2557E-02  0.2557E-02  0.1098E+00  0.1098E+00
     -6.131  0.2557E-02  0.2557E-02  0.1100E+00  0.1100E+00
     -6.050  0.2558E-02  0.2558E-02  0.1102E+00  0.1102E+00
     -5.969  0.2558E-02  0.2558E-02  0.1104E+00  0.1104E+00
     -5.888  0.2558E-02  0.2558E-02  0.1106E+00  0.1106E+00
     -5.807  0.2558E-02  0.2558E-02  0.1108E+00  0.1108E+00
     -5.727  0.2559E-02  0.2559E-02  0.1110E+00  0.1110E+00
     -5.646  0.1131E-02  0.1133E-02  0.1111E+00  0.1111E+00
     -5.565  0.1595E-02  0.1595E-02  0.1112E+00  0.1112E+00
     -5.484  0.1595E-02  0.1595E-02  0.1114E+00  0.1114E+00
     -5.403  0.1595E-02  0.1595E-02  0.1115E+00  0.1115E+00
     -5.323  0.1595E-02  0.1595E-02  0.1116E+00  0.1116E+00
     -5.242  0.1595E-02  0.1595E-02  0.1118E+00  0.1118E+00
     -5.161  0.1595E-02  0.1595E-02  0.1119E+00  0.1119E+00
     -5.080  0.1595E-02  0.1595E-02  0.1120E+00  0.1120E+00
     -4.999  0.1595E-02  0.1595E-02  0.1122E+00  0.1122E+00
     -4.918  0.1595E-02  0.1595E-02  0.1123E+00  0.1123E+00
     -4.838  0.1595E-02  0.1595E-02  0.1124E+00  0.1124E+00
     -4.757  0.1595E-02  0.1595E-02  0.1125E+00  0.1125E+00
     -4.676  0.1595E-02  0.1595E-02  0.1127E+00  0.1127E+00
     -4.595  0.1595E-02  0.1595E-02  0.1128E+00  0.1128E+00
     -4.514  0.1595E-02  0.1595E-02  0.1129E+00  0.1129E+00
     -4.434  0.1595E-02  0.1595E-02  0.1131E+00  0.1131E+00
     -4.353  0.1595E-02  0.1595E-02  0.1132E+00  0.1132E+00
     -4.272  0.1595E-02  0.1595E-02  0.1133E+00  0.1133E+00
     -4.191  0.1595E-02  0.1595E-02  0.1134E+00  0.1134E+00
     -4.110  0.1595E-02  0.1595E-02  0.1136E+00  0.1136E+00
     -4.029  0.1595E-02  0.1595E-02  0.1137E+00  0.1137E+00
     -3.949  0.1595E-02  0.1595E-02  0.1138E+00  0.1138E+00
     -3.868  0.1595E-02  0.1595E-02  0.1140E+00  0.1140E+00
     -3.787  0.1595E-02  0.1595E-02  0.1141E+00  0.1141E+00
     -3.706  0.1595E-02  0.1595E-02  0.1142E+00  0.1142E+00
     -3.625  0.1595E-02  0.1595E-02  0.1143E+00  0.1143E+00
     -3.545  0.1595E-02  0.1595E-02  0.1145E+00  0.1145E+00
     -3.464  0.1595E-02  0.1595E-02  0.1146E+00  0.1146E+00
     -3.383  0.1595E-02  0.1595E-02  0.1147E+00  0.1147E+00
     -3.302  0.1595E-02  0.1595E-02  0.1149E+00  0.1149E+00
     -3.221  0.1595E-02  0.1595E-02  0.1150E+00  0.1150E+00
     -3.140  0.1595E-02  0.1595E-02  0.1151E+00  0.1151E+00
     -3.060  0.1321E-02  0.1321E-02  0.1152E+00  0.1152E+00
     -2.979  0.1321E-02  0.1321E-02  0.1153E+00  0.1153E+00
     -2.898  0.1321E-02  0.1321E-02  0.1154E+00  0.1154E+00
     -2.817  0.1321E-02  0.1321E-02  0.1155E+00  0.1155E+00
     -2.736  0.1321E-02  0.1321E-02  0.1157E+00  0.1157E+00
     -2.656  0.1321E-02  0.1321E-02  0.1158E+00  0.1158E+00
     -2.575  0.1321E-02  0.1321E-02  0.1159E+00  0.1159E+00
     -2.494  0.1321E-02  0.1321E-02  0.1160E+00  0.1160E+00
     -2.413  0.1321E-02  0.1321E-02  0.1161E+00  0.1161E+00
     -2.332  0.1321E-02  0.1321E-02  0.1162E+00  0.1162E+00
     -2.251  0.1321E-02  0.1321E-02  0.1163E+00  0.1163E+00
     -2.171  0.1321E-02  0.1321E-02  0.1164E+00  0.1164E+00
     -2.090  0.1321E-02  0.1321E-02  0.1165E+00  0.1165E+00
     -2.009  0.1321E-02  0.1321E-02  0.1166E+00  0.1166E+00
     -1.928  0.1321E-02  0.1321E-02  0.1167E+00  0.1167E+00
     -1.847  0.1321E-02  0.1321E-02  0.1168E+00  0.1168E+00
     -1.767  0.1321E-02  0.1321E-02  0.1169E+00  0.1169E+00
     -1.686  0.1321E-02  0.1321E-02  0.1170E+00  0.1170E+00
     -1.605  0.1321E-02  0.1321E-02  0.1171E+00  0.1171E+00
     -1.524  0.1321E-02  0.1321E-02  0.1173E+00  0.1173E+00
     -1.443  0.1321E-02  0.1321E-02  0.1174E+00  0.1174E+00
     -1.362  0.1321E-02  0.1321E-02  0.1175E+00  0.1175E+00
     -1.282  0.1321E-02  0.1321E-02  0.1176E+00  0.1176E+00
     -1.201  0.1321E-02  0.1321E-02  0.1177E+00  0.1177E+00
     -1.120  0.1321E-02  0.1321E-02  0.1178E+00  0.1178E+00
     -1.039  0.1321E-02  0.1321E-02  0.1179E+00  0.1179E+00
     -0.958  0.1321E-02  0.1321E-02  0.1180E+00  0.1180E+00
     -0.877  0.1321E-02  0.1321E-02  0.1181E+00  0.1181E+00
     -0.797  0.1321E-02  0.1321E-02  0.1182E+00  0.1182E+00
     -0.716  0.1321E-02  0.1321E-02  0.1183E+00  0.1183E+00
     -0.635  0.1321E-02  0.1321E-02  0.1184E+00  0.1184E+00
     -0.554  0.1321E-02  0.1321E-02  0.1185E+00  0.1185E+00
     -0.473  0.1321E-02  0.1321E-02  0.1186E+00  0.1186E+00
     -0.393  0.1321E-02  0.1321E-02  0.1188E+00  0.1188E+00
     -0.312  0.1321E-02  0.1321E-02  0.1189E+00  0.1189E+00
     -0.231  0.1321E-02  0.1321E-02  0.1190E+00  0.1190E+00
     -0.150  0.1321E-02  0.1321E-02  0.1191E+00  0.1191E+00
     -0.069  0.4932E-01  0.4968E-01  0.1193E+00  0.1193E+00
      0.012  0.0000E+00  0.0000E+00  0.1212E+00  0.1212E+00
      0.092  0.0000E+00  0.0000E+00  0.1212E+00  0.1212E+00
      0.173  0.0000E+00  0.0000E+00  0.1212E+00  0.1212E+00
      0.254  0.0000E+00  0.0000E+00  0.1212E+00  0.1212E+00
      0.335  0.0000E+00  0.0000E+00  0.1212E+00  0.1212E+00
      0.416  0.0000E+00  0.0000E+00  0.1212E+00  0.1212E+00
      0.496  0.0000E+00  0.0000E+00  0.1212E+00  0.1212E+00
      0.577  0.0000E+00  0.0000E+00  0.1212E+00  0.1212E+00
      0.658  0.0000E+00  0.0000E+00  0.1212E+00  0.1212E+00
      0.739  0.0000E+00  0.0000E+00  0.1212E+00  0.1212E+00
      0.820  0.0000E+00  0.0000E+00  0.1212E+00  0.1212E+00
      0.901  0.0000E+00  0.0000E+00  0.1212E+00  0.1212E+00
      0.981  0.0000E+00  0.0000E+00  0.1212E+00  0.1212E+00
      1.062  0.0000E+00  0.0000E+00  0.1212E+00  0.1212E+00
      1.143  0.0000E+00  0.0000E+00  0.1212E+00  0.1212E+00
      1.224  0.0000E+00  0.0000E+00  0.1212E+00  0.1212E+00
      1.305  0.0000E+00  0.0000E+00  0.1212E+00  0.1212E+00
      1.385  0.1839E-02  0.1895E-02  0.1213E+00  0.1213E+00
      1.466  0.6904E-02  0.7022E-02  0.1216E+00  0.1216E+00
      1.547  0.1840E-01  0.1869E-01  0.1228E+00  0.1228E+00
      1.628  0.2604E-01  0.2642E-01  0.1246E+00  0.1247E+00
      1.709  0.3346E-01  0.3275E-01  0.1274E+00  0.1275E+00
      1.790  0.1835E-01  0.1755E-01  0.1295E+00  0.1296E+00
      1.870  0.1850E-01  0.1858E-01  0.1309E+00  0.1310E+00
      1.951  0.2319E-01  0.2319E-01  0.1326E+00  0.1327E+00
      2.032  0.2863E-01  0.2870E-01  0.1347E+00  0.1348E+00
      2.113  0.3019E-01  0.2977E-01  0.1373E+00  0.1373E+00
      2.194  0.2812E-01  0.2803E-01  0.1394E+00  0.1394E+00
      2.274  0.3596E-01  0.3557E-01  0.1420E+00  0.1420E+00
      2.355  0.2284E-01  0.2274E-01  0.1445E+00  0.1445E+00
      2.436  0.2124E-01  0.2123E-01  0.1462E+00  0.1462E+00
      2.517  0.2854E-01  0.2847E-01  0.1481E+00  0.1481E+00
      2.598  0.5016E-01  0.5015E-01  0.1513E+00  0.1513E+00
      2.679  0.3421E-01  0.3414E-01  0.1545E+00  0.1544E+00
      2.759  0.1819E-01  0.1821E-01  0.1565E+00  0.1565E+00
      2.840  0.1855E-01  0.1856E-01  0.1580E+00  0.1580E+00
      2.921  0.2601E-01  0.2601E-01  0.1598E+00  0.1598E+00
      3.002  0.3350E-01  0.3350E-01  0.1623E+00  0.1623E+00
      3.083  0.2720E-01  0.2718E-01  0.1647E+00  0.1647E+00
      3.163  0.2717E-01  0.2714E-01  0.1668E+00  0.1668E+00
      3.244  0.2784E-01  0.2788E-01  0.1691E+00  0.1691E+00
      3.325  0.3189E-01  0.3195E-01  0.1715E+00  0.1715E+00
      3.406  0.2522E-01  0.2522E-01  0.1738E+00  0.1738E+00
      3.487  0.3575E-01  0.3573E-01  0.1760E+00  0.1760E+00
      3.568  0.3529E-01  0.3528E-01  0.1794E+00  0.1794E+00
      3.648  0.2901E-01  0.2901E-01  0.1819E+00  0.1819E+00
      3.729  0.3710E-01  0.3718E-01  0.1846E+00  0.1846E+00
      3.810  0.3255E-01  0.3245E-01  0.1875E+00  0.1875E+00
      3.891  0.2504E-01  0.2501E-01  0.1896E+00  0.1896E+00
      3.972  0.2645E-01  0.2645E-01  0.1917E+00  0.1917E+00
      4.053  0.3481E-01  0.3490E-01  0.1942E+00  0.1942E+00
      4.133  0.2433E-01  0.2435E-01  0.1966E+00  0.1966E+00
      4.214  0.1748E-01  0.1758E-01  0.1981E+00  0.1981E+00
      4.295  0.2350E-01  0.2355E-01  0.1998E+00  0.1998E+00
      4.376  0.2758E-01  0.2762E-01  0.2019E+00  0.2019E+00
      4.457  0.2353E-01  0.2335E-01  0.2042E+00  0.2042E+00
      4.537  0.1784E-01  0.1782E-01  0.2059E+00  0.2059E+00
      4.618  0.1766E-01  0.1761E-01  0.2072E+00  0.2072E+00
      4.699  0.2794E-01  0.2793E-01  0.2090E+00  0.2090E+00
      4.780  0.3071E-01  0.3079E-01  0.2116E+00  0.2116E+00
      4.861  0.2362E-01  0.2365E-01  0.2136E+00  0.2136E+00
      4.942  0.1652E-01  0.1654E-01  0.2152E+00  0.2152E+00
      5.022  0.1611E-01  0.1611E-01  0.2165E+00  0.2165E+00
      5.103  0.2135E-01  0.2135E-01  0.2180E+00  0.2180E+00
      5.184  0.3166E-01  0.3174E-01  0.2202E+00  0.2202E+00
      5.265  0.2736E-01  0.2730E-01  0.2228E+00  0.2228E+00
      5.346  0.1707E-01  0.1710E-01  0.2248E+00  0.2248E+00
      5.426  0.8316E-02  0.8302E-02  0.2258E+00  0.2258E+00
      5.507  0.9381E-02  0.9384E-02  0.2265E+00  0.2265E+00
      5.588  0.1557E-01  0.1557E-01  0.2274E+00  0.2274E+00
      5.669  0.3081E-01  0.3090E-01  0.2292E+00  0.2292E+00
      5.750  0.3378E-01  0.3386E-01  0.2319E+00  0.2319E+00
      5.831  0.2692E-01  0.2703E-01  0.2344E+00  0.2345E+00
      5.911  0.1501E-01  0.1493E-01  0.2361E+00  0.2361E+00
      5.992  0.1823E-01  0.1829E-01  0.2373E+00  0.2373E+00
      6.073  0.2491E-01  0.2501E-01  0.2390E+00  0.2390E+00
      6.154  0.2843E-01  0.2829E-01  0.2413E+00  0.2413E+00
      6.235  0.2109E-01  0.2108E-01  0.2433E+00  0.2433E+00
      6.315  0.2069E-01  0.2067E-01  0.2450E+00  0.2450E+00
      6.396  0.2286E-01  0.2302E-01  0.2466E+00  0.2466E+00
      6.477  0.2601E-01  0.2586E-01  0.2487E+00  0.2487E+00
      6.558  0.1665E-01  0.1660E-01  0.2504E+00  0.2504E+00
      6.639  0.1209E-01  0.1211E-01  0.2515E+00  0.2515E+00
      6.720  0.1858E-01  0.1871E-01  0.2526E+00  0.2526E+00
      6.800  0.3421E-01  0.3408E-01  0.2549E+00  0.2549E+00
      6.881  0.3169E-01  0.3170E-01  0.2577E+00  0.2577E+00
      6.962  0.2327E-01  0.2324E-01  0.2599E+00  0.2599E+00
      7.043  0.2604E-01  0.2624E-01  0.2617E+00  0.2617E+00
      7.124  0.2684E-01  0.2682E-01  0.2638E+00  0.2639E+00
      7.204  0.2564E-01  0.2558E-01  0.2662E+00  0.2662E+00
      7.285  0.2325E-01  0.2332E-01  0.2681E+00  0.2681E+00
      7.366  0.3573E-01  0.3566E-01  0.2707E+00  0.2707E+00
      7.447  0.1762E-01  0.1762E-01  0.2729E+00  0.2729E+00
      7.528  0.2125E-01  0.2125E-01  0.2745E+00  0.2745E+00
      7.609  0.3134E-01  0.3135E-01  0.2766E+00  0.2766E+00
      7.689  0.3024E-01  0.3031E-01  0.2791E+00  0.2791E+00
      7.770  0.2366E-01  0.2372E-01  0.2813E+00  0.2813E+00
      7.851  0.2060E-01  0.2061E-01  0.2830E+00  0.2830E+00
      7.932  0.2296E-01  0.2292E-01  0.2847E+00  0.2848E+00
      8.013  0.2210E-01  0.2210E-01  0.2865E+00  0.2866E+00
      8.093  0.2553E-01  0.2553E-01  0.2885E+00  0.2885E+00
      8.174  0.3156E-01  0.3155E-01  0.2907E+00  0.2908E+00
      8.255  0.1980E-01  0.1983E-01  0.2925E+00  0.2925E+00
      8.336  0.2445E-01  0.2441E-01  0.2943E+00  0.2943E+00
      8.417  0.2354E-01  0.2356E-01  0.2962E+00  0.2962E+00
      8.498  0.2411E-01  0.2417E-01  0.2981E+00  0.2981E+00
      8.578  0.2663E-01  0.2665E-01  0.3002E+00  0.3002E+00
      8.659  0.2501E-01  0.2496E-01  0.3023E+00  0.3023E+00
      8.740  0.2118E-01  0.2118E-01  0.3042E+00  0.3042E+00
      8.821  0.2323E-01  0.2322E-01  0.3059E+00  0.3059E+00
      8.902  0.2527E-01  0.2529E-01  0.3079E+00  0.3079E+00
      8.983  0.2756E-01  0.2730E-01  0.3100E+00  0.3100E+00
      9.063  0.1797E-01  0.1797E-01  0.3116E+00  0.3116E+00
      9.144  0.1776E-01  0.1778E-01  0.3130E+00  0.3130E+00
      9.225  0.2545E-01  0.2572E-01  0.3146E+00  0.3146E+00
      9.306  0.2749E-01  0.2747E-01  0.3169E+00  0.3169E+00
      9.387  0.2274E-01  0.2263E-01  0.3190E+00  0.3191E+00
      9.467  0.1418E-01  0.1413E-01  0.3205E+00  0.3205E+00
      9.548  0.9724E-02  0.9675E-02  0.3214E+00  0.3215E+00
      9.629  0.8986E-02  0.8946E-02  0.3222E+00  0.3222E+00
      9.710  0.5773E-02  0.5743E-02  0.3228E+00  0.3228E+00
      9.791  0.2021E-02  0.2020E-02  0.3231E+00  0.3231E+00
      9.872  0.3938E-03  0.3927E-03  0.3232E+00  0.3232E+00
      9.952  0.2801E-04  0.2784E-04  0.3232E+00  0.3232E+00
     10.033  0.0000E+00  0.0000E+00  0.3232E+00  0.3232E+00
     10.114  0.0000E+00  0.0000E+00  0.3232E+00  0.3232E+00
     10.195  0.0000E+00  0.0000E+00  0.3232E+00  0.3232E+00
     10.276  0.0000E+00  0.0000E+00  0.3232E+00  0.3232E+00
     10.356  0.0000E+00  0.0000E+00  0.3232E+00  0.3232E+00
     10.437  0.0000E+00  0.0000E+00  0.3232E+00  0.3232E+00
     10.518  0.0000E+00  0.0000E+00  0.3232E+00  0.3232E+00
     10.599  0.0000E+00  0.0000E+00  0.3232E+00  0.3232E+00
     10.680  0.0000E+00  0.0000E+00  0.3232E+00  0.3232E+00
     10.761  0.0000E+00  0.0000E+00  0.3232E+00  0.3232E+00
     10.841  0.0000E+00  0.0000E+00  0.3232E+00  0.3232E+00
     10.922  0.0000E+00  0.0000E+00  0.3232E+00  0.3232E+00
     11.003  0.0000E+00  0.0000E+00  0.3232E+00  0.3232E+00
     11.084  0.0000E+00  0.0000E+00  0.3232E+00  0.3232E+00
     11.08381107    -13.16207570  301     -2.35295763      1.00000000
    -13.162  0.0000E+00  0.0000E+00  0.0000E+00  0.0000E+00  0.0000E+00  0.0000E+00  0.0000E+00  0.0000E+00  0.0000E+00  0.0000E+00  0.0000E+00  0.0000E+00  0.0000E+00  0.0000E+00  0.0000E+00  0.0000E+00  0.0000E+00  0.0000E+00
    -13.081  0.0000E+00  0.0000E+00  0.0000E+00  0.0000E+00  0.0000E+00  0.0000E+00  0.0000E+00  0.0000E+00  0.0000E+00  0.0000E+00  0.0000E+00  0.0000E+00  0.0000E+00  0.0000E+00  0.0000E+00  0.0000E+00  0.0000E+00  0.0000E+00
    -13.000  0.0000E+00  0.0000E+00  0.0000E+00  0.0000E+00  0.0000E+00  0.0000E+00  0.0000E+00  0.0000E+00  0.0000E+00  0.0000E+00  0.0000E+00  0.0000E+00  0.0000E+00  0.0000E+00  0.0000E+00  0.0000E+00  0.0000E+00  0.0000E+00
    -12.920  0.0000E+00  0.0000E+00  0.0000E+00  0.0000E+00  0.0000E+00  0.0000E+00  0.0000E+00  0.0000E+00  0.0000E+00  0.0000E+00  0.0000E+00  0.0000E+00  0.0000E+00  0.0000E+00  0.0000E+00  0.0000E+00  0.0000E+00  0.0000E+00
    -12.839  0.0000E+00  0.0000E+00  0.0000E+00  0.0000E+00  0.0000E+00  0.0000E+00  0.0000E+00  0.0000E+00  0.0000E+00  0.0000E+00  0.0000E+00  0.0000E+00  0.0000E+00  0.0000E+00  0.0000E+00  0.0000E+00  0.0000E+00  0.0000E+00
    -12.758  0.0000E+00  0.0000E+00  0.0000E+00  0.0000E+00  0.0000E+00  0.0000E+00  0.0000E+00  0.0000E+00  0.0000E+00  0.0000E+00  0.0000E+00  0.0000E+00  0.0000E+00  0.0000E+00  0.0000E+00  0.0000E+00  0.0000E+00  0.0000E+00
    -12.677  0.0000E+00  0.0000E+00  0.0000E+00  0.0000E+00  0.0000E+00  0.0000E+00  0.0000E+00  0.0000E+00  0.0000E+00  0.0000E+00  0.0000E+00  0.0000E+00  0.0000E+00  0.0000E+00  0.0000E+00  0.0000E+00  0.0000E+00  0.0000E+00
    -12.596  0.0000E+00  0.0000E+00  0.0000E+00  0.0000E+00  0.0000E+00  0.0000E+00  0.0000E+00  0.0000E+00  0.0000E+00  0.0000E+00  0.0000E+00  0.0000E+00  0.0000E+00  0.0000E+00  0.0000E+00  0.0000E+00  0.0000E+00  0.0000E+00
    -12.516  0.0000E+00  0.0000E+00  0.0000E+00  0.0000E+00  0.0000E+00  0.0000E+00  0.0000E+00  0.0000E+00  0.0000E+00  0.0000E+00  0.0000E+00  0.0000E+00  0.0000E+00  0.0000E+00  0.0000E+00  0.0000E+00  0.0000E+00  0.0000E+00
    -12.435  0.0000E+00  0.0000E+00  0.0000E+00  0.0000E+00  0.0000E+00  0.0000E+00  0.0000E+00  0.0000E+00  0.0000E+00  0.0000E+00  0.0000E+00  0.0000E+00  0.0000E+00  0.0000E+00  0.0000E+00  0.0000E+00  0.0000E+00  0.0000E+00
    -12.354  0.0000E+00  0.0000E+00  0.0000E+00  0.0000E+00  0.0000E+00  0.0000E+00  0.0000E+00  0.0000E+00  0.0000E+00  0.0000E+00  0.0000E+00  0.0000E+00  0.0000E+00  0.0000E+00  0.0000E+00  0.0000E+00  0.0000E+00  0.0000E+00
    -12.273  0.0000E+00  0.0000E+00  0.0000E+00  0.0000E+00  0.0000E+00  0.0000E+00  0.0000E+00  0.0000E+00  0.0000E+00  0.0000E+00  0.0000E+00  0.0000E+00  0.0000E+00  0.0000E+00  0.0000E+00  0.0000E+00  0.0000E+00  0.0000E+00
    -12.192  0.0000E+00  0.0000E+00  0.0000E+00  0.0000E+00  0.0000E+00  0.0000E+00  0.0000E+00  0.0000E+00  0.0000E+00  0.0000E+00  0.0000E+00  0.0000E+00  0.0000E+00  0.0000E+00  0.0000E+00  0.0000E+00  0.0000E+00  0.0000E+00
    -12.111  0.0000E+00  0.0000E+00  0.0000E+00  0.0000E+00  0.0000E+00  0.0000E+00  0.0000E+00  0.0000E+00  0.0000E+00  0.0000E+00  0.0000E+00  0.0000E+00  0.0000E+00  0.0000E+00  0.0000E+00  0.0000E+00  0.0000E+00  0.0000E+00
    -12.031  0.6435E-03  0.6456E-03  0.1794E-06  0.1797E-06  0.9995E-07  0.9944E-07  0.1587E-04  0.1590E-04  0.0000E+00  0.0000E+00  0.0000E+00  0.0000E+00  0.0000E+00  0.0000E+00  0.0000E+00  0.0000E+00  0.0000E+00  0.0000E+00
    -11.950  0.4794E-02  0.4796E-02  0.2559E-05  0.2559E-05  0.6505E-06  0.6477E-06  0.1165E-03  0.1165E-03  0.0000E+00  0.0000E+00  0.0000E+00  0.0000E+00  0.0000E+00  0.0000E+00  0.0000E+00  0.0000E+00  0.0000E+00  0.0000E+00
    -11.869  0.5637E-02  0.5638E-02  0.3884E-05  0.3882E-05  0.8009E-06  0.7981E-06  0.1367E-03  0.1366E-03  0.0000E+00  0.0000E+00  0.0000E+00  0.0000E+00  0.0000E+00  0.0000E+00  0.0000E+00  0.0000E+00  0.0000E+00  0.0000E+00
    -11.788  0.4989E-02  0.4988E-02  0.3773E-05  0.3771E-05  0.7092E-06  0.7071E-06  0.1220E-03  0.1220E-03  0.0000E+00  0.0000E+00  0.0000E+00  0.0000E+00  0.0000E+00  0.0000E+00  0.0000E+00  0.0000E+00  0.0000E+00  0.0000E+00
    -11.707  0.2515E-02  0.2514E-02  0.2048E-05  0.2047E-05  0.4162E-06  0.4150E-06  0.6420E-04  0.6417E-04  0.0000E+00  0.0000E+00  0.0000E+00  0.0000E+00  0.0000E+00  0.0000E+00  0.0000E+00  0.0000E+00  0.0000E+00  0.0000E+00
    -11.627  0.2166E-02  0.2166E-02  0.1499E-05  0.1499E-05  0.3538E-06  0.3525E-06  0.5681E-04  0.5681E-04  0.0000E+00  0.0000E+00  0.0000E+00  0.0000E+00  0.0000E+00  0.0000E+00  0.0000E+00  0.0000E+00  0.0000E+00  0.0000E+00
    -11.546  0.2195E-02  0.2196E-02  0.1525E-05  0.1526E-05  0.3662E-06  0.3650E-06  0.5803E-04  0.5803E-04  0.0000E+00  0.0000E+00  0.0000E+00  0.0000E+00  0.0000E+00  0.0000E+00  0.0000E+00  0.0000E+00  0.0000E+00  0.0000E+00
    -11.465  0.2224E-02  0.2225E-02  0.1552E-05  0.1552E-05  0.3786E-06  0.3773E-06  0.5924E-04  0.5925E-04  0.0000E+00  0.0000E+00  0.0000E+00  0.0000E+00  0.0000E+00  0.0000E+00  0.0000E+00  0.0000E+00  0.0000E+00  0.0000E+00
    -11.384  0.2253E-02  0.2254E-02  0.1578E-05  0.1578E-05  0.3909E-06  0.3896E-06  0.6045E-04  0.6046E-04  0.0000E+00  0.0000E+00  0.0000E+00  0.0000E+00  0.0000E+00  0.0000E+00  0.0000E+00  0.0000E+00  0.0000E+00  0.0000E+00
    -11.303  0.2282E-02  0.2283E-02  0.1604E-05  0.1604E-05  0.4030E-06  0.4018E-06  0.6166E-04  0.6167E-04  0.0000E+00  0.0000E+00  0.0000E+00  0.0000E+00  0.0000E+00  0.0000E+00  0.0000E+00  0.0000E+00  0.0000E+00  0.0000E+00
    -11.222  0.2311E-02  0.2312E-02  0.1630E-05  0.1630E-05  0.4151E-06  0.4138E-06  0.6287E-04  0.6288E-04  0.0000E+00  0.0000E+00  0.0000E+00  0.0000E+00  0.0000E+00  0.0000E+00  0.0000E+00  0.0000E+00  0.0000E+00  0.0000E+00
    -11.142  0.2340E-02  0.2341E-02  0.1655E-05  0.1656E-05  0.4271E-06  0.4258E-06  0.6408E-04  0.6409E-04  0.0000E+00  0.0000E+00  0.0000E+00  0.0000E+00  0.0000E+00  0.0000E+00  0.0000E+00  0.0000E+00  0.0000E+00  0.0000E+00
    -11.061  0.1038E-01  0.1037E-01  0.8196E-05  0.8198E-05  0.2008E-05  0.2001E-05  0.2954E-03  0.2953E-03  0.0000E+00  0.0000E+00  0.0000E+00  0.0000E+00  0.0000E+00  0.0000E+00  0.0000E+00  0.0000E+00  0.0000E+00  0.0000E+00
    -10.980  0.2306E-03  0.2280E-03  0.1257E-06  0.1242E-06  0.3107E-07  0.3066E-07  0.6206E-05  0.6140E-05  0.0000E+00  0.0000E+00  0.0000E+00  0.0000E+00  0.0000E+00  0.0000E+00  0.0000E+00  0.0000E+00  0.0000E+00  0.0000E+00
    -10.899  0.0000E+00  0.0000E+00  0.0000E+00  0.0000E+00  0.0000E+00  0.0000E+00  0.0000E+00  0.0000E+00  0.0000E+00  0.0000E+00  0.0000E+00  0.0000E+00  0.0000E+00  0.0000E+00  0.0000E+00  0.0000E+00  0.0000E+00  0.0000E+00
    -10.818  0.0000E+00  0.0000E+00  0.0000E+00  0.0000E+00  0.0000E+00  0.0000E+00  0.0000E+00  0.0000E+00  0.0000E+00  0.0000E+00  0.0000E+00  0.0000E+00  0.0000E+00  0.0000E+00  0.0000E+00  0.0000E+00  0.0000E+00  0.0000E+00
    -10.737  0.0000E+00  0.0000E+00  0.0000E+00  0.0000E+00  0.0000E+00  0.0000E+00  0.0000E+00  0.0000E+00  0.0000E+00  0.0000E+00  0.0000E+00  0.0000E+00  0.0000E+00  0.0000E+00  0.0000E+00  0.0000E+00  0.0000E+00  0.0000E+00
    -10.657  0.0000E+00  0.0000E+00  0.0000E+00  0.0000E+00  0.0000E+00  0.0000E+00  0.0000E+00  0.0000E+00  0.0000E+00  0.0000E+00  0.0000E+00  0.0000E+00  0.0000E+00  0.0000E+00  0.0000E+00  0.0000E+00  0.0000E+00  0.0000E+00
    -10.576  0.0000E+00  0.0000E+00  0.0000E+00  0.0000E+00  0.0000E+00  0.0000E+00  0.0000E+00  0.0000E+00  0.0000E+00  0.0000E+00  0.0000E+00  0.0000E+00  0.0000E+00  0.0000E+00  0.0000E+00  0.0000E+00  0.0000E+00  0.0000E+00
    -10.495  0.0000E+00  0.0000E+00  0.0000E+00  0.0000E+00  0.0000E+00  0.0000E+00  0.0000E+00  0.0000E+00  0.0000E+00  0.0000E+00  0.0000E+00  0.0000E+00  0.0000E+00  0.0000E+00  0.0000E+00  0.0000E+00  0.0000E+00  0.0000E+00
    -10.414  0.0000E+00  0.0000E+00  0.0000E+00  0.0000E+00  0.0000E+00  0.0000E+00  0.0000E+00  0.0000E+00  0.0000E+00  0.0000E+00  0.0000E+00  0.0000E+00  0.0000E+00  0.0000E+00  0.0000E+00  0.0000E+00  0.0000E+00  0.0000E+00
    -10.333  0.2271E-02  0.2268E-02  0.1001E-04  0.9996E-05  0.1406E-04  0.1403E-04  0.6822E-04  0.6812E-04  0.0000E+00  0.0000E+00  0.0000E+00  0.0000E+00  0.0000E+00  0.0000E+00  0.0000E+00  0.0000E+00  0.0000E+00  0.0000E+00
    -10.253  0.6758E-02  0.6756E-02  0.3209E-04  0.3208E-04  0.4174E-04  0.4171E-04  0.2047E-03  0.2047E-03  0.0000E+00  0.0000E+00  0.0000E+00  0.0000E+00  0.0000E+00  0.0000E+00  0.0000E+00  0.0000E+00  0.0000E+00  0.0000E+00
    -10.172  0.1056E-01  0.1056E-01  0.5484E-04  0.5485E-04  0.6196E-04  0.6192E-04  0.3267E-03  0.3267E-03  0.0000E+00  0.0000E+00  0.0000E+00  0.0000E+00  0.0000E+00  0.0000E+00  0.0000E+00  0.0000E+00  0.0000E+00  0.0000E+00
    -10.091  0.1309E-01  0.1309E-01  0.6453E-04  0.6454E-04  0.6546E-04  0.6542E-04  0.4116E-03  0.4117E-03  0.0000E+00  0.0000E+00  0.0000E+00  0.0000E+00  0.0000E+00  0.0000E+00  0.0000E+00  0.0000E+00  0.0000E+00  0.0000E+00
    -10.010  0.2913E-01  0.2915E-01  0.9793E-04  0.9799E-04  0.7716E-04  0.7711E-04  0.9788E-03  0.9794E-03  0.0000E+00  0.0000E+00  0.0000E+00  0.0000E+00  0.0000E+00  0.0000E+00  0.0000E+00  0.0000E+00  0.0000E+00  0.0000E+00
     -9.929  0.3056E-01  0.3056E-01  0.1214E-03  0.1215E-03  0.7937E-04  0.7930E-04  0.1009E-02  0.1010E-02  0.0000E+00  0.0000E+00  0.0000E+00  0.0000E+00  0.0000E+00  0.0000E+00  0.0000E+00  0.0000E+00  0.0000E+00  0.0000E+00
     -9.848  0.4345E-01  0.4345E-01  0.1512E-03  0.1512E-03  0.9496E-04  0.9485E-04  0.1405E-02  0.1405E-02  0.0000E+00  0.0000E+00  0.0000E+00  0.0000E+00  0.0000E+00  0.0000E+00  0.0000E+00  0.0000E+00  0.0000E+00  0.0000E+00
     -9.768  0.3023E-02  0.3020E-02  0.1582E-04  0.1581E-04  0.1140E-04  0.1138E-04  0.1044E-03  0.1043E-03  0.0000E+00  0.0000E+00  0.0000E+00  0.0000E+00  0.0000E+00  0.0000E+00  0.0000E+00  0.0000E+00  0.0000E+00  0.0000E+00
     -9.687  0.7216E-02  0.7215E-02  0.3826E-04  0.3825E-04  0.3153E-04  0.3151E-04  0.2554E-03  0.2554E-03  0.0000E+00  0.0000E+00  0.0000E+00  0.0000E+00  0.0000E+00  0.0000E+00  0.0000E+00  0.0000E+00  0.0000E+00  0.0000E+00
     -9.606  0.1261E-01  0.1261E-01  0.7015E-04  0.7017E-04  0.4927E-04  0.4926E-04  0.4527E-03  0.4528E-03  0.0000E+00  0.0000E+00  0.0000E+00  0.0000E+00  0.0000E+00  0.0000E+00  0.0000E+00  0.0000E+00  0.0000E+00  0.0000E+00
     -9.525  0.2003E-01  0.2003E-01  0.1116E-03  0.1116E-03  0.7139E-04  0.7137E-04  0.7093E-03  0.7095E-03  0.0000E+00  0.0000E+00  0.0000E+00  0.0000E+00  0.0000E+00  0.0000E+00  0.0000E+00  0.0000E+00  0.0000E+00  0.0000E+00
     -9.444  0.5064E-01  0.5066E-01  0.2831E-03  0.2832E-03  0.1733E-03  0.1732E-03  0.1782E-02  0.1782E-02  0.0000E+00  0.0000E+00  0.0000E+00  0.0000E+00  0.0000E+00  0.0000E+00  0.0000E+00  0.0000E+00  0.0000E+00  0.0000E+00
     -9.364  0.7983E-01  0.7985E-01  0.4420E-03  0.4422E-03  0.2604E-03  0.2603E-03  0.2766E-02  0.2766E-02  0.0000E+00  0.0000E+00  0.0000E+00  0.0000E+00  0.0000E+00  0.0000E+00  0.0000E+00  0.0000E+00  0.0000E+00  0.0000E+00
     -9.283  0.1009E+00  0.1009E+00  0.5751E-03  0.5755E-03  0.3257E-03  0.3256E-03  0.3486E-02  0.3488E-02  0.0000E+00  0.0000E+00  0.0000E+00  0.0000E+00  0.0000E+00  0.0000E+00  0.0000E+00  0.0000E+00  0.0000E+00  0.0000E+00
     -9.202  0.1143E+00  0.1143E+00  0.6384E-03  0.6383E-03  0.3824E-03  0.3822E-03  0.3918E-02  0.3917E-02  0.0000E+00  0.0000E+00  0.0000E+00  0.0000E+00  0.0000E+00  0.0000E+00  0.0000E+00  0.0000E+00  0.0000E+00  0.0000E+00
     -9.121  0.2315E-01  0.2314E-01  0.1381E-03  0.1381E-03  0.6498E-04  0.6491E-04  0.8160E-03  0.8156E-03  0.0000E+00  0.0000E+00  0.0000E+00  0.0000E+00  0.0000E+00  0.0000E+00  0.0000E+00  0.0000E+00  0.0000E+00  0.0000E+00