       N       E                     dE             d eps       ncg     rms          rms(c)
DAV:   1     0.293713599576E+03    0.29371E+03   -0.17665E+04 16552   0.809E+02
DAV:   2    -0.287445048473E+02   -0.32246E+03   -0.31231E+03 20016   0.358E+02
DAV:   3    -0.532474440437E+02   -0.24503E+02   -0.24168E+02 26144   0.794E+01
DAV:   4    -0.547155725788E+02   -0.14681E+01   -0.14625E+01 27776   0.162E+01
DAV:   5    -0.547492163213E+02   -0.33644E-01   -0.33620E-01 24752   0.243E+00    0.711E+01
DAV:   6    -0.500315214530E+02    0.47177E+01   -0.21276E+01 25032   0.232E+01    0.284E+01
DAV:   7    -0.496380046284E+02    0.39352E+00   -0.76598E+00 24784   0.139E+01    0.177E+01
DAV:   8    -0.498894412775E+02   -0.25144E+00   -0.97246E+00 26472   0.118E+01    0.769E+00
DAV:   9    -0.492378714008E+02    0.65157E+00   -0.45885E+00 26512   0.721E+00    0.226E+00
DAV:  10    -0.492299512753E+02    0.79201E-02   -0.11191E-01 22824   0.179E+00    0.613E-01
DAV:  11    -0.492297739577E+02    0.17732E-03   -0.16104E-02 23000   0.631E-01    0.331E-01
DAV:  12    -0.492298768298E+02   -0.10287E-03   -0.25485E-03 23096   0.280E-01    0.128E-01
DAV:  13    -0.492300664403E+02   -0.18961E-03   -0.41392E-04 15336   0.124E-01    0.354E-02
DAV:  14    -0.492300928565E+02   -0.26416E-04   -0.62696E-05 11224   0.579E-02
   1 F= -.49230093E+02 E0= -.49229047E+02  d E =-.492301E+02
       N       E                     dE             d eps       ncg     rms          rms(c)
DAV:   1    -0.426492538979E+02    0.65808E+01   -0.11636E+03 15968   0.175E+02    0.398E+01
DAV:   2    -0.548096308518E+02   -0.12160E+02   -0.21255E+02 22928   0.668E+01    0.367E+01
DAV:   3    -0.550743480237E+02   -0.26472E+00   -0.26292E+01 25120   0.199E+01    0.281E+01
DAV:   4    -0.553586941897E+02   -0.28435E+00   -0.13182E+01 28272   0.109E+01    0.239E+01
DAV:   5    -0.543993572657E+02    0.95934E+00   -0.82834E+00 28288   0.114E+01    0.118E+01
DAV:   6    -0.543424312928E+02    0.56926E-01   -0.14897E+00 27000   0.427E+00    0.608E+00
DAV:   7    -0.543314984259E+02    0.10933E-01   -0.43316E-01 25880   0.274E+00    0.301E+00
DAV:   8    -0.543209795189E+02    0.10519E-01   -0.47896E-02 27848   0.125E+00    0.711E-01
DAV:   9    -0.543183131875E+02    0.26663E-02   -0.23167E-02 23544   0.640E-01    0.299E-01
DAV:  10    -0.543182783517E+02    0.34836E-04   -0.21559E-03 25632   0.239E-01    0.108E-01
DAV:  11    -0.543182550154E+02    0.23336E-04   -0.20540E-04 13376   0.781E-02
   2 F= -.54318255E+02 E0= -.54318061E+02  d E =-.508816E+01
       N       E                     dE             d eps       ncg     rms          rms(c)
DAV:   1    -0.542833001549E+02    0.34978E-01   -0.12618E+02 15912   0.551E+01    0.898E+00
DAV:   2    -0.546159318742E+02   -0.33263E+00   -0.10326E+01 22384   0.194E+01    0.618E+00
DAV:   3    -0.546337276308E+02   -0.17796E-01   -0.61544E+00 29672   0.825E+00    0.506E+00
DAV:   4    -0.543959757602E+02    0.23775E+00   -0.12257E+00 25232   0.416E+00    0.249E+00
DAV:   5    -0.543958095566E+02    0.16620E-03   -0.11639E-01 26520   0.168E+00    0.108E+00
DAV:   6    -0.543952850647E+02    0.52449E-03   -0.27813E-02 23784   0.752E-01    0.540E-01
DAV:   7    -0.543963435413E+02   -0.10585E-02   -0.45504E-03 31328   0.300E-01    0.173E-01
DAV:   8    -0.543963013475E+02    0.42194E-04   -0.68558E-04 16720   0.134E-01
   3 F= -.54396301E+02 E0= -.54395963E+02  d E =-.516621E+01
       N       E                     dE             d eps       ncg     rms          rms(c)
DAV:   1    -0.544332933302E+02   -0.36950E-01   -0.21403E+01 15912   0.230E+01    0.300E+00
DAV:   2    -0.544976193849E+02   -0.64326E-01   -0.18367E+00 22896   0.822E+00    0.266E+00
DAV:   3    -0.544703716447E+02    0.27248E-01   -0.80334E-01 31384   0.453E+00    0.221E+00
DAV:   4    -0.544454452585E+02    0.24926E-01   -0.17035E-01 24836   0.128E+00    0.117E+00
DAV:   5    -0.544423504996E+02    0.30948E-02   -0.19012E-02 25400   0.672E-01    0.426E-01
DAV:   6    -0.544425902222E+02   -0.23972E-03   -0.26502E-03 25600   0.225E-01    0.264E-01
DAV:   7    -0.544427081374E+02   -0.11792E-03   -0.53999E-04 22272   0.104E-01    0.553E-02
DAV:   8    -0.544427003964E+02    0.77410E-05   -0.60502E-05 10544   0.605E-02
   4 F= -.54442700E+02 E0= -.54442446E+02  d E =-.521261E+01
       N       E                     dE             d eps       ncg     rms          rms(c)
DAV:   1    -0.554314656356E+02   -0.98876E+00   -0.80562E+01 15912   0.599E+01    0.776E+00
DAV:   2    -0.559888845248E+02   -0.55742E+00   -0.93958E+00 17464   0.174E+01    0.392E+00
DAV:   3    -0.560073257461E+02   -0.18441E-01   -0.23089E+00 24848   0.754E+00    0.336E+00
DAV:   4    -0.558774779311E+02    0.12985E+00   -0.12263E+00 24872   0.371E+00    0.163E+00
DAV:   5    -0.558645379471E+02    0.12940E-01   -0.94425E-02 26032   0.155E+00    0.484E-01
DAV:   6    -0.558648928658E+02   -0.35492E-03   -0.72067E-03 22200   0.490E-01    0.272E-01
DAV:   7    -0.558650428409E+02   -0.14998E-03   -0.10430E-03 26024   0.169E-01    0.807E-02
DAV:   8    -0.558650460657E+02   -0.32248E-05   -0.10112E-04 10616   0.629E-02
   5 F= -.55865046E+02 E0= -.55864792E+02  d E =-.142235E+01
       N       E                     dE             d eps       ncg     rms          rms(c)
DAV:   1    -0.538489458498E+02    0.20161E+01   -0.67151E+02 15912   0.170E+02    0.189E+01
DAV:   2    -0.581806203726E+02   -0.43317E+01   -0.71366E+01 18848   0.490E+01    0.967E+00
DAV:   3    -0.577234490526E+02    0.45717E+00   -0.94326E+00 27176   0.153E+01    0.573E+00
DAV:   4    -0.574072465081E+02    0.31620E+00   -0.31423E+00 24084   0.725E+00    0.406E+00
DAV:   5    -0.573060938953E+02    0.10115E+00   -0.71946E-01 23008   0.429E+00    0.127E+00
DAV:   6    -0.573045896075E+02    0.15043E-02   -0.11319E-01 24136   0.180E+00    0.712E-01
DAV:   7    -0.573058317485E+02   -0.12421E-02   -0.11263E-02 26736   0.618E-01    0.257E-01
DAV:   8    -0.573058060414E+02    0.25707E-04   -0.22002E-03 23216   0.285E-01    0.968E-02
DAV:   9    -0.573058227972E+02   -0.16756E-04   -0.17766E-04 10840   0.842E-02
   6 F= -.57305823E+02 E0= -.57305277E+02  d E =-.286312E+01
       N       E                     dE             d eps       ncg     rms          rms(c)
DAV:   1    -0.572214396148E+02    0.84366E-01   -0.33284E+01 15912   0.389E+01    0.362E+00
DAV:   2    -0.574468820559E+02   -0.22544E+00   -0.39205E+00 18628   0.118E+01    0.234E+00
DAV:   3    -0.574131064500E+02    0.33776E-01   -0.70886E-01 24172   0.386E+00    0.149E+00
DAV:   4    -0.573842413840E+02    0.28865E-01   -0.15424E-01 24860   0.229E+00    0.787E-01
DAV:   5    -0.573801904877E+02    0.40509E-02   -0.20903E-02 21904   0.788E-01    0.321E-01
DAV:   6    -0.573802910253E+02   -0.10054E-03   -0.35394E-03 27704   0.332E-01    0.138E-01
DAV:   7    -0.573802871049E+02    0.39204E-05   -0.30725E-04 14200   0.104E-01
   7 F= -.57380287E+02 E0= -.57379646E+02  d E =-.293759E+01
       N       E                     dE             d eps       ncg     rms          rms(c)
DAV:   1    -0.579944079741E+02   -0.61412E+00   -0.13954E+02 17368   0.837E+01    0.120E+01
DAV:   2    -0.585645484532E+02   -0.57014E+00   -0.16134E+01 16828   0.242E+01    0.376E+00
DAV:   3    -0.584550540929E+02    0.10949E+00   -0.75726E-01 25904   0.491E+00    0.237E+00
DAV:   4    -0.584208734964E+02    0.34181E-01   -0.15161E-01 25296   0.212E+00    0.140E+00
DAV:   5    -0.584223298993E+02   -0.14564E-02   -0.48921E-02 29296   0.107E+00    0.112E+00
DAV:   6    -0.584263875201E+02   -0.40576E-02   -0.33720E-02 29208   0.860E-01    0.709E-01
DAV:   7    -0.584245673783E+02    0.18201E-02   -0.19629E-02 28544   0.601E-01    0.182E-01
DAV:   8    -0.584245015603E+02    0.65818E-04   -0.19212E-03 28416   0.258E-01    0.796E-02
DAV:   9    -0.584245126246E+02   -0.11064E-04   -0.25003E-04 14232   0.803E-02
   8 F= -.58424513E+02 E0= -.58423555E+02  d E =-.104423E+01
       N       E                     dE             d eps       ncg     rms          rms(c)
DAV:   1    -0.584502571666E+02   -0.25756E-01   -0.26639E+01 17680   0.374E+01    0.514E+00
DAV:   2    -0.585643741198E+02   -0.11412E+00   -0.32614E+00 17416   0.109E+01    0.157E+00
DAV:   3    -0.585421855808E+02    0.22189E-01   -0.14040E-01 24168   0.221E+00    0.949E-01
DAV:   4    -0.585371857287E+02    0.49999E-02   -0.44469E-02 26920   0.110E+00    0.677E-01
DAV:   5    -0.585364248879E+02    0.76084E-03   -0.18787E-02 24376   0.682E-01    0.564E-01
DAV:   6    -0.585367627671E+02   -0.33788E-03   -0.49377E-03 29448   0.348E-01    0.297E-01
DAV:   7    -0.585369266044E+02   -0.16384E-03   -0.11099E-03 23992   0.146E-01    0.767E-02
DAV:   8    -0.585369386435E+02   -0.12039E-04   -0.24427E-04 14216   0.102E-01
   9 F= -.58536939E+02 E0= -.58536109E+02  d E =-.115665E+01
       N       E                     dE             d eps       ncg     rms          rms(c)
DAV:   1    -0.585150197656E+02    0.21907E-01   -0.11999E+02 15912   0.759E+01    0.932E+00
DAV:   2    -0.594269480030E+02   -0.91193E+00   -0.13335E+01 17596   0.223E+01    0.278E+00
DAV:   3    -0.593932800292E+02    0.33668E-01   -0.61780E-01 24976   0.468E+00    0.183E+00
DAV:   4    -0.593864703648E+02    0.68097E-02   -0.22157E-01 27680   0.246E+00    0.149E+00
DAV:   5    -0.593739311680E+02    0.12539E-01   -0.10298E-01 24144   0.164E+00    0.825E-01
DAV:   6    -0.593752388636E+02   -0.13077E-02   -0.13561E-02 27032   0.592E-01    0.421E-01
DAV:   7    -0.593758572506E+02   -0.61839E-03   -0.21102E-03 29896   0.209E-01    0.129E-01
DAV:   8    -0.593758638846E+02   -0.66340E-05   -0.27031E-04 14512   0.976E-02
  10 F= -.59375864E+02 E0= -.59375547E+02  d E =-.838925E+00
       N       E                     dE             d eps       ncg     rms          rms(c)
DAV:   1    -0.593125362954E+02    0.63321E-01   -0.19125E+01 15912   0.308E+01    0.354E+00
DAV:   2    -0.594627705794E+02   -0.15023E+00   -0.21939E+00 17856   0.904E+00    0.121E+00
DAV:   3    -0.594582654753E+02    0.45051E-02   -0.11681E-01 25312   0.205E+00    0.763E-01
DAV:   4    -0.594555616144E+02    0.27039E-02   -0.41957E-02 25544   0.107E+00    0.582E-01
DAV:   5    -0.594536874299E+02    0.18742E-02   -0.14721E-02 27808   0.662E-01    0.297E-01
DAV:   6    -0.594539124444E+02   -0.22501E-03   -0.16363E-03 23304   0.218E-01    0.145E-01
DAV:   7    -0.594539894088E+02   -0.76964E-04   -0.35210E-04 19888   0.939E-02
  11 F= -.59453989E+02 E0= -.59453780E+02  d E =-.917051E+00
       N       E                     dE             d eps       ncg     rms          rms(c)
DAV:   1    -0.586388104195E+02    0.81510E+00   -0.14663E+02 15912   0.900E+01    0.559E+00
DAV:   2    -0.599558731550E+02   -0.13171E+01   -0.16497E+01 16340   0.241E+01    0.313E+00
DAV:   3    -0.599585721759E+02   -0.26990E-02   -0.61688E-01 25520   0.490E+00    0.228E+00
DAV:   4    -0.599452555781E+02    0.13317E-01   -0.11670E-01 25432   0.195E+00    0.123E+00
DAV:   5    -0.599398284777E+02    0.54271E-02   -0.10768E-01 24400   0.160E+00    0.641E-01
DAV:   6    -0.599371956845E+02    0.26328E-02   -0.19370E-02 26040   0.752E-01    0.262E-01
DAV:   7    -0.599371907688E+02    0.49157E-05   -0.18497E-03 24528   0.258E-01    0.125E-01
DAV:   8    -0.599371867463E+02    0.40225E-05   -0.51027E-04 17448   0.129E-01
  12 F= -.59937187E+02 E0= -.59936853E+02  d E =-.483197E+00
       N       E                     dE             d eps       ncg     rms          rms(c)
DAV:   1    -0.599345234333E+02    0.26673E-02   -0.49511E-01 18104   0.523E+00    0.335E-01
DAV:   2    -0.599390069137E+02   -0.44835E-02   -0.55362E-02 17128   0.135E+00    0.162E-01
DAV:   3    -0.599389733144E+02    0.33599E-04   -0.16350E-03 24788   0.249E-01    0.973E-02
DAV:   4    -0.599389075862E+02    0.65728E-04   -0.28487E-04 15288   0.113E-01
  13 F= -.59938908E+02 E0= -.59938565E+02  d E =-.484918E+00
       N       E                     dE             d eps       ncg     rms          rms(c)
DAV:   1    -0.599519014903E+02   -0.12928E-01   -0.80701E+01 15912   0.630E+01    0.460E+00
DAV:   2    -0.605347525556E+02   -0.58285E+00   -0.88964E+00 16600   0.174E+01    0.295E+00
DAV:   3    -0.605069969073E+02    0.27756E-01   -0.45271E-01 24008   0.404E+00    0.223E+00
DAV:   4    -0.604907453686E+02    0.16252E-01   -0.21484E-01 24512   0.216E+00    0.150E+00
DAV:   5    -0.604723517904E+02    0.18394E-01   -0.11527E-01 23168   0.178E+00    0.354E-01
DAV:   6    -0.604720892390E+02    0.26255E-03   -0.12123E-02 20736   0.605E-01    0.228E-01
DAV:   7    -0.604720305038E+02    0.58735E-04   -0.17932E-03 25480   0.265E-01    0.114E-01
DAV:   8    -0.604720501714E+02   -0.19668E-04   -0.36031E-04 16152   0.109E-01
  14 F= -.60472050E+02 E0= -.60471026E+02  d E =-.533143E+00
       N       E                     dE             d eps       ncg     rms          rms(c)
DAV:   1    -0.590800841513E+02    0.13919E+01   -0.28185E+02 15912   0.114E+02    0.821E+00
DAV:   2    -0.609451298102E+02   -0.18650E+01   -0.28547E+01 16492   0.312E+01    0.507E+00
DAV:   3    -0.608416991222E+02    0.10343E+00   -0.15538E+00 27128   0.748E+00    0.386E+00
DAV:   4    -0.607861433568E+02    0.55556E-01   -0.56158E-01 23368   0.335E+00    0.260E+00
DAV:   5    -0.607356411609E+02    0.50502E-01   -0.34844E-01 22960   0.273E+00    0.742E-01
DAV:   6    -0.607346342307E+02    0.10069E-02   -0.43492E-02 24048   0.105E+00    0.442E-01
DAV:   7    -0.607346441256E+02   -0.98948E-05   -0.43250E-03 25320   0.403E-01    0.173E-01
DAV:   8    -0.607346868098E+02   -0.42684E-04   -0.11538E-03 21328   0.186E-01    0.612E-02
DAV:   9    -0.607346955466E+02   -0.87368E-05   -0.63985E-05 10624   0.547E-02
  15 F= -.60734696E+02 E0= -.60734427E+02  d E =-.795788E+00
       N       E                     dE             d eps       ncg     rms          rms(c)
DAV:   1    -0.610243947189E+02   -0.28971E+00   -0.32176E+01 15912   0.350E+01    0.464E+00
DAV:   2    -0.610724504708E+02   -0.48056E-01   -0.28239E+00 18980   0.107E+01    0.161E+00
DAV:   3    -0.610470269101E+02    0.25424E-01   -0.13715E-01 23784   0.201E+00    0.925E-01
DAV:   4    -0.610365188140E+02    0.10508E-01   -0.41850E-02 24840   0.105E+00    0.599E-01
DAV:   5    -0.610370558619E+02   -0.53705E-03   -0.50091E-03 24784   0.373E-01    0.421E-01
DAV:   6    -0.610373939774E+02   -0.33812E-03   -0.20588E-03 29344   0.205E-01    0.964E-02
DAV:   7    -0.610373542665E+02    0.39711E-04   -0.15832E-03 19864   0.163E-01    0.570E-02
DAV:   8    -0.610373133170E+02    0.40949E-04   -0.24598E-04 10636   0.717E-02
  16 F= -.61037313E+02 E0= -.61036990E+02  d E =-.302618E+00
       N       E                     dE             d eps       ncg     rms          rms(c)
DAV:   1    -0.612294081334E+02   -0.19205E+00   -0.11107E+02 15912   0.650E+01    0.985E+00
DAV:   2    -0.613979249389E+02   -0.16852E+00   -0.97253E+00 19412   0.198E+01    0.314E+00
DAV:   3    -0.613046052829E+02    0.93320E-01   -0.48491E-01 25912   0.368E+00    0.179E+00
DAV:   4    -0.612721224269E+02    0.32483E-01   -0.16547E-01 26624   0.224E+00    0.125E+00
DAV:   5    -0.612705121562E+02    0.16103E-02   -0.51752E-02 23928   0.110E+00    0.994E-01
DAV:   6    -0.612706965445E+02   -0.18439E-03   -0.94326E-03 29152   0.438E-01    0.584E-01
DAV:   7    -0.612711816616E+02   -0.48512E-03   -0.22912E-03 25112   0.225E-01    0.541E-02
DAV:   8    -0.612711736254E+02    0.80362E-05   -0.23502E-04 14608   0.994E-02
  17 F= -.61271174E+02 E0= -.61270776E+02  d E =-.536478E+00
       N       E                     dE             d eps       ncg     rms          rms(c)
DAV:   1    -0.615385671185E+02   -0.26739E+00   -0.14594E+01 15912   0.278E+01    0.398E+00
DAV:   2    -0.616129629576E+02   -0.74396E-01   -0.20501E+00 17160   0.889E+00    0.121E+00
DAV:   3    -0.615977667338E+02    0.15196E-01   -0.94540E-02 22912   0.191E+00    0.661E-01
DAV:   4    -0.615931677548E+02    0.45990E-02   -0.31979E-02 26480   0.914E-01    0.564E-01
DAV:   5    -0.615924529246E+02    0.71483E-03   -0.12286E-02 25480   0.521E-01    0.481E-01
DAV:   6    -0.615928195166E+02   -0.36659E-03   -0.16464E-03 25896   0.204E-01    0.230E-01
DAV:   7    -0.615928363081E+02   -0.16791E-04   -0.11173E-03 26128   0.152E-01    0.497E-02
DAV:   8    -0.615928436021E+02   -0.72940E-05   -0.20574E-04 15680   0.767E-02
  18 F= -.61592844E+02 E0= -.61592526E+02  d E =-.321670E+00
       N       E                     dE             d eps       ncg     rms          rms(c)
DAV:   1    -0.616168837346E+02   -0.24047E-01   -0.55940E+01 16120   0.549E+01    0.900E+00
DAV:   2    -0.619203092274E+02   -0.30343E+00   -0.78947E+00 17428   0.175E+01    0.244E+00
DAV:   3    -0.618558141412E+02    0.64495E-01   -0.40504E-01 23480   0.392E+00    0.131E+00
DAV:   4    -0.618426060496E+02    0.13208E-01   -0.18222E-01 26264   0.213E+00    0.110E+00
DAV:   5    -0.618354805126E+02    0.71255E-02   -0.64556E-02 28152   0.132E+00    0.905E-01
DAV:   6    -0.618374731174E+02   -0.19926E-02   -0.62876E-03 26344   0.453E-01    0.417E-01
DAV:   7    -0.618376130053E+02   -0.13989E-03   -0.37761E-03 27136   0.282E-01    0.983E-02
DAV:   8    -0.618376182587E+02   -0.52534E-05   -0.76096E-04 24064   0.148E-01
  19 F= -.61837618E+02 E0= -.61837436E+02  d E =-.566445E+00
       N       E                     dE             d eps       ncg     rms          rms(c)
DAV:   1    -0.619145118281E+02   -0.76899E-01   -0.19766E+01 17680   0.311E+01    0.266E+00
DAV:   2    -0.620532763226E+02   -0.13876E+00   -0.20242E+00 17912   0.856E+00    0.139E+00
DAV:   3    -0.620453892363E+02    0.78871E-02   -0.85318E-02 27944   0.168E+00    0.761E-01
DAV:   4    -0.620427375462E+02    0.26517E-02   -0.38706E-02 24552   0.103E+00    0.522E-01
DAV:   5    -0.620406024747E+02    0.21351E-02   -0.15353E-02 23048   0.613E-01    0.161E-01
DAV:   6    -0.620406252261E+02   -0.22751E-04   -0.87230E-04 21400   0.182E-01
  20 F= -.62040625E+02 E0= -.62040812E+02  d E =-.203007E+00
       N       E                     dE             d eps       ncg     rms          rms(c)
DAV:   1    -0.620269713015E+02    0.13631E-01   -0.77254E+00 17680   0.195E+01    0.161E+00
DAV:   2    -0.620808311348E+02   -0.53860E-01   -0.78946E-01 17960   0.535E+00    0.876E-01
DAV:   3    -0.620776340918E+02    0.31970E-02   -0.30520E-02 25712   0.102E+00    0.453E-01
DAV:   4    -0.620767776769E+02    0.85641E-03   -0.14307E-02 26472   0.638E-01    0.313E-01
DAV:   5    -0.620759664549E+02    0.81122E-03   -0.57048E-03 23008   0.371E-01    0.965E-02
DAV:   6    -0.620759741818E+02   -0.77269E-05   -0.27937E-04 15776   0.102E-01
  21 F= -.62075974E+02 E0= -.62076160E+02  d E =-.238356E+00
       N       E                     dE             d eps       ncg     rms          rms(c)
DAV:   1    -0.620339763458E+02    0.41990E-01   -0.18770E+01 17680   0.335E+01    0.262E+00
DAV:   2    -0.622391211646E+02   -0.20514E+00   -0.28062E+00 16348   0.902E+00    0.111E+00
DAV:   3    -0.622363391679E+02    0.27820E-02   -0.78405E-02 23552   0.177E+00    0.701E-01
DAV:   4    -0.622334789794E+02    0.28602E-02   -0.19814E-02 25872   0.784E-01    0.428E-01
DAV:   5    -0.622333423878E+02    0.13659E-03   -0.76634E-03 23304   0.426E-01    0.270E-01
DAV:   6    -0.622333166785E+02    0.25709E-04   -0.17533E-03 24224   0.242E-01    0.175E-01
DAV:   7    -0.622333138329E+02    0.28456E-05   -0.30815E-04 14128   0.101E-01
  22 F= -.62233314E+02 E0= -.62233700E+02  d E =-.157340E+00
       N       E                     dE             d eps       ncg     rms          rms(c)
DAV:   1    -0.620590323370E+02    0.17428E+00   -0.22298E+01 17680   0.363E+01    0.274E+00
DAV:   2    -0.623001592115E+02   -0.24113E+00   -0.33183E+00 16428   0.985E+00    0.123E+00
DAV:   3    -0.622971628850E+02    0.29963E-02   -0.10008E-01 23864   0.199E+00    0.737E-01
DAV:   4    -0.622943328841E+02    0.28300E-02   -0.29281E-02 26272   0.858E-01    0.572E-01
DAV:   5    -0.622930121281E+02    0.13208E-02   -0.12445E-02 26552   0.562E-01    0.304E-01
DAV:   6    -0.622930805945E+02   -0.68466E-04   -0.14731E-03 23240   0.250E-01    0.190E-01
DAV:   7    -0.622931080530E+02   -0.27459E-04   -0.34592E-04 17624   0.916E-02
  23 F= -.62293108E+02 E0= -.62293433E+02  d E =-.217134E+00
       N       E                     dE             d eps       ncg     rms          rms(c)
DAV:   1    -0.623139638315E+02   -0.20883E-01   -0.14780E+01 16688   0.270E+01    0.175E+00
DAV:   2    -0.624295745719E+02   -0.11561E+00   -0.15166E+00 17896   0.753E+00    0.124E+00
DAV:   3    -0.624274788625E+02    0.20957E-02   -0.72431E-02 26000   0.161E+00    0.668E-01
DAV:   4    -0.624256693020E+02    0.18096E-02   -0.17262E-02 25944   0.674E-01    0.518E-01
DAV:   5    -0.624245535855E+02    0.11157E-02   -0.83703E-03 24904   0.489E-01    0.101E-01
DAV:   6    -0.624245446618E+02    0.89237E-05   -0.65972E-04 18888   0.165E-01
  24 F= -.62424545E+02 E0= -.62424843E+02  d E =-.131437E+00
       N       E                     dE             d eps       ncg     rms          rms(c)
DAV:   1    -0.623235372395E+02    0.10102E+00   -0.22443E+01 17192   0.332E+01    0.215E+00
DAV:   2    -0.624962414036E+02   -0.17270E+00   -0.22879E+00 18116   0.920E+00    0.155E+00
DAV:   3    -0.624925446260E+02    0.36968E-02   -0.11007E-01 26384   0.201E+00    0.832E-01
DAV:   4    -0.624897088693E+02    0.28358E-02   -0.24351E-02 25384   0.817E-01    0.630E-01
DAV:   5    -0.624881754648E+02    0.15334E-02   -0.11869E-02 24952   0.588E-01    0.124E-01
DAV:   6    -0.624881582039E+02    0.17261E-04   -0.97821E-04 20168   0.203E-01
  25 F= -.62488158E+02 E0= -.62488326E+02  d E =-.195050E+00
       N       E                     dE             d eps       ncg     rms          rms(c)
DAV:   1    -0.624463877287E+02    0.41788E-01   -0.24870E+01 16224   0.362E+01    0.331E+00
DAV:   2    -0.626079559328E+02   -0.16157E+00   -0.27931E+00 17740   0.104E+01    0.148E+00
DAV:   3    -0.626039171229E+02    0.40388E-02   -0.10034E-01 25560   0.195E+00    0.945E-01
DAV:   4    -0.625985830784E+02    0.53340E-02   -0.26176E-02 24328   0.975E-01    0.485E-01
DAV:   5    -0.625989143055E+02   -0.33123E-03   -0.60914E-03 23504   0.426E-01    0.412E-01
DAV:   6    -0.625990043619E+02   -0.90056E-04   -0.10983E-03 24360   0.193E-01    0.297E-01
DAV:   7    -0.625990859584E+02   -0.81596E-04   -0.10876E-03 22832   0.163E-01    0.583E-02
DAV:   8    -0.625990765708E+02    0.93876E-05   -0.19398E-04 10960   0.983E-02
  26 F= -.62599077E+02 E0= -.62598964E+02  d E =-.110918E+00
       N       E                     dE             d eps       ncg     rms          rms(c)
DAV:   1    -0.625937750183E+02    0.53109E-02   -0.17383E+00 16732   0.960E+00    0.815E-01
DAV:   2    -0.626046307767E+02   -0.10856E-01   -0.19283E-01 17920   0.273E+00    0.375E-01
DAV:   3    -0.626043646126E+02    0.26616E-03   -0.69950E-03 25248   0.528E-01    0.244E-01
DAV:   4    -0.626040401341E+02    0.32448E-03   -0.18211E-03 25200   0.255E-01    0.128E-01
DAV:   5    -0.626040367468E+02    0.33873E-05   -0.46682E-04 20128   0.127E-01
  27 F= -.62604037E+02 E0= -.62603838E+02  d E =-.115879E+00
       N       E                     dE             d eps       ncg     rms          rms(c)
DAV:   1    -0.626339471894E+02   -0.29907E-01   -0.22369E+01 17680   0.343E+01    0.462E+00
DAV:   2    -0.626971004034E+02   -0.63153E-01   -0.25516E+00 19080   0.103E+01    0.132E+00
DAV:   3    -0.626806517524E+02    0.16449E-01   -0.10818E-01 27160   0.197E+00    0.799E-01
DAV:   4    -0.626749383589E+02    0.57134E-02   -0.27362E-02 27296   0.946E-01    0.615E-01
DAV:   5    -0.626749773339E+02   -0.38975E-04   -0.68892E-03 26240   0.449E-01    0.497E-01
DAV:   6    -0.626754166203E+02   -0.43929E-03   -0.22504E-03 27792   0.249E-01    0.183E-01
DAV:   7    -0.626754113707E+02    0.52497E-05   -0.79072E-04 21968   0.142E-01
  28 F= -.62675411E+02 E0= -.62674905E+02  d E =-.713746E-01
       N       E                     dE             d eps       ncg     rms          rms(c)
DAV:   1    -0.626753734038E+02    0.43217E-04   -0.40682E-01 17872   0.466E+00    0.573E-01
DAV:   2    -0.626763998112E+02   -0.10264E-02   -0.46382E-02 19144   0.140E+00    0.178E-01
DAV:   3    -0.626761163987E+02    0.28341E-03   -0.19789E-03 24668   0.277E-01    0.114E-01
DAV:   4    -0.626760194472E+02    0.96951E-04   -0.57510E-04 22176   0.135E-01
  29 F= -.62676019E+02 E0= -.62675516E+02  d E =-.719827E-01
       N       E                     dE             d eps       ncg     rms          rms(c)
DAV:   1    -0.626418513170E+02    0.34265E-01   -0.12501E+01 17680   0.255E+01    0.188E+00
DAV:   2    -0.627437765330E+02   -0.10193E+00   -0.14609E+00 17616   0.677E+00    0.978E-01
DAV:   3    -0.627414502832E+02    0.23262E-02   -0.44902E-02 25232   0.133E+00    0.565E-01
DAV:   4    -0.627395883194E+02    0.18620E-02   -0.10510E-02 25968   0.603E-01    0.270E-01
DAV:   5    -0.627392534272E+02    0.33489E-03   -0.38112E-03 22720   0.336E-01    0.138E-01
DAV:   6    -0.627392350727E+02    0.18355E-04   -0.42826E-04 17800   0.124E-01
  30 F= -.62739235E+02 E0= -.62739054E+02  d E =-.632156E-01
       N       E                     dE             d eps       ncg     rms          rms(c)
DAV:   1    -0.625800304623E+02    0.15922E+00   -0.24851E+01 17680   0.357E+01    0.251E+00
DAV:   2    -0.627804663721E+02   -0.20044E+00   -0.28631E+00 17640   0.950E+00    0.135E+00
DAV:   3    -0.627763900912E+02    0.40763E-02   -0.91039E-02 25744   0.190E+00    0.793E-01
DAV:   4    -0.627729097325E+02    0.34804E-02   -0.23213E-02 25768   0.862E-01    0.440E-01
DAV:   5    -0.627718018983E+02    0.11078E-02   -0.90833E-03 24512   0.518E-01    0.198E-01
DAV:   6    -0.627718040232E+02   -0.21249E-05   -0.91714E-04 22720   0.173E-01
  31 F= -.62771804E+02 E0= -.62771927E+02  d E =-.957846E-01
       N       E                     dE             d eps       ncg     rms          rms(c)
DAV:   1    -0.626308724365E+02    0.14093E+00   -0.16981E+01 17680   0.324E+01    0.188E+00
DAV:   2    -0.628189970859E+02   -0.18812E+00   -0.22543E+00 16980   0.818E+00    0.884E-01
DAV:   3    -0.628204502714E+02   -0.14532E-02   -0.52525E-02 25624   0.145E+00    0.548E-01
DAV:   4    -0.628189968887E+02    0.14534E-02   -0.69018E-03 25736   0.591E-01    0.223E-01
DAV:   5    -0.628190252276E+02   -0.28339E-04   -0.20749E-03 24096   0.257E-01    0.114E-01
DAV:   6    -0.628189845681E+02    0.40659E-04   -0.27024E-04 12408   0.103E-01
  32 F= -.62818985E+02 E0= -.62819208E+02  d E =-.471805E-01
       N       E                     dE             d eps       ncg     rms          rms(c)
DAV:   1    -0.628138728292E+02    0.51524E-02   -0.53814E-01 17832   0.581E+00    0.318E-01
DAV:   2    -0.628200331200E+02   -0.61603E-02   -0.73696E-02 18096   0.147E+00    0.167E-01
DAV:   3    -0.628200876061E+02   -0.54486E-04   -0.17037E-03 25032   0.262E-01    0.104E-01
DAV:   4    -0.628200347510E+02    0.52855E-04   -0.17714E-04 13760   0.112E-01
  33 F= -.62820035E+02 E0= -.62820270E+02  d E =-.482307E-01
       N       E                     dE             d eps       ncg     rms          rms(c)
DAV:   1    -0.628001630576E+02    0.19925E-01   -0.10760E+01 17680   0.244E+01    0.208E+00
DAV:   2    -0.628704807988E+02   -0.70318E-01   -0.11554E+00 17616   0.619E+00    0.869E-01
DAV:   3    -0.628664265442E+02    0.40543E-02   -0.39061E-02 24728   0.126E+00    0.445E-01
DAV:   4    -0.628649330977E+02    0.14934E-02   -0.10916E-02 26608   0.567E-01    0.276E-01
DAV:   5    -0.628645306959E+02    0.40240E-03   -0.35407E-03 24476   0.329E-01    0.190E-01
DAV:   6    -0.628645848384E+02   -0.54143E-04   -0.41549E-04 19232   0.113E-01
  34 F= -.62864585E+02 E0= -.62864778E+02  d E =-.445501E-01
       N       E                     dE             d eps       ncg     rms          rms(c)
DAV:   1    -0.628427482163E+02    0.21782E-01   -0.47548E+00 17680   0.162E+01    0.137E+00
DAV:   2    -0.628736665635E+02   -0.30918E-01   -0.51039E-01 17896   0.412E+00    0.584E-01
DAV:   3    -0.628718619200E+02    0.18046E-02   -0.17132E-02 24768   0.840E-01    0.301E-01
DAV:   4    -0.628711817705E+02    0.68015E-03   -0.46688E-03 26568   0.376E-01    0.186E-01
DAV:   5    -0.628710188457E+02    0.16292E-03   -0.15582E-03 23776   0.219E-01    0.128E-01
DAV:   6    -0.628710423251E+02   -0.23479E-04   -0.15804E-04 12000   0.765E-02
  35 F= -.62871042E+02 E0= -.62871185E+02  d E =-.510076E-01
       N       E                     dE             d eps       ncg     rms          rms(c)
DAV:   1    -0.627670212600E+02    0.10400E+00   -0.15346E+01 16840   0.292E+01    0.226E+00
DAV:   2    -0.629010398858E+02   -0.13402E+00   -0.19863E+00 16760   0.817E+00    0.988E-01
DAV:   3    -0.628996787243E+02    0.13612E-02   -0.64767E-02 23240   0.169E+00    0.607E-01
DAV:   4    -0.628975552055E+02    0.21235E-02   -0.13592E-02 26264   0.663E-01    0.394E-01
DAV:   5    -0.628969754090E+02    0.57980E-03   -0.54629E-03 27536   0.415E-01    0.228E-01
DAV:   6    -0.628969892933E+02   -0.13884E-04   -0.74942E-04 20320   0.177E-01
  36 F= -.62896989E+02 E0= -.62896915E+02  d E =-.259470E-01
       N       E                     dE             d eps       ncg     rms          rms(c)
DAV:   1    -0.628962273741E+02    0.74803E-03   -0.12823E-01 17940   0.267E+00    0.232E-01
DAV:   2    -0.628973296015E+02   -0.11022E-02   -0.16213E-02 17900   0.731E-01    0.831E-02
DAV:   3    -0.628973108976E+02    0.18704E-04   -0.48630E-04 19100   0.150E-01
  37 F= -.62897311E+02 E0= -.62897254E+02  d E =-.262686E-01
       N       E                     dE             d eps       ncg     rms          rms(c)
DAV:   1    -0.628945235951E+02    0.28060E-02   -0.53412E+00 17680   0.165E+01    0.133E+00
DAV:   2    -0.629220032607E+02   -0.27480E-01   -0.50032E-01 17976   0.437E+00    0.637E-01
DAV:   3    -0.629209801050E+02    0.10232E-02   -0.20860E-02 23736   0.923E-01    0.338E-01
DAV:   4    -0.629201915013E+02    0.78860E-03   -0.51883E-03 26232   0.430E-01    0.234E-01
DAV:   5    -0.629199104082E+02    0.28109E-03   -0.22019E-03 25264   0.254E-01    0.130E-01
DAV:   6    -0.629199160701E+02   -0.56619E-05   -0.18401E-04 12952   0.923E-02
  38 F= -.62919916E+02 E0= -.62919829E+02  d E =-.226052E-01
       N       E                     dE             d eps       ncg     rms          rms(c)
DAV:   1    -0.629193747558E+02    0.53565E-03   -0.26050E-01 17840   0.364E+00    0.301E-01
DAV:   2    -0.629207200391E+02   -0.13453E-02   -0.24468E-02 17896   0.956E-01    0.140E-01
DAV:   3    -0.629206700446E+02    0.49994E-04   -0.92241E-04 21924   0.192E-01
  39 F= -.62920670E+02 E0= -.62920580E+02  d E =-.233591E-01
       N       E                     dE             d eps       ncg     rms          rms(c)
DAV:   1    -0.629044955856E+02    0.16224E-01   -0.57655E+00 17480   0.172E+01    0.111E+00
DAV:   2    -0.629442369349E+02   -0.39741E-01   -0.56251E-01 17568   0.441E+00    0.720E-01
DAV:   3    -0.629429791695E+02    0.12578E-02   -0.23038E-02 25536   0.962E-01    0.363E-01
DAV:   4    -0.629419805702E+02    0.99860E-03   -0.52666E-03 24296   0.432E-01    0.257E-01
DAV:   5    -0.629416637942E+02    0.31678E-03   -0.24327E-03 24808   0.286E-01    0.592E-02
DAV:   6    -0.629416531176E+02    0.10677E-04   -0.16902E-04 10976   0.939E-02
  40 F= -.62941653E+02 E0= -.62941533E+02  d E =-.209831E-01
       N       E                     dE             d eps       ncg     rms          rms(c)
DAV:   1    -0.629362851972E+02    0.53786E-02   -0.11881E+00 17684   0.779E+00    0.499E-01
DAV:   2    -0.629445918541E+02   -0.83067E-02   -0.11462E-01 17688   0.198E+00    0.305E-01
DAV:   3    -0.629443936473E+02    0.19821E-03   -0.42712E-03 25912   0.415E-01    0.155E-01
DAV:   4    -0.629442167704E+02    0.17688E-03   -0.99468E-04 21656   0.186E-01    0.110E-01
DAV:   5    -0.629441513140E+02    0.65456E-04   -0.44928E-04 16612   0.128E-01
  41 F= -.62944151E+02 E0= -.62944021E+02  d E =-.234813E-01
       N       E                     dE             d eps       ncg     rms          rms(c)
DAV:   1    -0.629639925264E+02   -0.19776E-01   -0.29054E+00 17208   0.107E+01    0.141E+00
DAV:   2    -0.629641928094E+02   -0.20028E-03   -0.18168E-01 21832   0.293E+00    0.500E-01
DAV:   3    -0.629610162919E+02    0.31765E-02   -0.11764E-02 24056   0.662E-01    0.254E-01
DAV:   4    -0.629605169098E+02    0.49938E-03   -0.39388E-03 27864   0.341E-01    0.223E-01
DAV:   5    -0.629604564381E+02    0.60472E-04   -0.88917E-04 20768   0.162E-01
  42 F= -.62960456E+02 E0= -.62960285E+02  d E =-.163051E-01
       N       E                     dE             d eps       ncg     rms          rms(c)
DAV:   1    -0.629653230521E+02   -0.48061E-02   -0.16928E+00 17352   0.822E+00    0.110E+00
DAV:   2    -0.629648671937E+02    0.45586E-03   -0.10508E-01 21696   0.224E+00    0.378E-01
DAV:   3    -0.629629035611E+02    0.19636E-02   -0.69152E-03 23944   0.507E-01    0.204E-01
DAV:   4    -0.629626569968E+02    0.24656E-03   -0.22723E-03 28544   0.255E-01    0.180E-01
DAV:   5    -0.629626404859E+02    0.16511E-04   -0.46435E-04 17808   0.121E-01
  43 F= -.62962640E+02 E0= -.62962449E+02  d E =-.184892E-01
       N       E                     dE             d eps       ncg     rms          rms(c)
DAV:   1    -0.629654088990E+02   -0.27519E-02   -0.38305E+00 17680   0.127E+01    0.106E+00
DAV:   2    -0.629778865782E+02   -0.12478E-01   -0.24967E-01 19152   0.323E+00    0.471E-01
DAV:   3    -0.629764317621E+02    0.14548E-02   -0.10440E-02 25336   0.592E-01    0.244E-01
DAV:   4    -0.629759499150E+02    0.48185E-03   -0.27607E-03 26464   0.296E-01    0.172E-01
DAV:   5    -0.629758535098E+02    0.96405E-04   -0.93895E-04 19568   0.171E-01
  44 F= -.62975854E+02 E0= -.62975718E+02  d E =-.132130E-01
       N       E                     dE             d eps       ncg     rms          rms(c)
DAV:   1    -0.629708922607E+02    0.50577E-02   -0.29710E+00 17680   0.112E+01    0.918E-01
DAV:   2    -0.629808193464E+02   -0.99271E-02   -0.19393E-01 19224   0.284E+00    0.411E-01
DAV:   3    -0.629797357951E+02    0.10836E-02   -0.78292E-03 25360   0.514E-01    0.217E-01
DAV:   4    -0.629793451695E+02    0.39063E-03   -0.18781E-03 26272   0.246E-01    0.139E-01
DAV:   5    -0.629792964826E+02    0.48687E-04   -0.62088E-04 18616   0.141E-01
  45 F= -.62979296E+02 E0= -.62979196E+02  d E =-.166560E-01
       N       E                     dE             d eps       ncg     rms          rms(c)
DAV:   1    -0.629723703683E+02    0.69748E-02   -0.59364E+00 16672   0.172E+01    0.143E+00
DAV:   2    -0.630056394533E+02   -0.33269E-01   -0.56959E-01 18424   0.471E+00    0.556E-01
DAV:   3    -0.630047272740E+02    0.91218E-03   -0.22209E-02 25808   0.940E-01    0.358E-01
DAV:   4    -0.630038321775E+02    0.89510E-03   -0.45356E-03 26072   0.382E-01    0.226E-01
DAV:   5    -0.630037591902E+02    0.72987E-04   -0.17599E-03 24888   0.224E-01    0.164E-01
DAV:   6    -0.630037590941E+02    0.96074E-07   -0.25045E-04 12680   0.107E-01
  46 F= -.63003759E+02 E0= -.63003760E+02  d E =-.244626E-01
       N       E                     dE             d eps       ncg     rms          rms(c)
DAV:   1    -0.629401568426E+02    0.63602E-01   -0.14115E+01 15976   0.265E+01    0.210E+00
DAV:   2    -0.630224288423E+02   -0.82272E-01   -0.13804E+00 17984   0.733E+00    0.854E-01
DAV:   3    -0.630207208977E+02    0.17079E-02   -0.55704E-02 25600   0.150E+00    0.566E-01
DAV:   4    -0.630186339598E+02    0.20869E-02   -0.10655E-02 26120   0.590E-01    0.358E-01
DAV:   5    -0.630184149804E+02    0.21898E-03   -0.47378E-03 27120   0.366E-01    0.261E-01
DAV:   6    -0.630184254748E+02   -0.10494E-04   -0.77183E-04 21104   0.167E-01
  47 F= -.63018425E+02 E0= -.63018558E+02  d E =-.391290E-01
       N       E                     dE             d eps       ncg     rms          rms(c)
DAV:   1    -0.630288327653E+02   -0.10418E-01   -0.13021E+00 16940   0.725E+00    0.451E-01
DAV:   2    -0.630341494454E+02   -0.53167E-02   -0.81242E-02 20312   0.185E+00    0.237E-01
DAV:   3    -0.630340236741E+02    0.12577E-03   -0.28980E-03 25672   0.323E-01    0.137E-01
DAV:   4    -0.630339269501E+02    0.96724E-04   -0.76278E-04 16920   0.161E-01
  48 F= -.63033927E+02 E0= -.63034063E+02  d E =-.155015E-01
       N       E                     dE             d eps       ncg     rms          rms(c)
DAV:   1    -0.630273819013E+02    0.66418E-02   -0.11704E+01 16584   0.218E+01    0.134E+00
DAV:   2    -0.630771736731E+02   -0.49792E-01   -0.74496E-01 19836   0.563E+00    0.678E-01
DAV:   3    -0.630764118684E+02    0.76180E-03   -0.28771E-02 26920   0.101E+00    0.407E-01
DAV:   4    -0.630755805328E+02    0.83134E-03   -0.68459E-03 25952   0.472E-01    0.230E-01
DAV:   5    -0.630751558974E+02    0.42464E-03   -0.31470E-03 23000   0.326E-01    0.820E-02
DAV:   6    -0.630751553247E+02    0.57270E-06   -0.21208E-04 11472   0.995E-02
  49 F= -.63075155E+02 E0= -.63075289E+02  d E =-.567298E-01
       N       E                     dE             d eps       ncg     rms          rms(c)
DAV:   1    -0.629088619955E+02    0.16629E+00   -0.46609E+01 15928   0.435E+01    0.278E+00
DAV:   2    -0.631227302343E+02   -0.21387E+00   -0.31042E+00 19292   0.116E+01    0.137E+00
DAV:   3    -0.631208276090E+02    0.19026E-02   -0.12530E-01 28408   0.206E+00    0.868E-01
DAV:   4    -0.631171233762E+02    0.37042E-02   -0.20854E-02 25616   0.858E-01    0.432E-01
DAV:   5    -0.631160308076E+02    0.10926E-02   -0.12513E-02 23080   0.667E-01    0.180E-01
DAV:   6    -0.631159202630E+02    0.11054E-03   -0.17216E-03 25088   0.253E-01    0.933E-02
DAV:   7    -0.631159105916E+02    0.96714E-05   -0.15721E-04 11184   0.948E-02
  50 F= -.63115911E+02 E0= -.63116217E+02  d E =-.974851E-01
       N       E                     dE             d eps       ncg     rms          rms(c)
DAV:   1    -0.631283069486E+02   -0.12387E-01   -0.19775E+00 15932   0.893E+00    0.564E-01
DAV:   2    -0.631370773456E+02   -0.87704E-02   -0.12486E-01 19280   0.238E+00    0.329E-01
DAV:   3    -0.631368385374E+02    0.23881E-03   -0.51543E-03 25408   0.406E-01    0.181E-01
DAV:   4    -0.631366709286E+02    0.16761E-03   -0.12982E-03 22856   0.224E-01    0.111E-01
DAV:   5    -0.631366004225E+02    0.70506E-04   -0.57753E-04 17236   0.144E-01
  51 F= -.63136600E+02 E0= -.63136950E+02  d E =-.206898E-01
       N       E                     dE             d eps       ncg     rms          rms(c)
DAV:   1    -0.630934719361E+02    0.43199E-01   -0.17822E+01 16872   0.269E+01    0.182E+00
DAV:   2    -0.631717085003E+02   -0.78237E-01   -0.11199E+00 19420   0.703E+00    0.105E+00
DAV:   3    -0.631690463172E+02    0.26622E-02   -0.48331E-02 27320   0.126E+00    0.564E-01
DAV:   4    -0.631677008583E+02    0.13455E-02   -0.15085E-02 24664   0.756E-01    0.387E-01
DAV:   5    -0.631668461563E+02    0.85470E-03   -0.69576E-03 22992   0.468E-01    0.121E-01
DAV:   6    -0.631668653668E+02   -0.19210E-04   -0.48860E-04 17984   0.133E-01
  52 F= -.63166865E+02 E0= -.63166924E+02  d E =-.509548E-01
       N       E                     dE             d eps       ncg     rms          rms(c)
DAV:   1    -0.632002383427E+02   -0.33392E-01   -0.45770E-01 17920   0.510E+00    0.556E-01
DAV:   2    -0.632029536674E+02   -0.27153E-02   -0.54199E-02 18512   0.142E+00    0.327E-01
DAV:   3    -0.632026828799E+02    0.27079E-03   -0.33565E-03 23464   0.369E-01    0.155E-01
DAV:   4    -0.632025631989E+02    0.11968E-03   -0.14104E-03 23056   0.223E-01    0.128E-01
DAV:   5    -0.632024963839E+02    0.66815E-04   -0.37970E-04 13568   0.126E-01
  53 F= -.63202496E+02 E0= -.63202523E+02  d E =-.356310E-01
       N       E                     dE             d eps       ncg     rms          rms(c)
DAV:   1    -0.632591312023E+02   -0.56568E-01   -0.40902E+00 17680   0.153E+01    0.170E+00
DAV:   2    -0.632836703883E+02   -0.24539E-01   -0.49192E-01 18648   0.427E+00    0.998E-01
DAV:   3    -0.632810931018E+02    0.25773E-02   -0.33223E-02 23472   0.114E+00    0.475E-01
DAV:   4    -0.632799353657E+02    0.11577E-02   -0.13764E-02 26768   0.693E-01    0.396E-01
DAV:   5    -0.632793716868E+02    0.56368E-03   -0.40463E-03 27920   0.362E-01    0.193E-01
DAV:   6    -0.632794680895E+02   -0.96403E-04   -0.37245E-04 20216   0.113E-01
  54 F= -.63279468E+02 E0= -.63279475E+02  d E =-.112603E+00
       N       E                     dE             d eps       ncg     rms          rms(c)
DAV:   1    -0.632203391327E+02    0.59033E-01   -0.16245E+01 17680   0.305E+01    0.357E+00
DAV:   2    -0.633218533318E+02   -0.10151E+00   -0.19705E+00 18564   0.853E+00    0.196E+00
DAV:   3    -0.633119126392E+02    0.99407E-02   -0.14644E-01 24032   0.232E+00    0.916E-01
DAV:   4    -0.633070548957E+02    0.48577E-02   -0.62300E-02 26824   0.148E+00    0.789E-01
DAV:   5    -0.633045825877E+02    0.24723E-02   -0.16997E-02 27708   0.731E-01    0.374E-01
DAV:   6    -0.633049410943E+02   -0.35851E-03   -0.17108E-03 24808   0.232E-01    0.146E-01
DAV:   7    -0.633049757321E+02   -0.34638E-04   -0.27084E-04 17288   0.902E-02
  55 F= -.63304976E+02 E0= -.63305162E+02  d E =-.138110E+00
       N       E                     dE             d eps       ncg     rms          rms(c)
DAV:   1    -0.633056402165E+02   -0.69912E-03   -0.18481E+00 17680   0.104E+01    0.111E+00
DAV:   2    -0.633169873306E+02   -0.11347E-01   -0.22586E-01 18600   0.290E+00    0.659E-01
DAV:   3    -0.633158338498E+02    0.11535E-02   -0.16729E-02 23700   0.818E-01    0.315E-01
DAV:   4    -0.633151679193E+02    0.66593E-03   -0.63904E-03 25488   0.458E-01    0.253E-01
DAV:   5    -0.633149002827E+02    0.26764E-03   -0.17845E-03 25684   0.244E-01    0.124E-01
DAV:   6    -0.633149195838E+02   -0.19301E-04   -0.13528E-04 12648   0.766E-02
  56 F= -.63314920E+02 E0= -.63315033E+02  d E =-.148054E+00
       N       E                     dE             d eps       ncg     rms          rms(c)
DAV:   1    -0.633439795973E+02   -0.29079E-01   -0.17690E+00 17680   0.976E+00    0.685E-01
DAV:   2    -0.633572071890E+02   -0.13228E-01   -0.19298E-01 17048   0.262E+00    0.437E-01
DAV:   3    -0.633563762752E+02    0.83091E-03   -0.90821E-03 23268   0.615E-01    0.238E-01
DAV:   4    -0.633558847087E+02    0.49157E-03   -0.31227E-03 23472   0.324E-01    0.151E-01
DAV:   5    -0.633557376640E+02    0.14704E-03   -0.11404E-03 22664   0.207E-01    0.358E-02
DAV:   6    -0.633557347181E+02    0.29458E-05   -0.90838E-05 10624   0.687E-02
  57 F= -.63355735E+02 E0= -.63355798E+02  d E =-.408151E-01
       N       E                     dE             d eps       ncg     rms          rms(c)
DAV:   1    -0.633228622669E+02    0.32875E-01   -0.11683E+01 17680   0.251E+01    0.169E+00
DAV:   2    -0.634100892603E+02   -0.87227E-01   -0.12706E+00 17060   0.674E+00    0.111E+00
DAV:   3    -0.634049254134E+02    0.51638E-02   -0.55739E-02 23500   0.152E+00    0.611E-01
DAV:   4    -0.634018388270E+02    0.30866E-02   -0.18927E-02 24176   0.802E-01    0.395E-01
DAV:   5    -0.634008474574E+02    0.99137E-03   -0.75838E-03 23616   0.524E-01    0.872E-02
DAV:   6    -0.634008311411E+02    0.16316E-04   -0.65959E-04 18504   0.173E-01
  58 F= -.63400831E+02 E0= -.63400888E+02  d E =-.859116E-01
       N       E                     dE             d eps       ncg     rms          rms(c)
DAV:   1    -0.634086856329E+02   -0.78382E-02   -0.23580E+00 17180   0.117E+01    0.737E-01
DAV:   2    -0.634304925094E+02   -0.21807E-01   -0.29262E-01 16600   0.303E+00    0.372E-01
DAV:   3    -0.634299860494E+02    0.50646E-03   -0.83315E-03 23648   0.576E-01    0.216E-01
DAV:   4    -0.634294787941E+02    0.50726E-03   -0.17978E-03 24384   0.276E-01    0.903E-02
DAV:   5    -0.634294734264E+02    0.53677E-05   -0.50426E-04 18408   0.136E-01
  59 F= -.63429473E+02 E0= -.63429526E+02  d E =-.286423E-01
       N       E                     dE             d eps       ncg     rms          rms(c)
DAV:   1    -0.634067528367E+02    0.22726E-01   -0.41361E+00 17120   0.154E+01    0.956E-01
DAV:   2    -0.634449132156E+02   -0.38160E-01   -0.51470E-01 16576   0.400E+00    0.493E-01
DAV:   3    -0.634440470843E+02    0.86613E-03   -0.14754E-02 23568   0.768E-01    0.290E-01
DAV:   4    -0.634431895935E+02    0.85749E-03   -0.34385E-03 25352   0.371E-01    0.138E-01
DAV:   5    -0.634431302409E+02    0.59353E-04   -0.12756E-03 21808   0.206E-01    0.826E-02
DAV:   6    -0.634431145784E+02    0.15662E-04   -0.18392E-04 10912   0.931E-02
  60 F= -.63443115E+02 E0= -.63443157E+02  d E =-.422834E-01
