       N       E                     dE             d eps       ncg     rms          rms(c)
DAV:   1     0.170047418519E+03    0.17005E+03   -0.12720E+04 17504   0.742E+02
DAV:   2    -0.257690246247E+02   -0.19582E+03   -0.19117E+03 21904   0.288E+02
DAV:   3    -0.395375601368E+02   -0.13769E+02   -0.13677E+02 28624   0.578E+01
DAV:   4    -0.403560913186E+02   -0.81853E+00   -0.81655E+00 27536   0.117E+01
DAV:   5    -0.403733567954E+02   -0.17265E-01   -0.17261E-01 27988   0.170E+00    0.352E+01
DAV:   6    -0.374984680283E+02    0.28749E+01   -0.16486E+01 25944   0.166E+01    0.152E+01
DAV:   7    -0.369991604380E+02    0.49931E+00   -0.30947E+00 26832   0.776E+00    0.103E+01
DAV:   8    -0.369580280126E+02    0.41132E-01   -0.77293E-01 27848   0.428E+00    0.217E+00
DAV:   9    -0.369341226102E+02    0.23905E-01   -0.76028E-02 22780   0.123E+00    0.105E+00
DAV:  10    -0.369290205164E+02    0.51021E-02   -0.31087E-02 24216   0.805E-01    0.337E-01
DAV:  11    -0.369290103597E+02    0.10157E-04   -0.18948E-03 25948   0.249E-01    0.113E-01
DAV:  12    -0.369290619214E+02   -0.51562E-04   -0.23941E-04 17216   0.888E-02
   1 F= -.36929062E+02 E0= -.36929119E+02  d E =-.369291E+02
       N       E                     dE             d eps       ncg     rms          rms(c)
DAV:   1    -0.369312226926E+02   -0.22123E-02   -0.92374E-02 18816   0.194E+00    0.346E-01
DAV:   2    -0.369301953178E+02    0.10274E-02   -0.92040E-03 22728   0.613E-01    0.147E-01
DAV:   3    -0.369298736562E+02    0.32166E-03   -0.90306E-04 24196   0.170E-01    0.817E-02
DAV:   4    -0.369298024594E+02    0.71197E-04   -0.24854E-04 18344   0.835E-02
   2 F= -.36929802E+02 E0= -.36929864E+02  d E =-.740538E-03
       N       E                     dE             d eps       ncg     rms          rms(c)
DAV:   1    -0.369300163416E+02   -0.14269E-03   -0.57339E-03 18876   0.479E-01    0.970E-02
DAV:   2    -0.369300044207E+02    0.11921E-04   -0.71530E-04 24536   0.155E-01
   3 F= -.36930004E+02 E0= -.36930064E+02  d E =-.942499E-03
