       N       E                     dE             d eps       ncg     rms          rms(c)
DAV:   1     0.542749810828E+03    0.54275E+03   -0.26988E+04 18832   0.928E+02
DAV:   2    -0.725497269955E+02   -0.61530E+03   -0.59399E+03 21668   0.448E+02
DAV:   3    -0.110382934152E+03   -0.37833E+02   -0.36469E+02 27672   0.105E+02
DAV:   4    -0.112150489797E+03   -0.17676E+01   -0.17258E+01 28944   0.209E+01
DAV:   5    -0.112233035607E+03   -0.82546E-01   -0.81876E-01 31312   0.404E+00    0.605E+01
DAV:   6    -0.105354200734E+03    0.68788E+01   -0.19356E+01 26424   0.257E+01    0.249E+01
DAV:   7    -0.105423251943E+03   -0.69051E-01   -0.89489E+00 27184   0.207E+01    0.105E+01
DAV:   8    -0.104320918392E+03    0.11023E+01   -0.31163E+00 25912   0.125E+01    0.545E+00
DAV:   9    -0.104356801384E+03   -0.35883E-01   -0.61779E-01 29744   0.570E+00    0.283E+00
DAV:  10    -0.104319222443E+03    0.37579E-01   -0.18137E-01 25992   0.385E+00    0.143E+00
DAV:  11    -0.104318264953E+03    0.95749E-03   -0.33922E-02 25536   0.141E+00    0.623E-01
DAV:  12    -0.104317666228E+03    0.59873E-03   -0.13643E-02 26384   0.122E+00    0.271E-01
DAV:  13    -0.104316669567E+03    0.99666E-03   -0.38971E-03 25912   0.630E-01    0.107E-01
DAV:  14    -0.104316704989E+03   -0.35423E-04   -0.58559E-04 22088   0.162E-01
   1 F= -.10431670E+03 E0= -.10431683E+03  d E =-.104317E+03
       N       E                     dE             d eps       ncg     rms          rms(c)
DAV:   1    -0.104332720688E+03   -0.16051E-01   -0.16104E+00 18600   0.866E+00    0.119E+00
DAV:   2    -0.104342285201E+03   -0.95645E-02   -0.22412E-01 20604   0.285E+00    0.453E-01
DAV:   3    -0.104342500468E+03   -0.21527E-03   -0.17420E-02 27824   0.114E+00    0.363E-01
DAV:   4    -0.104340888668E+03    0.16118E-02   -0.54573E-03 26024   0.759E-01    0.187E-01
DAV:   5    -0.104340660963E+03    0.22770E-03   -0.10023E-03 23144   0.229E-01    0.116E-01
DAV:   6    -0.104340646629E+03    0.14334E-04   -0.22635E-04 16272   0.128E-01
   2 F= -.10434065E+03 E0= -.10434078E+03  d E =-.239416E-01
       N       E                     dE             d eps       ncg     rms          rms(c)
DAV:   1    -0.104334524032E+03    0.61369E-02   -0.38841E+00 17800   0.134E+01    0.178E+00
DAV:   2    -0.104357185203E+03   -0.22661E-01   -0.54439E-01 20280   0.446E+00    0.699E-01
DAV:   3    -0.104357819896E+03   -0.63469E-03   -0.42198E-02 28088   0.180E+00    0.564E-01
DAV:   4    -0.104353939833E+03    0.38801E-02   -0.13000E-02 26008   0.116E+00    0.295E-01
DAV:   5    -0.104353419545E+03    0.52029E-03   -0.25401E-03 25080   0.368E-01    0.192E-01
DAV:   6    -0.104353393121E+03    0.26424E-04   -0.77310E-04 26632   0.218E-01
   3 F= -.10435339E+03 E0= -.10435355E+03  d E =-.366881E-01
       N       E                     dE             d eps       ncg     rms          rms(c)
DAV:   1    -0.104362572594E+03   -0.91530E-02   -0.93572E-01 20328   0.633E+00    0.567E-01
DAV:   2    -0.104370094508E+03   -0.75219E-02   -0.10798E-01 19312   0.184E+00    0.343E-01
DAV:   3    -0.104370000870E+03    0.93638E-04   -0.57040E-03 28424   0.666E-01    0.235E-01
DAV:   4    -0.104369583343E+03    0.41753E-03   -0.16684E-03 25832   0.414E-01    0.138E-01
DAV:   5    -0.104369469949E+03    0.11339E-03   -0.59176E-04 20520   0.209E-01    0.667E-02
DAV:   6    -0.104369448652E+03    0.21297E-04   -0.12735E-04 11216   0.126E-01
   4 F= -.10436945E+03 E0= -.10436958E+03  d E =-.160555E-01
       N       E                     dE             d eps       ncg     rms          rms(c)
DAV:   1    -0.104328767417E+03    0.40703E-01   -0.84305E+00 20288   0.190E+01    0.162E+00
DAV:   2    -0.104396877340E+03   -0.68110E-01   -0.97527E-01 19128   0.555E+00    0.953E-01
DAV:   3    -0.104395634225E+03    0.12431E-02   -0.47803E-02 28320   0.190E+00    0.636E-01
DAV:   4    -0.104392730290E+03    0.29039E-02   -0.13275E-02 28568   0.115E+00    0.402E-01
DAV:   5    -0.104391703537E+03    0.10268E-02   -0.52177E-03 26960   0.626E-01    0.205E-01
DAV:   6    -0.104391540097E+03    0.16344E-03   -0.15578E-03 25760   0.355E-01    0.946E-02
DAV:   7    -0.104391531535E+03    0.85621E-05   -0.14955E-04 12400   0.127E-01
   5 F= -.10439153E+03 E0= -.10439157E+03  d E =-.381384E-01
       N       E                     dE             d eps       ncg     rms          rms(c)
DAV:   1    -0.104385628434E+03    0.59117E-02   -0.93802E-01 20136   0.725E+00    0.474E-01
DAV:   2    -0.104400212474E+03   -0.14584E-01   -0.16592E-01 17704   0.207E+00    0.268E-01
DAV:   3    -0.104400281575E+03   -0.69101E-04   -0.57516E-03 25784   0.588E-01    0.171E-01
DAV:   4    -0.104400084942E+03    0.19663E-03   -0.93327E-04 24552   0.302E-01    0.150E-01
DAV:   5    -0.104399981618E+03    0.10332E-03   -0.74387E-04 21040   0.190E-01    0.536E-02
DAV:   6    -0.104399980616E+03    0.10023E-05   -0.17216E-04 12808   0.123E-01
   6 F= -.10439998E+03 E0= -.10440005E+03  d E =-.844908E-02
       N       E                     dE             d eps       ncg     rms          rms(c)
DAV:   1    -0.104376465994E+03    0.23516E-01   -0.17904E+00 20112   0.100E+01    0.653E-01
DAV:   2    -0.104404277357E+03   -0.27811E-01   -0.31783E-01 17688   0.285E+00    0.367E-01
DAV:   3    -0.104404469113E+03   -0.19176E-03   -0.10554E-02 25768   0.759E-01    0.234E-01
DAV:   4    -0.104404160694E+03    0.30842E-03   -0.17290E-03 25936   0.406E-01    0.209E-01
DAV:   5    -0.104403959638E+03    0.20106E-03   -0.14230E-03 23432   0.269E-01    0.701E-02
DAV:   6    -0.104403958251E+03    0.13867E-05   -0.32470E-04 17240   0.156E-01
   7 F= -.10440396E+03 E0= -.10440407E+03  d E =-.124267E-01
       N       E                     dE             d eps       ncg     rms          rms(c)
DAV:   1    -0.104404409070E+03   -0.44943E-03   -0.64988E-01 18304   0.554E+00    0.455E-01
DAV:   2    -0.104410663339E+03   -0.62543E-02   -0.83509E-02 18152   0.165E+00    0.220E-01
DAV:   3    -0.104410670768E+03   -0.74288E-05   -0.32910E-03 28016   0.358E-01    0.125E-01
DAV:   4    -0.104410624428E+03    0.46340E-04   -0.44582E-04 21112   0.212E-01
   8 F= -.10441062E+03 E0= -.10441072E+03  d E =-.666618E-02
       N       E                     dE             d eps       ncg     rms          rms(c)
DAV:   1    -0.104400221144E+03    0.10450E-01   -0.14420E+00 18088   0.824E+00    0.655E-01
DAV:   2    -0.104414043727E+03   -0.13823E-01   -0.18591E-01 17944   0.246E+00    0.317E-01
DAV:   3    -0.104414119373E+03   -0.75647E-04   -0.75113E-03 28176   0.540E-01    0.210E-01
DAV:   4    -0.104414044847E+03    0.74527E-04   -0.12836E-03 25312   0.368E-01    0.153E-01
DAV:   5    -0.104413880306E+03    0.16454E-03   -0.61337E-04 21312   0.249E-01    0.865E-02
DAV:   6    -0.104413853161E+03    0.27145E-04   -0.15178E-04 13656   0.137E-01
   9 F= -.10441385E+03 E0= -.10441392E+03  d E =-.989491E-02
       N       E                     dE             d eps       ncg     rms          rms(c)
DAV:   1    -0.104411416235E+03    0.24641E-02   -0.80683E-01 20232   0.628E+00    0.386E-01
DAV:   2    -0.104420443670E+03   -0.90274E-02   -0.10642E-01 17744   0.176E+00    0.246E-01
DAV:   3    -0.104420542421E+03   -0.98751E-04   -0.46344E-03 25840   0.560E-01    0.160E-01
DAV:   4    -0.104420383180E+03    0.15924E-03   -0.67972E-04 23576   0.265E-01    0.121E-01
DAV:   5    -0.104420336549E+03    0.46631E-04   -0.49981E-04 19712   0.160E-01
  10 F= -.10442034E+03 E0= -.10442038E+03  d E =-.648339E-02
       N       E                     dE             d eps       ncg     rms          rms(c)
DAV:   1    -0.104402633146E+03    0.17750E-01   -0.19529E+00 20216   0.979E+00    0.588E-01
DAV:   2    -0.104424445846E+03   -0.21813E-01   -0.25867E-01 17736   0.274E+00    0.381E-01
DAV:   3    -0.104424685270E+03   -0.23942E-03   -0.11719E-02 25832   0.906E-01    0.245E-01
DAV:   4    -0.104424289403E+03    0.39587E-03   -0.17027E-03 25976   0.411E-01    0.180E-01
DAV:   5    -0.104424180609E+03    0.10879E-03   -0.11344E-03 23360   0.234E-01    0.716E-02
DAV:   6    -0.104424165296E+03    0.15313E-04   -0.26227E-04 15760   0.157E-01
  11 F= -.10442417E+03 E0= -.10442416E+03  d E =-.103121E-01
       N       E                     dE             d eps       ncg     rms          rms(c)
DAV:   1    -0.104423261756E+03    0.91885E-03   -0.97275E-01 19216   0.646E+00    0.416E-01
DAV:   2    -0.104431856084E+03   -0.85943E-02   -0.10931E-01 18072   0.189E+00    0.312E-01
DAV:   3    -0.104431851173E+03    0.49108E-05   -0.62980E-03 25840   0.686E-01    0.172E-01
DAV:   4    -0.104431674715E+03    0.17646E-03   -0.89617E-04 24480   0.307E-01    0.129E-01
DAV:   5    -0.104431621024E+03    0.53691E-04   -0.37386E-04 19040   0.188E-01
  12 F= -.10443162E+03 E0= -.10443158E+03  d E =-.745573E-02
       N       E                     dE             d eps       ncg     rms          rms(c)
DAV:   1    -0.104414854930E+03    0.16820E-01   -0.24765E+00 19208   0.103E+01    0.664E-01
DAV:   2    -0.104436691869E+03   -0.21837E-01   -0.27788E-01 18240   0.304E+00    0.517E-01
DAV:   3    -0.104436591075E+03    0.10079E-03   -0.16387E-02 25840   0.112E+00    0.276E-01
DAV:   4    -0.104436152306E+03    0.43877E-03   -0.23116E-03 25832   0.490E-01    0.212E-01
DAV:   5    -0.104436038219E+03    0.11409E-03   -0.10924E-03 25640   0.305E-01    0.129E-01
DAV:   6    -0.104435947910E+03    0.90309E-04   -0.45319E-04 19488   0.225E-01
  13 F= -.10443595E+03 E0= -.10443582E+03  d E =-.117826E-01
       N       E                     dE             d eps       ncg     rms          rms(c)
DAV:   1    -0.104433283378E+03    0.27548E-02   -0.93504E-01 20128   0.648E+00    0.398E-01
DAV:   2    -0.104442459921E+03   -0.91765E-02   -0.11134E-01 17960   0.179E+00    0.266E-01
DAV:   3    -0.104442561267E+03   -0.10135E-03   -0.50838E-03 25832   0.590E-01    0.173E-01
DAV:   4    -0.104442454936E+03    0.10633E-03   -0.69990E-04 24192   0.263E-01    0.124E-01
DAV:   5    -0.104442417229E+03    0.37707E-04   -0.24527E-04 15512   0.168E-01
  14 F= -.10444242E+03 E0= -.10444224E+03  d E =-.646932E-02
       N       E                     dE             d eps       ncg     rms          rms(c)
DAV:   1    -0.104368221064E+03    0.74234E-01   -0.83791E+00 20056   0.194E+01    0.119E+00
DAV:   2    -0.104450527601E+03   -0.82307E-01   -0.99966E-01 17820   0.539E+00    0.785E-01
DAV:   3    -0.104451218935E+03   -0.69133E-03   -0.47439E-02 25832   0.186E+00    0.518E-01
DAV:   4    -0.104450011508E+03    0.12074E-02   -0.66475E-03 25816   0.805E-01    0.357E-01
DAV:   5    -0.104449795716E+03    0.21579E-03   -0.29904E-03 26864   0.484E-01    0.229E-01
DAV:   6    -0.104449571654E+03    0.22406E-03   -0.15663E-03 25960   0.392E-01    0.606E-02
DAV:   7    -0.104449542291E+03    0.29363E-04   -0.20200E-04 14656   0.137E-01
  15 F= -.10444954E+03 E0= -.10444920E+03  d E =-.135944E-01
       N       E                     dE             d eps       ncg     rms          rms(c)
DAV:   1    -0.104450689009E+03   -0.11174E-02   -0.62032E-01 19240   0.493E+00    0.320E-01
DAV:   2    -0.104455173434E+03   -0.44844E-02   -0.57879E-02 18420   0.136E+00    0.182E-01
DAV:   3    -0.104455288506E+03   -0.11507E-03   -0.28085E-03 26280   0.415E-01    0.126E-01
DAV:   4    -0.104455194668E+03    0.93837E-04   -0.44638E-04 19624   0.232E-01
  16 F= -.10445519E+03 E0= -.10445482E+03  d E =-.565238E-02
       N       E                     dE             d eps       ncg     rms          rms(c)
DAV:   1    -0.104426543831E+03    0.28745E-01   -0.55586E+00 19160   0.147E+01    0.944E-01
DAV:   2    -0.104466284283E+03   -0.39740E-01   -0.51493E-01 18220   0.408E+00    0.573E-01
DAV:   3    -0.104467212867E+03   -0.92858E-03   -0.25919E-02 26176   0.130E+00    0.390E-01
DAV:   4    -0.104466206297E+03    0.10066E-02   -0.46172E-03 25888   0.712E-01    0.266E-01
DAV:   5    -0.104465987420E+03    0.21888E-03   -0.16801E-03 26192   0.354E-01    0.136E-01
DAV:   6    -0.104465905476E+03    0.81945E-04   -0.73764E-04 24264   0.278E-01
  17 F= -.10446591E+03 E0= -.10446547E+03  d E =-.163632E-01
       N       E                     dE             d eps       ncg     rms          rms(c)
DAV:   1    -0.104292522736E+03    0.17346E+00   -0.22044E+01 19104   0.294E+01    0.185E+00
DAV:   2    -0.104452562421E+03   -0.16004E+00   -0.20732E+00 18752   0.824E+00    0.123E+00
DAV:   3    -0.104455315264E+03   -0.27528E-02   -0.10753E-01 26216   0.274E+00    0.760E-01
DAV:   4    -0.104451423092E+03    0.38922E-02   -0.18151E-02 25896   0.140E+00    0.538E-01
DAV:   5    -0.104450575201E+03    0.84789E-03   -0.70398E-03 26672   0.750E-01    0.285E-01
DAV:   6    -0.104450086585E+03    0.48862E-03   -0.32931E-03 25928   0.573E-01    0.108E-01
DAV:   7    -0.104450044474E+03    0.42110E-04   -0.39204E-04 18848   0.170E-01
  18 F= -.10445004E+03 E0= -.10444963E+03  d E =-.502183E-03
       N       E                     dE             d eps       ncg     rms          rms(c)
DAV:   1    -0.104366128886E+03    0.83958E-01   -0.14209E+01 19168   0.235E+01    0.163E+00
DAV:   2    -0.104469482029E+03   -0.10335E+00   -0.13168E+00 18208   0.655E+00    0.999E-01
DAV:   3    -0.104470803631E+03   -0.13216E-02   -0.69702E-02 25936   0.227E+00    0.606E-01
DAV:   4    -0.104468020822E+03    0.27828E-02   -0.12918E-02 25880   0.120E+00    0.430E-01
DAV:   5    -0.104467501783E+03    0.51904E-03   -0.43636E-03 28896   0.592E-01    0.256E-01
DAV:   6    -0.104467190582E+03    0.31120E-03   -0.19280E-03 26016   0.457E-01    0.108E-01
DAV:   7    -0.104467175036E+03    0.15545E-04   -0.22469E-04 15224   0.145E-01
  19 F= -.10446718E+03 E0= -.10446673E+03  d E =-.176327E-01
       N       E                     dE             d eps       ncg     rms          rms(c)
DAV:   1    -0.104470490640E+03   -0.33001E-02   -0.63863E-01 19832   0.524E+00    0.440E-01
DAV:   2    -0.104476318009E+03   -0.58274E-02   -0.74081E-02 17776   0.149E+00    0.231E-01
DAV:   3    -0.104476354354E+03   -0.36345E-04   -0.34417E-03 25856   0.457E-01    0.126E-01
DAV:   4    -0.104476260340E+03    0.94014E-04   -0.64805E-04 24008   0.266E-01
  20 F= -.10447626E+03 E0= -.10447580E+03  d E =-.908530E-02
       N       E                     dE             d eps       ncg     rms          rms(c)
DAV:   1    -0.104443901093E+03    0.32453E-01   -0.46717E+00 20112   0.142E+01    0.124E+00
DAV:   2    -0.104485993864E+03   -0.42093E-01   -0.53458E-01 17880   0.397E+00    0.641E-01
DAV:   3    -0.104486247853E+03   -0.25399E-03   -0.24288E-02 25896   0.121E+00    0.368E-01
DAV:   4    -0.104485526277E+03    0.72158E-03   -0.53453E-03 26032   0.758E-01    0.314E-01
DAV:   5    -0.104485051469E+03    0.47481E-03   -0.24179E-03 29728   0.444E-01    0.169E-01
DAV:   6    -0.104484962814E+03    0.88655E-04   -0.76993E-04 24512   0.259E-01
  21 F= -.10448496E+03 E0= -.10448447E+03  d E =-.177878E-01
       N       E                     dE             d eps       ncg     rms          rms(c)
DAV:   1    -0.104489741781E+03   -0.46903E-02   -0.51925E-01 18232   0.424E+00    0.423E-01
DAV:   2    -0.104492547026E+03   -0.28052E-02   -0.42062E-02 19880   0.122E+00    0.240E-01
DAV:   3    -0.104492523114E+03    0.23912E-04   -0.23928E-03 26336   0.399E-01    0.138E-01
DAV:   4    -0.104492398583E+03    0.12453E-03   -0.78500E-04 24624   0.301E-01    0.924E-02
DAV:   5    -0.104492323364E+03    0.75219E-04   -0.17455E-04 14656   0.160E-01
  22 F= -.10449232E+03 E0= -.10449185E+03  d E =-.736055E-02
       N       E                     dE             d eps       ncg     rms          rms(c)
DAV:   1    -0.104477981952E+03    0.14417E-01   -0.46640E+00 18096   0.127E+01    0.114E+00
DAV:   2    -0.104502913522E+03   -0.24932E-01   -0.37811E-01 19324   0.366E+00    0.646E-01
DAV:   3    -0.104502635863E+03    0.27766E-03   -0.19716E-02 26080   0.106E+00    0.360E-01
DAV:   4    -0.104501909167E+03    0.72670E-03   -0.58074E-03 25976   0.807E-01    0.273E-01
DAV:   5    -0.104501343783E+03    0.56538E-03   -0.22475E-03 28464   0.459E-01    0.152E-01
DAV:   6    -0.104501270927E+03    0.72856E-04   -0.57219E-04 22416   0.240E-01
  23 F= -.10450127E+03 E0= -.10450087E+03  d E =-.163081E-01
       N       E                     dE             d eps       ncg     rms          rms(c)
DAV:   1    -0.104502570333E+03   -0.12266E-02   -0.82278E-01 19960   0.619E+00    0.445E-01
DAV:   2    -0.104510874270E+03   -0.83039E-02   -0.10325E-01 17848   0.176E+00    0.273E-01
DAV:   3    -0.104510781988E+03    0.92282E-04   -0.44031E-03 25824   0.544E-01    0.158E-01
DAV:   4    -0.104510618616E+03    0.16337E-03   -0.79356E-04 24440   0.280E-01    0.122E-01
DAV:   5    -0.104510566209E+03    0.52407E-04   -0.46285E-04 20368   0.200E-01
  24 F= -.10451057E+03 E0= -.10451021E+03  d E =-.929528E-02
       N       E                     dE             d eps       ncg     rms          rms(c)
DAV:   1    -0.104490304726E+03    0.20314E-01   -0.27037E+00 19936   0.112E+01    0.786E-01
DAV:   2    -0.104517471378E+03   -0.27167E-01   -0.33937E-01 17768   0.317E+00    0.495E-01
DAV:   3    -0.104517258131E+03    0.21325E-03   -0.14067E-02 25832   0.945E-01    0.281E-01
DAV:   4    -0.104516788042E+03    0.47009E-03   -0.26005E-03 25880   0.505E-01    0.230E-01
DAV:   5    -0.104516583047E+03    0.20499E-03   -0.15712E-03 26360   0.365E-01    0.125E-01
DAV:   6    -0.104516463194E+03    0.11985E-03   -0.56765E-04 22824   0.238E-01    0.506E-02
DAV:   7    -0.104516461357E+03    0.18367E-05   -0.71598E-05 10936   0.728E-02
  25 F= -.10451646E+03 E0= -.10451617E+03  d E =-.151904E-01
       N       E                     dE             d eps       ncg     rms          rms(c)
DAV:   1    -0.104519392984E+03   -0.29298E-02   -0.94365E-01 19128   0.582E+00    0.426E-01
DAV:   2    -0.104525190283E+03   -0.57973E-02   -0.80353E-02 21208   0.171E+00    0.326E-01
DAV:   3    -0.104525006680E+03    0.18360E-03   -0.48143E-03 27256   0.602E-01    0.171E-01
DAV:   4    -0.104524777102E+03    0.22958E-03   -0.92764E-04 24688   0.311E-01    0.135E-01
DAV:   5    -0.104524701203E+03    0.75899E-04   -0.52932E-04 20600   0.223E-01
  26 F= -.10452470E+03 E0= -.10452441E+03  d E =-.823985E-02
       N       E                     dE             d eps       ncg     rms          rms(c)
DAV:   1    -0.104520080434E+03    0.46967E-02   -0.14059E+00 19048   0.713E+00    0.520E-01
DAV:   2    -0.104528721577E+03   -0.86411E-02   -0.12048E-01 21416   0.211E+00    0.420E-01
DAV:   3    -0.104528412180E+03    0.30940E-03   -0.75485E-03 27160   0.763E-01    0.217E-01
DAV:   4    -0.104528075122E+03    0.33706E-03   -0.14129E-03 25800   0.382E-01    0.173E-01
DAV:   5    -0.104527964290E+03    0.11083E-03   -0.82558E-04 22352   0.279E-01    0.917E-02
DAV:   6    -0.104527878241E+03    0.86049E-04   -0.21838E-04 15800   0.187E-01
  27 F= -.10452788E+03 E0= -.10452759E+03  d E =-.114169E-01
       N       E                     dE             d eps       ncg     rms          rms(c)
DAV:   1    -0.104522788416E+03    0.51759E-02   -0.10408E+00 18096   0.707E+00    0.616E-01
DAV:   2    -0.104534099145E+03   -0.11311E-01   -0.14632E-01 18384   0.216E+00    0.282E-01
DAV:   3    -0.104534214574E+03   -0.11543E-03   -0.62877E-03 26488   0.632E-01    0.172E-01
DAV:   4    -0.104533982505E+03    0.23207E-03   -0.13158E-03 25688   0.386E-01    0.138E-01
DAV:   5    -0.104533867290E+03    0.11522E-03   -0.40622E-04 19976   0.186E-01    0.767E-02
DAV:   6    -0.104533851693E+03    0.15597E-04   -0.10927E-04 11120   0.115E-01
  28 F= -.10453385E+03 E0= -.10453359E+03  d E =-.597345E-02
       N       E                     dE             d eps       ncg     rms          rms(c)
DAV:   1    -0.104529447789E+03    0.44195E-02   -0.50636E-01 18060   0.493E+00    0.414E-01
DAV:   2    -0.104534953936E+03   -0.55061E-02   -0.71483E-02 18576   0.151E+00    0.205E-01
DAV:   3    -0.104534996210E+03   -0.42274E-04   -0.30877E-03 26608   0.442E-01    0.121E-01
DAV:   4    -0.104534897588E+03    0.98622E-04   -0.58407E-04 22960   0.263E-01
  29 F= -.10453490E+03 E0= -.10453466E+03  d E =-.701935E-02
       N       E                     dE             d eps       ncg     rms          rms(c)
DAV:   1    -0.104534460488E+03    0.53572E-03   -0.68765E-01 20024   0.542E+00    0.415E-01
DAV:   2    -0.104539163474E+03   -0.47030E-02   -0.74523E-02 18272   0.156E+00    0.317E-01
DAV:   3    -0.104538927508E+03    0.23597E-03   -0.40285E-03 26008   0.575E-01    0.176E-01
DAV:   4    -0.104538682941E+03    0.24457E-03   -0.10569E-03 25136   0.343E-01    0.132E-01
DAV:   5    -0.104538571159E+03    0.11178E-03   -0.50491E-04 20480   0.219E-01    0.727E-02
DAV:   6    -0.104538535763E+03    0.35395E-04   -0.11161E-04 11200   0.133E-01
  30 F= -.10453854E+03 E0= -.10453828E+03  d E =-.363817E-02
       N       E                     dE             d eps       ncg     rms          rms(c)
DAV:   1    -0.104538193052E+03    0.37811E-03   -0.10197E-01 19888   0.209E+00    0.158E-01
DAV:   2    -0.104538916158E+03   -0.72311E-03   -0.11270E-02 19168   0.628E-01    0.142E-01
DAV:   3    -0.104538865899E+03    0.50259E-04   -0.67123E-04 23448   0.247E-01
  31 F= -.10453887E+03 E0= -.10453861E+03  d E =-.396831E-02
       N       E                     dE             d eps       ncg     rms          rms(c)
DAV:   1    -0.104541049913E+03   -0.21338E-02   -0.65150E-01 17680   0.559E+00    0.101E+00
DAV:   2    -0.104541985140E+03   -0.93523E-03   -0.98012E-02 19052   0.196E+00    0.364E-01
DAV:   3    -0.104541862125E+03    0.12301E-03   -0.96644E-03 26544   0.937E-01    0.251E-01
DAV:   4    -0.104540864964E+03    0.99716E-03   -0.31667E-03 25944   0.629E-01    0.151E-01
DAV:   5    -0.104540752070E+03    0.11289E-03   -0.65106E-04 22896   0.226E-01    0.103E-01
DAV:   6    -0.104540712680E+03    0.39389E-04   -0.13333E-04 11896   0.145E-01
  32 F= -.10454071E+03 E0= -.10454043E+03  d E =-.184678E-02
       N       E                     dE             d eps       ncg     rms          rms(c)
DAV:   1    -0.104540708786E+03    0.43284E-04   -0.46626E-03 18368   0.483E-01    0.808E-02
DAV:   2    -0.104540696802E+03    0.11984E-04   -0.72724E-04 18792   0.191E-01
  33 F= -.10454070E+03 E0= -.10454041E+03  d E =-.183090E-02
       N       E                     dE             d eps       ncg     rms          rms(c)
DAV:   1    -0.104540596478E+03    0.11231E-03   -0.27691E-01 19080   0.355E+00    0.367E-01
DAV:   2    -0.104542543241E+03   -0.19468E-02   -0.35840E-02 17784   0.106E+00    0.156E-01
DAV:   3    -0.104542555078E+03   -0.11837E-04   -0.21206E-03 25992   0.388E-01    0.130E-01
DAV:   4    -0.104542403136E+03    0.15194E-03   -0.48470E-04 22920   0.246E-01    0.893E-02
DAV:   5    -0.104542371280E+03    0.31856E-04   -0.10601E-04 11312   0.941E-02
  34 F= -.10454237E+03 E0= -.10454208E+03  d E =-.167448E-02
       N       E                     dE             d eps       ncg     rms          rms(c)
DAV:   1    -0.104539321781E+03    0.30814E-02   -0.55482E-01 19200   0.503E+00    0.529E-01
DAV:   2    -0.104543207561E+03   -0.38858E-02   -0.71402E-02 17800   0.148E+00    0.210E-01
DAV:   3    -0.104543190812E+03    0.16749E-04   -0.37547E-03 25888   0.474E-01    0.168E-01
DAV:   4    -0.104542981249E+03    0.20956E-03   -0.89228E-04 24528   0.326E-01    0.118E-01
DAV:   5    -0.104542902736E+03    0.78512E-04   -0.17700E-04 13936   0.137E-01
  35 F= -.10454290E+03 E0= -.10454261E+03  d E =-.220593E-02
       N       E                     dE             d eps       ncg     rms          rms(c)
DAV:   1    -0.104543979733E+03   -0.99848E-03   -0.16032E-01 17696   0.268E+00    0.431E-01
DAV:   2    -0.104544599741E+03   -0.62001E-03   -0.19093E-02 18544   0.844E-01    0.151E-01
DAV:   3    -0.104544519767E+03    0.79974E-04   -0.12961E-03 26368   0.266E-01    0.870E-02
DAV:   4    -0.104544447136E+03    0.72630E-04   -0.30672E-04 17424   0.209E-01
  36 F= -.10454445E+03 E0= -.10454417E+03  d E =-.154440E-02
       N       E                     dE             d eps       ncg     rms          rms(c)
DAV:   1    -0.104544001479E+03    0.51829E-03   -0.35904E-01 17688   0.400E+00    0.603E-01
DAV:   2    -0.104545220611E+03   -0.12191E-02   -0.42659E-02 18484   0.126E+00    0.190E-01
DAV:   3    -0.104544938811E+03    0.28180E-03   -0.25134E-03 26168   0.290E-01    0.105E-01
DAV:   4    -0.104544915478E+03    0.23333E-04   -0.39554E-04 19288   0.216E-01
  37 F= -.10454492E+03 E0= -.10454465E+03  d E =-.201274E-02
       N       E                     dE             d eps       ncg     rms          rms(c)
DAV:   1    -0.104544840149E+03    0.98662E-04   -0.95163E-02 19188   0.202E+00    0.155E-01
DAV:   2    -0.104545778573E+03   -0.93842E-03   -0.10950E-02 20172   0.586E-01    0.106E-01
DAV:   3    -0.104545788261E+03   -0.96882E-05   -0.46486E-04 21256   0.182E-01
  38 F= -.10454579E+03 E0= -.10454552E+03  d E =-.872783E-03
       N       E                     dE             d eps       ncg     rms          rms(c)
DAV:   1    -0.104545162669E+03    0.61590E-03   -0.10262E-01 19208   0.209E+00    0.156E-01
DAV:   2    -0.104546153210E+03   -0.99054E-03   -0.11576E-02 19796   0.602E-01    0.113E-01
DAV:   3    -0.104546162279E+03   -0.90686E-05   -0.44812E-04 21448   0.154E-01
  39 F= -.10454616E+03 E0= -.10454589E+03  d E =-.124680E-02
       N       E                     dE             d eps       ncg     rms          rms(c)
DAV:   1    -0.104547252989E+03   -0.10998E-02   -0.12197E-01 17680   0.234E+00    0.465E-01
DAV:   2    -0.104547176096E+03    0.76892E-04   -0.15739E-02 19356   0.810E-01    0.140E-01
DAV:   3    -0.104547067403E+03    0.10869E-03   -0.14526E-03 26416   0.295E-01    0.975E-02
DAV:   4    -0.104546986317E+03    0.81086E-04   -0.26940E-04 16632   0.207E-01
  40 F= -.10454699E+03 E0= -.10454670E+03  d E =-.824038E-03
       N       E                     dE             d eps       ncg     rms          rms(c)
DAV:   1    -0.104547146074E+03   -0.78671E-04   -0.47796E-02 17688   0.147E+00    0.273E-01
DAV:   2    -0.104547051857E+03    0.94218E-04   -0.61242E-03 20708   0.508E-01    0.826E-02
DAV:   3    -0.104546977954E+03    0.73902E-04   -0.39232E-04 17472   0.135E-01
  41 F= -.10454698E+03 E0= -.10454668E+03  d E =-.815675E-03
