       N       E                     dE             d eps       ncg     rms          rms(c)
DAV:   1     0.234570021027E+03    0.23457E+03   -0.14660E+04 17256   0.781E+02
DAV:   2    -0.377382717286E+02   -0.27231E+03   -0.26061E+03 21128   0.343E+02
DAV:   3    -0.536827523532E+02   -0.15944E+02   -0.15610E+02 27024   0.709E+01
DAV:   4    -0.544935872952E+02   -0.81083E+00   -0.80562E+00 28544   0.122E+01
DAV:   5    -0.545064832538E+02   -0.12896E-01   -0.12894E-01 26480   0.142E+00    0.511E+01
DAV:   6    -0.524913974821E+02    0.20151E+01   -0.25962E+01 26192   0.226E+01    0.251E+01
DAV:   7    -0.546023091503E+02   -0.21109E+01   -0.71704E+01 28912   0.327E+01    0.163E+01
DAV:   8    -0.506092182010E+02    0.39931E+01   -0.18749E+01 27928   0.189E+01    0.108E+01
DAV:   9    -0.502255528088E+02    0.38367E+00   -0.13199E+00 24504   0.605E+00    0.468E+00
DAV:  10    -0.501821972550E+02    0.43356E-01   -0.16198E-01 26976   0.215E+00    0.249E+00
DAV:  11    -0.501733838393E+02    0.88134E-02   -0.42497E-02 27536   0.130E+00    0.289E-01
DAV:  12    -0.501735090497E+02   -0.12521E-03   -0.85451E-03 26632   0.602E-01    0.232E-01
DAV:  13    -0.501731516150E+02    0.35743E-03   -0.20625E-03 25024   0.237E-01    0.888E-02
DAV:  14    -0.501731845324E+02   -0.32917E-04   -0.14900E-04 14616   0.767E-02
   1 F= -.50173185E+02 E0= -.50173121E+02  d E =-.501732E+02
       N       E                     dE             d eps       ncg     rms          rms(c)
DAV:   1    -0.159477166446E+02    0.34225E+02   -0.30449E+03 17024   0.347E+02    0.279E+01
DAV:   2    -0.565259792196E+02   -0.40578E+02   -0.43462E+02 20816   0.997E+01    0.217E+01
DAV:   3    -0.552308197699E+02    0.12952E+01   -0.23852E+01 24464   0.277E+01    0.148E+01
DAV:   4    -0.548389583212E+02    0.39186E+00   -0.33463E+00 26184   0.101E+01    0.130E+01
DAV:   5    -0.543123047782E+02    0.52665E+00   -0.15102E+00 27816   0.817E+00    0.897E+00
DAV:   6    -0.541197238896E+02    0.19258E+00   -0.77310E-01 30488   0.445E+00    0.387E+00
DAV:   7    -0.541316471197E+02   -0.11923E-01   -0.81859E-02 24944   0.160E+00    0.241E+00
DAV:   8    -0.541400617408E+02   -0.84146E-02   -0.26973E-02 33144   0.718E-01    0.718E-01
DAV:   9    -0.541390089639E+02    0.10528E-02   -0.54540E-03 25936   0.483E-01    0.170E-01
DAV:  10    -0.541390246805E+02   -0.15717E-04   -0.67371E-04 20720   0.146E-01
   2 F= -.54139025E+02 E0= -.54138851E+02  d E =-.396584E+01
       N       E                     dE             d eps       ncg     rms          rms(c)
DAV:   1    -0.481382380677E+02    0.60008E+01   -0.68887E+02 17056   0.202E+02    0.152E+01
DAV:   2    -0.566873412132E+02   -0.85491E+01   -0.10635E+02 17120   0.524E+01    0.703E+00
DAV:   3    -0.564340137296E+02    0.25333E+00   -0.64632E+00 24976   0.127E+01    0.430E+00
DAV:   4    -0.562054247950E+02    0.22859E+00   -0.11763E+00 25984   0.755E+00    0.314E+00
DAV:   5    -0.561192766992E+02    0.86148E-01   -0.36583E-01 26816   0.344E+00    0.209E+00
DAV:   6    -0.561238236846E+02   -0.45470E-02   -0.46318E-02 29152   0.117E+00    0.177E+00
DAV:   7    -0.561275170960E+02   -0.36934E-02   -0.81670E-03 25224   0.497E-01    0.489E-01
DAV:   8    -0.561265140424E+02    0.10031E-02   -0.86840E-03 33440   0.679E-01    0.221E-01
DAV:   9    -0.561264784988E+02    0.35544E-04   -0.90639E-04 23712   0.183E-01
   3 F= -.56126478E+02 E0= -.56126047E+02  d E =-.595329E+01
       N       E                     dE             d eps       ncg     rms          rms(c)
DAV:   1    -0.561268971605E+02   -0.38312E-03   -0.11953E-01 17664   0.284E+00    0.249E-01
DAV:   2    -0.561285832499E+02   -0.16861E-02   -0.22828E-02 18984   0.825E-01    0.125E-01
DAV:   3    -0.561284865441E+02    0.96706E-04   -0.23171E-03 24192   0.222E-01    0.869E-02
DAV:   4    -0.561284063584E+02    0.80186E-04   -0.38945E-04 14696   0.103E-01
   4 F= -.56128406E+02 E0= -.56127971E+02  d E =-.595522E+01
       N       E                     dE             d eps       ncg     rms          rms(c)
DAV:   1    -0.568632668405E+02   -0.73478E+00   -0.67233E+01 18824   0.651E+01    0.514E+00
DAV:   2    -0.574774048189E+02   -0.61414E+00   -0.89888E+00 19584   0.173E+01    0.258E+00
DAV:   3    -0.574317110407E+02    0.45694E-01   -0.25211E-01 24192   0.319E+00    0.196E+00
DAV:   4    -0.574193721167E+02    0.12339E-01   -0.13354E-01 26272   0.228E+00    0.124E+00
DAV:   5    -0.574065029520E+02    0.12869E-01   -0.74921E-02 26616   0.148E+00    0.534E-01
DAV:   6    -0.574064971863E+02    0.57657E-05   -0.74958E-03 21808   0.508E-01    0.153E-01
DAV:   7    -0.574065095968E+02   -0.12411E-04   -0.53729E-04 22480   0.160E-01
   5 F= -.57406510E+02 E0= -.57406421E+02  d E =-.127810E+01
       N       E                     dE             d eps       ncg     rms          rms(c)
DAV:   1    -0.566454184130E+02    0.76108E+00   -0.17598E+02 17024   0.107E+02    0.954E+00
DAV:   2    -0.583266175496E+02   -0.16812E+01   -0.23098E+01 19088   0.276E+01    0.395E+00
DAV:   3    -0.582077007307E+02    0.11892E+00   -0.54222E-01 23472   0.486E+00    0.241E+00
DAV:   4    -0.581744141941E+02    0.33287E-01   -0.21286E-01 27760   0.337E+00    0.168E+00
DAV:   5    -0.581568751928E+02    0.17539E-01   -0.94511E-02 27264   0.244E+00    0.631E-01
DAV:   6    -0.581571411374E+02   -0.26594E-03   -0.81200E-03 20880   0.621E-01    0.294E-01
DAV:   7    -0.581572351102E+02   -0.93973E-04   -0.11191E-03 25816   0.236E-01    0.614E-02
DAV:   8    -0.581572229162E+02    0.12194E-04   -0.11562E-04 14664   0.854E-02
   6 F= -.58157223E+02 E0= -.58157167E+02  d E =-.202882E+01
       N       E                     dE             d eps       ncg     rms          rms(c)
DAV:   1    -0.583830869060E+02   -0.22585E+00   -0.68432E+01 17024   0.694E+01    0.661E+00
DAV:   2    -0.592013393841E+02   -0.81825E+00   -0.10049E+01 17064   0.179E+01    0.260E+00
DAV:   3    -0.591697811798E+02    0.31558E-01   -0.21560E-01 24040   0.327E+00    0.149E+00
DAV:   4    -0.591619255696E+02    0.78556E-02   -0.90667E-02 28472   0.266E+00    0.121E+00
DAV:   5    -0.591535528918E+02    0.83727E-02   -0.41916E-02 27112   0.149E+00    0.476E-01
DAV:   6    -0.591538235726E+02   -0.27068E-03   -0.39186E-03 22928   0.448E-01    0.254E-01
DAV:   7    -0.591539132849E+02   -0.89712E-04   -0.49850E-04 21560   0.139E-01
   7 F= -.59153913E+02 E0= -.59153835E+02  d E =-.996690E+00
       N       E                     dE             d eps       ncg     rms          rms(c)
DAV:   1    -0.586394639555E+02    0.51436E+00   -0.69481E+01 17088   0.716E+01    0.757E+00
DAV:   2    -0.595129909372E+02   -0.87353E+00   -0.10655E+01 17120   0.183E+01    0.231E+00
DAV:   3    -0.594767530537E+02    0.36238E-01   -0.20118E-01 23904   0.305E+00    0.129E+00
DAV:   4    -0.594648683191E+02    0.11885E-01   -0.56496E-02 27272   0.165E+00    0.644E-01
DAV:   5    -0.594647226924E+02    0.14563E-03   -0.13109E-02 26064   0.831E-01    0.416E-01
DAV:   6    -0.594646526961E+02    0.69996E-04   -0.29551E-03 29536   0.412E-01    0.180E-01
DAV:   7    -0.594646789702E+02   -0.26274E-04   -0.42028E-04 18920   0.128E-01
   8 F= -.59464679E+02 E0= -.59464583E+02  d E =-.130746E+01
       N       E                     dE             d eps       ncg     rms          rms(c)
DAV:   1    -0.590818814651E+02    0.38277E+00   -0.69331E+01 17544   0.714E+01    0.561E+00
DAV:   2    -0.599506287295E+02   -0.86875E+00   -0.10616E+01 18480   0.186E+01    0.227E+00
DAV:   3    -0.599410390844E+02    0.95896E-02   -0.17802E-01 24960   0.296E+00    0.133E+00
DAV:   4    -0.599368526719E+02    0.41864E-02   -0.39557E-02 27072   0.155E+00    0.580E-01
DAV:   5    -0.599358265027E+02    0.10262E-02   -0.13363E-02 25360   0.813E-01    0.205E-01
DAV:   6    -0.599356149045E+02    0.21160E-03   -0.14560E-03 22864   0.281E-01    0.113E-01
DAV:   7    -0.599356492295E+02   -0.34325E-04   -0.25389E-04 17976   0.900E-02
   9 F= -.59935649E+02 E0= -.59935600E+02  d E =-.470970E+00
       N       E                     dE             d eps       ncg     rms          rms(c)
DAV:   1    -0.599352855054E+02    0.32940E-03   -0.67271E-02 20576   0.220E+00    0.134E-01
DAV:   2    -0.599361223898E+02   -0.83688E-03   -0.10272E-02 20896   0.562E-01    0.900E-02
DAV:   3    -0.599361137197E+02    0.86701E-05   -0.13939E-04 20120   0.848E-02
  10 F= -.59936114E+02 E0= -.59936072E+02  d E =-.471435E+00
       N       E                     dE             d eps       ncg     rms          rms(c)
DAV:   1    -0.603085157129E+02   -0.37239E+00   -0.34888E+01 17872   0.488E+01    0.387E+00
DAV:   2    -0.605794485673E+02   -0.27093E+00   -0.45245E+00 18584   0.136E+01    0.173E+00
DAV:   3    -0.605727355157E+02    0.67131E-02   -0.11813E-01 26008   0.232E+00    0.107E+00
DAV:   4    -0.605673473082E+02    0.53882E-02   -0.29284E-02 26080   0.949E-01    0.569E-01
DAV:   5    -0.605675547936E+02   -0.20749E-03   -0.49760E-03 24696   0.445E-01    0.411E-01
DAV:   6    -0.605677323711E+02   -0.17758E-03   -0.95978E-04 26864   0.206E-01    0.189E-01
DAV:   7    -0.605677469305E+02   -0.14559E-04   -0.59984E-04 23472   0.174E-01
  11 F= -.60567747E+02 E0= -.60567820E+02  d E =-.631633E+00
       N       E                     dE             d eps       ncg     rms          rms(c)
DAV:   1    -0.605619647671E+02    0.57676E-02   -0.20580E+01 17520   0.370E+01    0.284E+00
DAV:   2    -0.607186469295E+02   -0.15668E+00   -0.27197E+00 18752   0.105E+01    0.146E+00
DAV:   3    -0.607151778925E+02    0.34690E-02   -0.71743E-02 25904   0.177E+00    0.876E-01
DAV:   4    -0.607116519230E+02    0.35260E-02   -0.17730E-02 27432   0.770E-01    0.422E-01
DAV:   5    -0.607116480519E+02    0.38710E-05   -0.32998E-03 26408   0.388E-01    0.367E-01
DAV:   6    -0.607116962884E+02   -0.48236E-04   -0.49802E-04 21656   0.163E-01
  12 F= -.60711696E+02 E0= -.60711774E+02  d E =-.775583E+00
       N       E                     dE             d eps       ncg     rms          rms(c)
DAV:   1    -0.610227262503E+02   -0.31108E+00   -0.27202E+01 18704   0.383E+01    0.373E+00
DAV:   2    -0.611458887210E+02   -0.12316E+00   -0.29805E+00 20456   0.110E+01    0.184E+00
DAV:   3    -0.611424128834E+02    0.34758E-02   -0.94871E-02 24408   0.182E+00    0.107E+00
DAV:   4    -0.611377421172E+02    0.46708E-02   -0.21726E-02 28040   0.895E-01    0.492E-01
DAV:   5    -0.611375897866E+02    0.15233E-03   -0.43937E-03 25872   0.438E-01    0.388E-01
DAV:   6    -0.611375751439E+02    0.14643E-04   -0.65432E-04 22304   0.180E-01
  13 F= -.61137575E+02 E0= -.61137630E+02  d E =-.425879E+00
       N       E                     dE             d eps       ncg     rms          rms(c)
DAV:   1    -0.611620319436E+02   -0.24442E-01   -0.87206E+00 17024   0.216E+01    0.215E+00
DAV:   2    -0.612061347136E+02   -0.44103E-01   -0.10278E+00 20968   0.634E+00    0.131E+00
DAV:   3    -0.612050282404E+02    0.11065E-02   -0.31796E-02 23592   0.109E+00    0.788E-01
DAV:   4    -0.612033425813E+02    0.16857E-02   -0.79810E-03 28600   0.597E-01    0.360E-01
DAV:   5    -0.612031911433E+02    0.15144E-03   -0.22718E-03 28840   0.320E-01    0.239E-01
DAV:   6    -0.612031598161E+02    0.31327E-04   -0.18488E-04 16312   0.995E-02
  14 F= -.61203160E+02 E0= -.61203226E+02  d E =-.491464E+00
       N       E                     dE             d eps       ncg     rms          rms(c)
DAV:   1    -0.610564927309E+02    0.14670E+00   -0.35218E+01 17024   0.481E+01    0.306E+00
DAV:   2    -0.614638527304E+02   -0.40736E+00   -0.55286E+00 19368   0.133E+01    0.212E+00
DAV:   3    -0.614607985359E+02    0.30542E-02   -0.10211E-01 23600   0.228E+00    0.115E+00
DAV:   4    -0.614563310407E+02    0.44675E-02   -0.20070E-02 26424   0.107E+00    0.750E-01
DAV:   5    -0.614558870046E+02    0.44404E-03   -0.78617E-03 28632   0.677E-01    0.298E-01
DAV:   6    -0.614558193720E+02    0.67633E-04   -0.10408E-03 23792   0.237E-01    0.184E-01
DAV:   7    -0.614557892446E+02    0.30127E-04   -0.23876E-04 16208   0.121E-01
  15 F= -.61455789E+02 E0= -.61455825E+02  d E =-.252629E+00
       N       E                     dE             d eps       ncg     rms          rms(c)
DAV:   1    -0.614520739622E+02    0.37454E-02   -0.79638E-01 19008   0.723E+00    0.511E-01
DAV:   2    -0.614609289826E+02   -0.88550E-02   -0.11865E-01 19496   0.197E+00    0.366E-01
DAV:   3    -0.614608232004E+02    0.10578E-03   -0.21618E-03 23864   0.339E-01    0.198E-01
DAV:   4    -0.614607370114E+02    0.86189E-04   -0.50982E-04 23544   0.181E-01
  16 F= -.61460737E+02 E0= -.61460770E+02  d E =-.257577E+00
       N       E                     dE             d eps       ncg     rms          rms(c)
DAV:   1    -0.615343282920E+02   -0.73505E-01   -0.11629E+01 19152   0.260E+01    0.202E+00
DAV:   2    -0.616289601485E+02   -0.94632E-01   -0.11734E+00 19552   0.641E+00    0.984E-01
DAV:   3    -0.616272777323E+02    0.16824E-02   -0.22778E-02 28624   0.938E-01    0.546E-01
DAV:   4    -0.616266865481E+02    0.59118E-03   -0.40514E-03 26768   0.392E-01    0.173E-01
DAV:   5    -0.616266870212E+02   -0.47307E-06   -0.62086E-04 22856   0.173E-01
  17 F= -.61626687E+02 E0= -.61626738E+02  d E =-.165950E+00
       N       E                     dE             d eps       ncg     rms          rms(c)
DAV:   1    -0.616184184734E+02    0.82681E-02   -0.53356E+00 19104   0.176E+01    0.135E+00
DAV:   2    -0.616618035766E+02   -0.43385E-01   -0.53958E-01 20176   0.436E+00    0.716E-01
DAV:   3    -0.616610418779E+02    0.76170E-03   -0.10517E-02 28672   0.642E-01    0.408E-01
DAV:   4    -0.616607509514E+02    0.29093E-03   -0.20069E-03 26888   0.279E-01    0.121E-01
DAV:   5    -0.616607857049E+02   -0.34753E-04   -0.31380E-04 19160   0.134E-01
  18 F= -.61660786E+02 E0= -.61660855E+02  d E =-.200049E+00
       N       E                     dE             d eps       ncg     rms          rms(c)
DAV:   1    -0.615838876519E+02    0.76863E-01   -0.19020E+01 17280   0.327E+01    0.256E+00
DAV:   2    -0.617817358646E+02   -0.19785E+00   -0.23443E+00 18256   0.890E+00    0.120E+00
DAV:   3    -0.617795326867E+02    0.22032E-02   -0.42421E-02 26704   0.137E+00    0.756E-01
DAV:   4    -0.617779257539E+02    0.16069E-02   -0.11430E-02 23920   0.697E-01    0.185E-01
DAV:   5    -0.617779334619E+02   -0.77080E-05   -0.26500E-03 24776   0.385E-01    0.863E-02
DAV:   6    -0.617778912157E+02    0.42246E-04   -0.21721E-04 15744   0.130E-01
  19 F= -.61777891E+02 E0= -.61777941E+02  d E =-.117106E+00
       N       E                     dE             d eps       ncg     rms          rms(c)
DAV:   1    -0.617756390927E+02    0.22944E-02   -0.41237E-01 17128   0.480E+00    0.349E-01
DAV:   2    -0.617801998941E+02   -0.45608E-02   -0.53736E-02 19008   0.132E+00    0.208E-01
DAV:   3    -0.617801622259E+02    0.37668E-04   -0.94048E-04 26352   0.196E-01
  20 F= -.61780162E+02 E0= -.61780207E+02  d E =-.119377E+00
       N       E                     dE             d eps       ncg     rms          rms(c)
DAV:   1    -0.618524551154E+02   -0.72255E-01   -0.11912E+01 17024   0.261E+01    0.279E+00
DAV:   2    -0.619050739579E+02   -0.52619E-01   -0.12592E+00 20848   0.712E+00    0.994E-01
DAV:   3    -0.618991311447E+02    0.59428E-02   -0.44093E-02 24232   0.139E+00    0.622E-01
DAV:   4    -0.618968694454E+02    0.22617E-02   -0.10123E-02 27952   0.576E-01    0.374E-01
DAV:   5    -0.618969778570E+02   -0.10841E-03   -0.17423E-03 24552   0.274E-01    0.244E-01
DAV:   6    -0.618970504103E+02   -0.72553E-04   -0.38017E-04 21224   0.153E-01
  21 F= -.61897050E+02 E0= -.61897078E+02  d E =-.116888E+00
       N       E                     dE             d eps       ncg     rms          rms(c)
DAV:   1    -0.618915621302E+02    0.54157E-02   -0.65025E+00 17024   0.191E+01    0.208E+00
DAV:   2    -0.619210320913E+02   -0.29470E-01   -0.68127E-01 20904   0.522E+00    0.732E-01
DAV:   3    -0.619177019528E+02    0.33301E-02   -0.23105E-02 24352   0.986E-01    0.449E-01
DAV:   4    -0.619164777851E+02    0.12242E-02   -0.56037E-03 27968   0.424E-01    0.269E-01
DAV:   5    -0.619165497049E+02   -0.71920E-04   -0.89335E-04 22528   0.186E-01
  22 F= -.61916550E+02 E0= -.61916571E+02  d E =-.136387E+00
       N       E                     dE             d eps       ncg     rms          rms(c)
DAV:   1    -0.619933680733E+02   -0.76890E-01   -0.46897E+00 17448   0.144E+01    0.982E-01
DAV:   2    -0.620101519190E+02   -0.16784E-01   -0.30510E-01 21280   0.334E+00    0.584E-01
DAV:   3    -0.620075621764E+02    0.25897E-02   -0.10178E-02 24456   0.638E-01    0.304E-01
DAV:   4    -0.620068238973E+02    0.73828E-03   -0.26650E-03 23688   0.333E-01    0.118E-01
DAV:   5    -0.620068541072E+02   -0.30210E-04   -0.66742E-04 22432   0.178E-01
  23 F= -.62006854E+02 E0= -.62006875E+02  d E =-.903044E-01
       N       E                     dE             d eps       ncg     rms          rms(c)
DAV:   1    -0.619872310033E+02    0.19593E-01   -0.41944E+01 17024   0.432E+01    0.287E+00
DAV:   2    -0.621522195626E+02   -0.16499E+00   -0.27983E+00 21280   0.100E+01    0.156E+00
DAV:   3    -0.621303081761E+02    0.21911E-01   -0.82849E-02 24696   0.180E+00    0.946E-01
DAV:   4    -0.621232302227E+02    0.70780E-02   -0.25736E-02 23000   0.101E+00    0.255E-01
DAV:   5    -0.621236240470E+02   -0.39382E-03   -0.49427E-03 22432   0.430E-01    0.136E-01
DAV:   6    -0.621236410570E+02   -0.17010E-04   -0.40905E-04 21464   0.160E-01
  24 F= -.62123641E+02 E0= -.62123652E+02  d E =-.207091E+00
       N       E                     dE             d eps       ncg     rms          rms(c)
DAV:   1    -0.622253813658E+02   -0.10176E+00   -0.14399E+01 17024   0.267E+01    0.387E+00
DAV:   2    -0.622758407286E+02   -0.50459E-01   -0.14344E+00 20072   0.756E+00    0.116E+00
DAV:   3    -0.622674992488E+02    0.83415E-02   -0.51335E-02 24360   0.153E+00    0.590E-01
DAV:   4    -0.622649141295E+02    0.25851E-02   -0.12247E-02 28088   0.633E-01    0.451E-01
DAV:   5    -0.622650392532E+02   -0.12512E-03   -0.19369E-03 28136   0.281E-01    0.326E-01
DAV:   6    -0.622652248963E+02   -0.18564E-03   -0.32073E-04 21240   0.138E-01    0.118E-01
DAV:   7    -0.622652191035E+02    0.57928E-05   -0.25846E-04 20928   0.120E-01
  25 F= -.62265219E+02 E0= -.62265216E+02  d E =-.141578E+00
       N       E                     dE             d eps       ncg     rms          rms(c)
DAV:   1    -0.622694703096E+02   -0.42454E-02   -0.84550E+00 17024   0.207E+01    0.294E+00
DAV:   2    -0.623009558792E+02   -0.31486E-01   -0.85418E-01 19824   0.592E+00    0.985E-01
DAV:   3    -0.622963934207E+02    0.45625E-02   -0.30735E-02 24632   0.127E+00    0.472E-01
DAV:   4    -0.622948394009E+02    0.15540E-02   -0.71259E-03 28664   0.523E-01    0.362E-01
DAV:   5    -0.622948855446E+02   -0.46144E-04   -0.12182E-03 26832   0.239E-01    0.257E-01
DAV:   6    -0.622950003746E+02   -0.11483E-03   -0.20612E-04 19704   0.108E-01    0.102E-01
DAV:   7    -0.622949996680E+02    0.70659E-06   -0.10584E-04 14800   0.864E-02
  26 F= -.62295000E+02 E0= -.62295112E+02  d E =-.171359E+00
       N       E                     dE             d eps       ncg     rms          rms(c)
DAV:   1    -0.622957766862E+02   -0.77631E-03   -0.12228E+01 18728   0.272E+01    0.239E+00
DAV:   2    -0.623970842806E+02   -0.10131E+00   -0.14434E+00 20424   0.732E+00    0.100E+00
DAV:   3    -0.623909702800E+02    0.61140E-02   -0.31473E-02 26336   0.117E+00    0.639E-01
DAV:   4    -0.623887546777E+02    0.22156E-02   -0.79438E-03 26976   0.555E-01    0.336E-01
DAV:   5    -0.623887944013E+02   -0.39724E-04   -0.18787E-03 28056   0.297E-01    0.225E-01
DAV:   6    -0.623888513250E+02   -0.56924E-04   -0.26838E-04 18736   0.116E-01
  27 F= -.62388851E+02 E0= -.62388955E+02  d E =-.938517E-01
       N       E                     dE             d eps       ncg     rms          rms(c)
DAV:   1    -0.623882848916E+02    0.50951E-03   -0.27237E-01 17456   0.408E+00    0.341E-01
DAV:   2    -0.623905705697E+02   -0.22857E-02   -0.33102E-02 20824   0.112E+00    0.149E-01
DAV:   3    -0.623904440574E+02    0.12651E-03   -0.75849E-04 23368   0.190E-01    0.882E-02
DAV:   4    -0.623903955732E+02    0.48484E-04   -0.15468E-04 14816   0.879E-02
  28 F= -.62390396E+02 E0= -.62390497E+02  d E =-.953959E-01
       N       E                     dE             d eps       ncg     rms          rms(c)
DAV:   1    -0.624385690926E+02   -0.48125E-01   -0.32811E+00 17528   0.132E+01    0.892E-01
DAV:   2    -0.624610525001E+02   -0.22483E-01   -0.31598E-01 21096   0.352E+00    0.490E-01
DAV:   3    -0.624603711308E+02    0.68137E-03   -0.78869E-03 28256   0.560E-01    0.290E-01
DAV:   4    -0.624599594736E+02    0.41166E-03   -0.16648E-03 24032   0.275E-01    0.774E-02
DAV:   5    -0.624599847602E+02   -0.25287E-04   -0.26979E-04 16928   0.118E-01
  29 F= -.62459985E+02 E0= -.62459985E+02  d E =-.695892E-01
       N       E                     dE             d eps       ncg     rms          rms(c)
DAV:   1    -0.624440370285E+02    0.15922E-01   -0.84974E+00 17440   0.213E+01    0.145E+00
DAV:   2    -0.625036915973E+02   -0.59655E-01   -0.82310E-01 21152   0.568E+00    0.795E-01
DAV:   3    -0.625015136728E+02    0.21779E-02   -0.19917E-02 28824   0.887E-01    0.469E-01
DAV:   4    -0.625004322880E+02    0.10814E-02   -0.44143E-03 24288   0.443E-01    0.116E-01
DAV:   5    -0.625005047644E+02   -0.72476E-04   -0.74647E-04 21024   0.180E-01
  30 F= -.62500505E+02 E0= -.62500503E+02  d E =-.110109E+00
       N       E                     dE             d eps       ncg     rms          rms(c)
DAV:   1    -0.625430293610E+02   -0.42597E-01   -0.20560E+00 17024   0.954E+00    0.105E+00
DAV:   2    -0.625494828228E+02   -0.64535E-02   -0.14144E-01 21080   0.270E+00    0.440E-01
DAV:   3    -0.625489354812E+02    0.54734E-03   -0.58411E-03 28864   0.530E-01    0.243E-01
DAV:   4    -0.625486567279E+02    0.27875E-03   -0.90160E-04 26904   0.189E-01    0.144E-01
DAV:   5    -0.625486562877E+02    0.44016E-06   -0.19898E-04 17960   0.111E-01
  31 F= -.62548656E+02 E0= -.62548653E+02  d E =-.481515E-01
       N       E                     dE             d eps       ncg     rms          rms(c)
DAV:   1    -0.625642071691E+02   -0.15550E-01   -0.73058E+00 17024   0.180E+01    0.192E+00
DAV:   2    -0.625866359207E+02   -0.22429E-01   -0.50001E-01 20928   0.509E+00    0.834E-01
DAV:   3    -0.625847076541E+02    0.19283E-02   -0.20568E-02 29232   0.971E-01    0.467E-01
DAV:   4    -0.625836604337E+02    0.10472E-02   -0.33901E-03 27840   0.351E-01    0.273E-01
DAV:   5    -0.625836856816E+02   -0.25248E-04   -0.87190E-04 29424   0.201E-01
  32 F= -.62583686E+02 E0= -.62583686E+02  d E =-.831809E-01
       N       E                     dE             d eps       ncg     rms          rms(c)
DAV:   1    -0.626025986047E+02   -0.18938E-01   -0.58343E-01 17040   0.544E+00    0.474E-01
DAV:   2    -0.626050622439E+02   -0.24636E-02   -0.55799E-02 20880   0.155E+00    0.347E-01
DAV:   3    -0.626047563219E+02    0.30592E-03   -0.18406E-03 24848   0.295E-01    0.199E-01
DAV:   4    -0.626045456138E+02    0.21071E-03   -0.54204E-04 22192   0.159E-01    0.771E-02
DAV:   5    -0.626045444179E+02    0.11959E-05   -0.12061E-04 15176   0.856E-02
  33 F= -.62604544E+02 E0= -.62604547E+02  d E =-.208587E-01
       N       E                     dE             d eps       ncg     rms          rms(c)
DAV:   1    -0.626127486945E+02   -0.82031E-02   -0.19233E+00 17024   0.988E+00    0.844E-01
DAV:   2    -0.626207024406E+02   -0.79537E-02   -0.18490E-01 20856   0.284E+00    0.610E-01
DAV:   3    -0.626197053900E+02    0.99705E-03   -0.64859E-03 25256   0.560E-01    0.342E-01
DAV:   4    -0.626190384698E+02    0.66692E-03   -0.16944E-03 24000   0.281E-01    0.133E-01
DAV:   5    -0.626190272448E+02    0.11225E-04   -0.44986E-04 21800   0.148E-01
  34 F= -.62619027E+02 E0= -.62619027E+02  d E =-.353416E-01
       N       E                     dE             d eps       ncg     rms          rms(c)
DAV:   1    -0.626271794143E+02   -0.81409E-02   -0.89162E-01 17024   0.728E+00    0.690E-01
DAV:   2    -0.626343313770E+02   -0.71520E-02   -0.11561E-01 20384   0.220E+00    0.412E-01
DAV:   3    -0.626340043664E+02    0.32701E-03   -0.29190E-03 25776   0.382E-01    0.212E-01
DAV:   4    -0.626337617243E+02    0.24264E-03   -0.66941E-04 23984   0.182E-01    0.905E-02
DAV:   5    -0.626337654820E+02   -0.37578E-05   -0.16523E-04 16784   0.863E-02
  35 F= -.62633765E+02 E0= -.62633779E+02  d E =-.147382E-01
       N       E                     dE             d eps       ncg     rms          rms(c)
DAV:   1    -0.626320799564E+02    0.16818E-02   -0.92275E-01 17024   0.742E+00    0.716E-01
DAV:   2    -0.626394887798E+02   -0.74088E-02   -0.12032E-01 20400   0.223E+00    0.416E-01
DAV:   3    -0.626391469064E+02    0.34187E-03   -0.30109E-03 25904   0.385E-01    0.217E-01
DAV:   4    -0.626388969916E+02    0.24991E-03   -0.70156E-04 24064   0.185E-01    0.899E-02
DAV:   5    -0.626389021411E+02   -0.51496E-05   -0.16861E-04 16840   0.873E-02
  36 F= -.62638902E+02 E0= -.62638920E+02  d E =-.198749E-01
       N       E                     dE             d eps       ncg     rms          rms(c)
DAV:   1    -0.626457844943E+02   -0.68875E-02   -0.36904E-01 17024   0.444E+00    0.522E-01
DAV:   2    -0.626476736782E+02   -0.18892E-02   -0.39621E-02 19616   0.127E+00    0.226E-01
DAV:   3    -0.626473043778E+02    0.36930E-03   -0.13252E-03 26104   0.244E-01    0.105E-01
DAV:   4    -0.626472178584E+02    0.86519E-04   -0.19752E-04 15856   0.106E-01
  37 F= -.62647218E+02 E0= -.62647239E+02  d E =-.831572E-02
       N       E                     dE             d eps       ncg     rms          rms(c)
DAV:   1    -0.626445802573E+02    0.27241E-02   -0.24218E+00 17024   0.114E+01    0.136E+00
DAV:   2    -0.626568635686E+02   -0.12283E-01   -0.26044E-01 19592   0.324E+00    0.557E-01
DAV:   3    -0.626543623488E+02    0.25012E-02   -0.87289E-03 26056   0.623E-01    0.282E-01
DAV:   4    -0.626538371594E+02    0.52519E-03   -0.17099E-03 28656   0.272E-01    0.171E-01
DAV:   5    -0.626538363181E+02    0.84127E-06   -0.27342E-04 18480   0.140E-01
  38 F= -.62653836E+02 E0= -.62653860E+02  d E =-.149342E-01
       N       E                     dE             d eps       ncg     rms          rms(c)
DAV:   1    -0.626575756222E+02   -0.37385E-02   -0.33576E-01 17080   0.417E+00    0.320E-01
DAV:   2    -0.626593573331E+02   -0.17817E-02   -0.28796E-02 21240   0.108E+00    0.181E-01
DAV:   3    -0.626591558494E+02    0.20148E-03   -0.80731E-04 26800   0.181E-01    0.927E-02
DAV:   4    -0.626590935021E+02    0.62347E-04   -0.12278E-04 14896   0.840E-02
  39 F= -.62659094E+02 E0= -.62659094E+02  d E =-.525718E-02
       N       E                     dE             d eps       ncg     rms          rms(c)
DAV:   1    -0.626588063624E+02    0.34949E-03   -0.56562E-01 17064   0.542E+00    0.414E-01
DAV:   2    -0.626617381275E+02   -0.29318E-02   -0.48490E-02 21248   0.139E+00    0.235E-01
DAV:   3    -0.626613953703E+02    0.34276E-03   -0.13434E-03 27840   0.231E-01    0.124E-01
DAV:   4    -0.626612874937E+02    0.10788E-03   -0.21986E-04 16448   0.107E-01    0.681E-02
DAV:   5    -0.626612881533E+02   -0.65962E-06   -0.66373E-05 14648   0.694E-02
  40 F= -.62661288E+02 E0= -.62661308E+02  d E =-.745184E-02
       N       E                     dE             d eps       ncg     rms          rms(c)
DAV:   1    -0.626669571941E+02   -0.56697E-02   -0.12515E-01 17088   0.249E+00    0.436E-01
DAV:   2    -0.626666278368E+02    0.32936E-03   -0.10998E-02 21832   0.758E-01    0.125E-01
DAV:   3    -0.626664582372E+02    0.16960E-03   -0.63382E-04 22856   0.157E-01    0.711E-02
DAV:   4    -0.626664019625E+02    0.56275E-04   -0.12737E-04 15896   0.764E-02
  41 F= -.62666402E+02 E0= -.62666422E+02  d E =-.511381E-02
       N       E                     dE             d eps       ncg     rms          rms(c)
DAV:   1    -0.626781849692E+02   -0.11727E-01   -0.11212E+00 17024   0.747E+00    0.128E+00
DAV:   2    -0.626749840604E+02    0.32009E-02   -0.97232E-02 21760   0.226E+00    0.364E-01
DAV:   3    -0.626734820102E+02    0.15021E-02   -0.55675E-03 23376   0.464E-01    0.221E-01
DAV:   4    -0.626730566607E+02    0.42535E-03   -0.14936E-03 28824   0.230E-01    0.186E-01
DAV:   5    -0.626730715902E+02   -0.14929E-04   -0.19731E-04 17552   0.103E-01
  42 F= -.62673072E+02 E0= -.62673097E+02  d E =-.117834E-01
       N       E                     dE             d eps       ncg     rms          rms(c)
DAV:   1    -0.626752201231E+02   -0.21635E-02   -0.24346E-01 17024   0.388E+00    0.258E-01
DAV:   2    -0.626778980116E+02   -0.26779E-02   -0.33569E-02 18688   0.106E+00    0.124E-01
DAV:   3    -0.626778561026E+02    0.41909E-04   -0.52443E-04 22776   0.157E-01
  43 F= -.62677856E+02 E0= -.62677884E+02  d E =-.478451E-02
       N       E                     dE             d eps       ncg     rms          rms(c)
DAV:   1    -0.626605385387E+02    0.17359E-01   -0.21883E+00 17024   0.116E+01    0.730E-01
DAV:   2    -0.626847675362E+02   -0.24229E-01   -0.29909E-01 18544   0.315E+00    0.360E-01
DAV:   3    -0.626845494321E+02    0.21810E-03   -0.46164E-03 26320   0.456E-01    0.240E-01
DAV:   4    -0.626843073826E+02    0.24205E-03   -0.10294E-03 22384   0.224E-01    0.570E-02
DAV:   5    -0.626843175379E+02   -0.10155E-04   -0.20605E-04 16896   0.989E-02
  44 F= -.62684318E+02 E0= -.62684356E+02  d E =-.112459E-01
       N       E                     dE             d eps       ncg     rms          rms(c)
DAV:   1    -0.626880248950E+02   -0.37175E-02   -0.12235E-01 17104   0.240E+00    0.302E-01
DAV:   2    -0.626884731271E+02   -0.44823E-03   -0.11382E-02 21048   0.678E-01    0.101E-01
DAV:   3    -0.626884001365E+02    0.72991E-04   -0.36548E-04 22632   0.119E-01
  45 F= -.62688400E+02 E0= -.62688454E+02  d E =-.408260E-02
       N       E                     dE             d eps       ncg     rms          rms(c)
DAV:   1    -0.626947424770E+02   -0.62693E-02   -0.10932E+00 17024   0.718E+00    0.909E-01
DAV:   2    -0.626985995213E+02   -0.38570E-02   -0.10034E-01 20880   0.201E+00    0.286E-01
DAV:   3    -0.626979376000E+02    0.66192E-03   -0.32459E-03 23912   0.350E-01    0.173E-01
DAV:   4    -0.626977100530E+02    0.22755E-03   -0.84803E-04 27856   0.168E-01    0.110E-01
DAV:   5    -0.626977260074E+02   -0.15954E-04   -0.11281E-04 15944   0.744E-02
  46 F= -.62697726E+02 E0= -.62697784E+02  d E =-.134085E-01
       N       E                     dE             d eps       ncg     rms          rms(c)
DAV:   1    -0.626910848998E+02    0.66252E-02   -0.44078E+00 17024   0.144E+01    0.187E+00
DAV:   2    -0.627071569023E+02   -0.16072E-01   -0.40572E-01 20808   0.405E+00    0.575E-01
DAV:   3    -0.627042999445E+02    0.28570E-02   -0.13097E-02 23952   0.712E-01    0.341E-01
DAV:   4    -0.627033455394E+02    0.95441E-03   -0.34409E-03 28288   0.337E-01    0.213E-01
DAV:   5    -0.627034128733E+02   -0.67334E-04   -0.54072E-04 22088   0.144E-01
  47 F= -.62703413E+02 E0= -.62703433E+02  d E =-.190953E-01
       N       E                     dE             d eps       ncg     rms          rms(c)
DAV:   1    -0.627079678580E+02   -0.46223E-02   -0.32837E-01 17104   0.379E+00    0.307E-01
DAV:   2    -0.627087659346E+02   -0.79808E-03   -0.21408E-02 21280   0.915E-01    0.146E-01
DAV:   3    -0.627085077088E+02    0.25823E-03   -0.65199E-04 24304   0.165E-01    0.805E-02
DAV:   4    -0.627084271564E+02    0.80552E-04   -0.18022E-04 15016   0.913E-02
  48 F= -.62708427E+02 E0= -.62708439E+02  d E =-.501428E-02
       N       E                     dE             d eps       ncg     rms          rms(c)
DAV:   1    -0.627109771147E+02   -0.24694E-02   -0.29657E+00 17024   0.114E+01    0.923E-01
DAV:   2    -0.627191317392E+02   -0.81546E-02   -0.19399E-01 21264   0.275E+00    0.423E-01
DAV:   3    -0.627170296058E+02    0.21021E-02   -0.56991E-03 24352   0.508E-01    0.227E-01
DAV:   4    -0.627163239651E+02    0.70564E-03   -0.17033E-03 23488   0.264E-01    0.105E-01
DAV:   5    -0.627163355045E+02   -0.11539E-04   -0.27933E-04 21336   0.116E-01
  49 F= -.62716336E+02 E0= -.62716336E+02  d E =-.129226E-01
       N       E                     dE             d eps       ncg     rms          rms(c)
DAV:   1    -0.627251952346E+02   -0.88713E-02   -0.22682E-01 17224   0.327E+00    0.584E-01
DAV:   2    -0.627250165228E+02    0.17871E-03   -0.19102E-02 21584   0.101E+00    0.198E-01
DAV:   3    -0.627247673576E+02    0.24917E-03   -0.10060E-03 24416   0.206E-01    0.106E-01
DAV:   4    -0.627246787818E+02    0.88576E-04   -0.22030E-04 17240   0.103E-01
  50 F= -.62724679E+02 E0= -.62724692E+02  d E =-.834328E-02
       N       E                     dE             d eps       ncg     rms          rms(c)
DAV:   1    -0.627420490499E+02   -0.17282E-01   -0.20401E+00 17024   0.981E+00    0.165E+00
DAV:   2    -0.627402585980E+02    0.17905E-02   -0.16871E-01 21536   0.300E+00    0.561E-01
DAV:   3    -0.627381672960E+02    0.20913E-02   -0.88630E-03 24632   0.614E-01    0.312E-01
DAV:   4    -0.627374875588E+02    0.67974E-03   -0.23572E-03 29096   0.301E-01    0.218E-01
DAV:   5    -0.627375099750E+02   -0.22416E-04   -0.37771E-04 20184   0.136E-01
  51 F= -.62737510E+02 E0= -.62737524E+02  d E =-.211745E-01
       N       E                     dE             d eps       ncg     rms          rms(c)
DAV:   1    -0.627370488638E+02    0.43870E-03   -0.75220E-01 18080   0.706E+00    0.445E-01
DAV:   2    -0.627460431291E+02   -0.89943E-02   -0.10990E-01 18536   0.190E+00    0.258E-01
DAV:   3    -0.627459020870E+02    0.14104E-03   -0.16310E-03 25392   0.270E-01    0.166E-01
DAV:   4    -0.627457683126E+02    0.13377E-03   -0.45124E-04 21800   0.158E-01    0.313E-02
DAV:   5    -0.627457736593E+02   -0.53466E-05   -0.85527E-05 14632   0.651E-02
  52 F= -.62745774E+02 E0= -.62745788E+02  d E =-.826368E-02
       N       E                     dE             d eps       ncg     rms          rms(c)
DAV:   1    -0.627411965658E+02    0.45717E-02   -0.58937E-01 18112   0.625E+00    0.389E-01
DAV:   2    -0.627483466577E+02   -0.71501E-02   -0.86417E-02 18656   0.169E+00    0.226E-01
DAV:   3    -0.627482629739E+02    0.83684E-04   -0.12553E-03 24336   0.239E-01    0.150E-01
DAV:   4    -0.627481680748E+02    0.94899E-04   -0.30767E-04 17896   0.136E-01
  53 F= -.62748168E+02 E0= -.62748182E+02  d E =-.106581E-01
       N       E                     dE             d eps       ncg     rms          rms(c)
DAV:   1    -0.627537526084E+02   -0.54896E-02   -0.46585E-01 17024   0.473E+00    0.527E-01
DAV:   2    -0.627550644631E+02   -0.13119E-02   -0.39881E-02 21080   0.133E+00    0.201E-01
DAV:   3    -0.627545746119E+02    0.48985E-03   -0.14632E-03 26352   0.233E-01    0.108E-01
DAV:   4    -0.627544303516E+02    0.14426E-03   -0.36268E-04 21120   0.117E-01    0.550E-02
DAV:   5    -0.627544360864E+02   -0.57348E-05   -0.51955E-05 14704   0.553E-02
  54 F= -.62754436E+02 E0= -.62754450E+02  d E =-.626801E-02
       N       E                     dE             d eps       ncg     rms          rms(c)
DAV:   1    -0.627566345825E+02   -0.22042E-02   -0.15269E+00 17040   0.856E+00    0.967E-01
DAV:   2    -0.627608903836E+02   -0.42558E-02   -0.13062E-01 21000   0.242E+00    0.365E-01
DAV:   3    -0.627592005410E+02    0.16898E-02   -0.47260E-03 25976   0.422E-01    0.197E-01
DAV:   4    -0.627587229094E+02    0.47763E-03   -0.13253E-03 25608   0.219E-01    0.106E-01
DAV:   5    -0.627587437035E+02   -0.20794E-04   -0.18462E-04 17872   0.921E-02
  55 F= -.62758744E+02 E0= -.62758758E+02  d E =-.105756E-01
       N       E                     dE             d eps       ncg     rms          rms(c)
DAV:   1    -0.627590396933E+02   -0.31678E-03   -0.31599E-01 17192   0.439E+00    0.395E-01
DAV:   2    -0.627619612847E+02   -0.29216E-02   -0.40544E-02 20408   0.123E+00    0.169E-01
DAV:   3    -0.627618525379E+02    0.10875E-03   -0.86996E-04 25368   0.195E-01    0.939E-02
DAV:   4    -0.627617940972E+02    0.58441E-04   -0.15660E-04 14912   0.949E-02
  56 F= -.62761794E+02 E0= -.62761808E+02  d E =-.305039E-02
       N       E                     dE             d eps       ncg     rms          rms(c)
DAV:   1    -0.627617392867E+02    0.11325E-03   -0.14973E-02 17984   0.973E-01    0.866E-02
DAV:   2    -0.627618773822E+02   -0.13810E-03   -0.19219E-03 21216   0.262E-01    0.364E-02
DAV:   3    -0.627618738657E+02    0.35165E-05   -0.35176E-05 14344   0.440E-02
  57 F= -.62761874E+02 E0= -.62761888E+02  d E =-.313016E-02
       N       E                     dE             d eps       ncg     rms          rms(c)
DAV:   1    -0.627639546918E+02   -0.20773E-02   -0.23861E-01 17056   0.339E+00    0.286E-01
DAV:   2    -0.627650683037E+02   -0.11136E-02   -0.19835E-02 21248   0.920E-01    0.139E-01
DAV:   3    -0.627650275141E+02    0.40790E-04   -0.64112E-04 26488   0.151E-01
  58 F= -.62765028E+02 E0= -.62765042E+02  d E =-.315365E-02
       N       E                     dE             d eps       ncg     rms          rms(c)
DAV:   1    -0.627588003251E+02    0.62680E-02   -0.21410E+00 17024   0.101E+01    0.826E-01
DAV:   2    -0.627684224035E+02   -0.96221E-02   -0.17677E-01 21272   0.275E+00    0.425E-01
DAV:   3    -0.627680889052E+02    0.33350E-03   -0.58823E-03 29096   0.453E-01    0.270E-01
DAV:   4    -0.627677948178E+02    0.29409E-03   -0.11454E-03 26576   0.215E-01    0.102E-01
DAV:   5    -0.627677975991E+02   -0.27813E-05   -0.18019E-04 17080   0.104E-01
  59 F= -.62767798E+02 E0= -.62767812E+02  d E =-.592373E-02
       N       E                     dE             d eps       ncg     rms          rms(c)
DAV:   1    -0.627682168854E+02   -0.42207E-03   -0.16819E-01 17152   0.300E+00    0.189E-01
DAV:   2    -0.627695369961E+02   -0.13201E-02   -0.17584E-02 20376   0.807E-01    0.993E-02
DAV:   3    -0.627695278789E+02    0.91171E-05   -0.38675E-04 23088   0.129E-01
  60 F= -.62769528E+02 E0= -.62769542E+02  d E =-.173028E-02
