  10  10   0   0
  0.8260084E+01  0.3701766E-09  0.4030566E-09  0.6505420E-09  0.5000000E-15
  1.000000000000000E-004
  CAR 
 unknown system                          
      9.53545059    -34.11169250  301      2.00251329      1.00000000
    -34.112  0.0000E+00  0.0000E+00
    -33.966  0.0000E+00  0.0000E+00
    -33.821  0.0000E+00  0.0000E+00
    -33.675  0.0000E+00  0.0000E+00
    -33.530  0.0000E+00  0.0000E+00
    -33.384  0.0000E+00  0.0000E+00
    -33.239  0.0000E+00  0.0000E+00
    -33.093  0.0000E+00  0.0000E+00
    -32.948  0.5131E-29  0.7464E-30
    -32.802  0.9807E-20  0.1427E-20
    -32.657  0.2487E-12  0.3619E-13
    -32.511  0.7754E-07  0.1128E-07
    -32.366  0.2160E-03  0.3143E-04
    -32.220 -0.6271E-02 -0.8810E-03
    -32.075  0.1512E+00  0.2111E-01
    -31.929  0.8568E-01  0.3358E-01
    -31.784 -0.1753E-02  0.3332E-01
    -31.638  0.6888E-04  0.3333E-01
    -31.493  0.7472E-08  0.3333E-01
    -31.347  0.7438E-14  0.3333E-01
    -31.202  0.0000E+00  0.3333E-01
    -31.056  0.0000E+00  0.3333E-01
    -30.911  0.0000E+00  0.3333E-01
    -30.765  0.0000E+00  0.3333E-01
    -30.620  0.0000E+00  0.3333E-01
    -30.474  0.0000E+00  0.3333E-01
    -30.329  0.0000E+00  0.3333E-01
    -30.183  0.1951E-29  0.3333E-01
    -30.038  0.5280E-20  0.3333E-01
    -29.892  0.1844E-12  0.3333E-01
    -29.747  0.7455E-07  0.3333E-01
    -29.601  0.2395E-03  0.3337E-01
    -29.456 -0.7086E-02  0.3234E-01
    -29.311  0.1581E+00  0.5534E-01
    -29.165  0.1839E+00  0.8209E-01
    -29.020  0.2111E+00  0.1128E+00
    -28.874  0.1468E+00  0.1342E+00
    -28.729 -0.5924E-02  0.1333E+00
    -28.583  0.1784E-03  0.1333E+00
    -28.438  0.3313E-07  0.1333E+00
    -28.292  0.4832E-13  0.1333E+00
    -28.147  0.0000E+00  0.1333E+00
    -28.001  0.0000E+00  0.1333E+00
    -27.856  0.0000E+00  0.1333E+00
    -27.710  0.0000E+00  0.1333E+00
    -27.565  0.0000E+00  0.1333E+00
    -27.419  0.0000E+00  0.1333E+00
    -27.274  0.0000E+00  0.1333E+00
    -27.128  0.0000E+00  0.1333E+00
    -26.983  0.0000E+00  0.1333E+00
    -26.837  0.0000E+00  0.1333E+00
    -26.692  0.0000E+00  0.1333E+00
    -26.546  0.0000E+00  0.1333E+00
    -26.401  0.0000E+00  0.1333E+00
    -26.255  0.0000E+00  0.1333E+00
    -26.110  0.0000E+00  0.1333E+00
    -25.964  0.0000E+00  0.1333E+00
    -25.819  0.0000E+00  0.1333E+00
    -25.673  0.0000E+00  0.1333E+00
    -25.528  0.0000E+00  0.1333E+00
    -25.382  0.0000E+00  0.1333E+00
    -25.237  0.0000E+00  0.1333E+00
    -25.091  0.0000E+00  0.1333E+00
    -24.946  0.0000E+00  0.1333E+00
    -24.800  0.0000E+00  0.1333E+00
    -24.655  0.0000E+00  0.1333E+00
    -24.509  0.0000E+00  0.1333E+00
    -24.364  0.0000E+00  0.1333E+00
    -24.218  0.0000E+00  0.1333E+00
    -24.073  0.0000E+00  0.1333E+00
    -23.927  0.0000E+00  0.1333E+00
    -23.782  0.0000E+00  0.1333E+00
    -23.636  0.0000E+00  0.1333E+00
    -23.491  0.0000E+00  0.1333E+00
    -23.345  0.0000E+00  0.1333E+00
    -23.200  0.0000E+00  0.1333E+00
    -23.054  0.0000E+00  0.1333E+00
    -22.909  0.0000E+00  0.1333E+00
    -22.763  0.0000E+00  0.1333E+00
    -22.618  0.0000E+00  0.1333E+00
    -22.472  0.0000E+00  0.1333E+00
    -22.327  0.0000E+00  0.1333E+00
    -22.181  0.0000E+00  0.1333E+00
    -22.036  0.0000E+00  0.1333E+00
    -21.890  0.0000E+00  0.1333E+00
    -21.745  0.0000E+00  0.1333E+00
    -21.600  0.0000E+00  0.1333E+00
    -21.454  0.0000E+00  0.1333E+00
    -21.309  0.0000E+00  0.1333E+00
    -21.163  0.0000E+00  0.1333E+00
    -21.018  0.0000E+00  0.1333E+00
    -20.872  0.0000E+00  0.1333E+00
    -20.727  0.0000E+00  0.1333E+00
    -20.581  0.0000E+00  0.1333E+00
    -20.436  0.0000E+00  0.1333E+00
    -20.290  0.0000E+00  0.1333E+00
    -20.145  0.0000E+00  0.1333E+00
    -19.999  0.0000E+00  0.1333E+00
    -19.854  0.0000E+00  0.1333E+00
    -19.708  0.0000E+00  0.1333E+00
    -19.563  0.0000E+00  0.1333E+00
    -19.417  0.0000E+00  0.1333E+00
    -19.272  0.0000E+00  0.1333E+00
    -19.126  0.0000E+00  0.1333E+00
    -18.981  0.0000E+00  0.1333E+00
    -18.835  0.0000E+00  0.1333E+00
    -18.690  0.0000E+00  0.1333E+00
    -18.544  0.0000E+00  0.1333E+00
    -18.399  0.0000E+00  0.1333E+00
    -18.253  0.0000E+00  0.1333E+00
    -18.108  0.0000E+00  0.1333E+00
    -17.962  0.0000E+00  0.1333E+00
    -17.817  0.0000E+00  0.1333E+00
    -17.671  0.0000E+00  0.1333E+00
    -17.526  0.0000E+00  0.1333E+00
    -17.380  0.0000E+00  0.1333E+00
    -17.235  0.0000E+00  0.1333E+00
    -17.089  0.0000E+00  0.1333E+00
    -16.944  0.0000E+00  0.1333E+00
    -16.798  0.0000E+00  0.1333E+00
    -16.653  0.0000E+00  0.1333E+00
    -16.507  0.0000E+00  0.1333E+00
    -16.362  0.0000E+00  0.1333E+00
    -16.216  0.0000E+00  0.1333E+00
    -16.071  0.0000E+00  0.1333E+00
    -15.925  0.0000E+00  0.1333E+00
    -15.780  0.0000E+00  0.1333E+00
    -15.634  0.0000E+00  0.1333E+00
    -15.489  0.6625E-34  0.1333E+00
    -15.343  0.6661E-24  0.1333E+00
    -15.198  0.8674E-16  0.1333E+00
    -15.052  0.1387E-09  0.1333E+00
    -14.907  0.2438E-05  0.1333E+00
    -14.761  0.2210E-03  0.1334E+00
    -14.616  0.4877E-03  0.1334E+00
    -14.470  0.9257E-01  0.1469E+00
    -14.325  0.1428E+00  0.1677E+00
    -14.179  0.2364E+00  0.2021E+00
    -14.034  0.1349E+00  0.2217E+00
    -13.889  0.8274E-01  0.2337E+00
    -13.743 -0.2937E-02  0.2333E+00
    -13.598  0.1745E-03  0.2333E+00
    -13.452  0.2064E-06  0.2333E+00
    -13.307  0.2061E-11  0.2333E+00
    -13.161  0.1631E-18  0.2333E+00
    -13.016  0.0000E+00  0.2333E+00
    -12.870  0.0000E+00  0.2333E+00
    -12.725  0.0000E+00  0.2333E+00
    -12.579  0.0000E+00  0.2333E+00
    -12.434  0.0000E+00  0.2333E+00
    -12.288  0.0000E+00  0.2333E+00
    -12.143  0.0000E+00  0.2333E+00
    -11.997  0.0000E+00  0.2333E+00
    -11.852  0.0000E+00  0.2333E+00
    -11.706  0.0000E+00  0.2333E+00
    -11.561  0.0000E+00  0.2333E+00
    -11.415  0.0000E+00  0.2333E+00
    -11.270  0.0000E+00  0.2333E+00
    -11.124  0.0000E+00  0.2333E+00
    -10.979  0.0000E+00  0.2333E+00
    -10.833  0.0000E+00  0.2333E+00
    -10.688  0.0000E+00  0.2333E+00
    -10.542  0.0000E+00  0.2333E+00
    -10.397  0.0000E+00  0.2333E+00
    -10.251  0.0000E+00  0.2333E+00
    -10.106  0.0000E+00  0.2333E+00
     -9.960  0.0000E+00  0.2333E+00
     -9.815  0.0000E+00  0.2333E+00
     -9.669  0.0000E+00  0.2333E+00
     -9.524  0.0000E+00  0.2333E+00
     -9.378  0.0000E+00  0.2333E+00
     -9.233  0.0000E+00  0.2333E+00
     -9.087  0.0000E+00  0.2333E+00
     -8.942  0.0000E+00  0.2333E+00
     -8.796  0.0000E+00  0.2333E+00
     -8.651  0.3485E-38  0.2333E+00
     -8.505  0.1085E-27  0.2333E+00
     -8.360  0.4336E-19  0.2333E+00
     -8.214  0.2076E-12  0.2333E+00
     -8.069  0.1016E-07  0.2333E+00
     -7.923  0.3555E-05  0.2333E+00
     -7.778 -0.4045E-04  0.2333E+00
     -7.632  0.2009E-02  0.2336E+00
     -7.487  0.5430E-02  0.2344E+00
     -7.341  0.1214E-01  0.2362E+00
     -7.196  0.1192E-01  0.2379E+00
     -7.050  0.1510E-01  0.2401E+00
     -6.905  0.1041E-01  0.2416E+00
     -6.759  0.2216E-01  0.2448E+00
     -6.614  0.1112E-01  0.2465E+00
     -6.469  0.3084E-01  0.2510E+00
     -6.323  0.2268E-01  0.2543E+00
     -6.178  0.4876E-01  0.2613E+00
     -6.032  0.3615E-01  0.2666E+00
     -5.887  0.3330E-03  0.2667E+00
     -5.741  0.8796E-04  0.2667E+00
     -5.596  0.8922E-06  0.2667E+00
     -5.450  0.3626E-10  0.2667E+00
     -5.305  0.1722E-16  0.2667E+00
     -5.159  0.3145E-11  0.2667E+00
     -5.014  0.5439E-07  0.2667E+00
     -4.868  0.3885E-05  0.2667E+00
     -4.723  0.1922E-04  0.2667E+00
     -4.577  0.1622E-02  0.2669E+00
     -4.432  0.5834E-02  0.2678E+00
     -4.286  0.6889E-02  0.2688E+00
     -4.141  0.1499E-01  0.2709E+00
     -3.995  0.4066E-01  0.2769E+00
     -3.850  0.5101E-01  0.2843E+00
     -3.704  0.2759E-01  0.2883E+00
     -3.559  0.2375E-01  0.2917E+00
     -3.413  0.1392E-01  0.2938E+00
     -3.268  0.1635E-01  0.2961E+00
     -3.122  0.1214E-01  0.2979E+00
     -2.977  0.1275E-01  0.2998E+00
     -2.831  0.1965E-02  0.3001E+00
     -2.686  0.9485E-02  0.3014E+00
     -2.540  0.2007E-01  0.3044E+00
     -2.395  0.5894E-01  0.3129E+00
     -2.249  0.9071E-01  0.3261E+00
     -2.104  0.6470E-01  0.3355E+00
     -1.958  0.6029E-01  0.3443E+00
     -1.813  0.6513E-01  0.3538E+00
     -1.667  0.6360E-01  0.3630E+00
     -1.522  0.2948E-01  0.3673E+00
     -1.376  0.4547E-01  0.3739E+00
     -1.231  0.7030E-01  0.3842E+00
     -1.085  0.4386E-01  0.3906E+00
     -0.940  0.3401E-01  0.3955E+00
     -0.794  0.3429E-01  0.4005E+00
     -0.649  0.3196E-01  0.4051E+00
     -0.503  0.2884E-01  0.4093E+00
     -0.358  0.3018E-01  0.4137E+00
     -0.212  0.3830E-01  0.4193E+00
     -0.067  0.3247E-01  0.4240E+00
      0.079  0.3038E-01  0.4284E+00
      0.224  0.6767E-01  0.4383E+00
      0.370  0.7754E-01  0.4496E+00
      0.515  0.7326E-01  0.4602E+00
      0.661  0.3489E-01  0.4653E+00
      0.806  0.1252E-01  0.4671E+00
      0.952  0.1116E-01  0.4688E+00
      1.097  0.1027E-01  0.4702E+00
      1.242  0.1049E-01  0.4718E+00
      1.388  0.9346E-02  0.4731E+00
      1.533  0.1611E-01  0.4755E+00
      1.679  0.7950E-02  0.4766E+00
      1.824  0.1832E-01  0.4793E+00
      1.970  0.2448E-01  0.4829E+00
      2.115  0.1141E-01  0.4845E+00
      2.261  0.1270E-01  0.4864E+00
      2.406  0.1864E-01  0.4891E+00
      2.552  0.1277E-01  0.4909E+00
      2.697  0.4727E-02  0.4916E+00
      2.843  0.1327E-01  0.4936E+00
      2.988  0.2446E-01  0.4971E+00
      3.134  0.4198E-02  0.4977E+00
      3.279  0.1525E-01  0.4999E+00
      3.425  0.3594E-02  0.5005E+00
      3.570  0.2748E-01  0.5045E+00
      3.716  0.3952E-01  0.5102E+00
      3.861  0.4705E-01  0.5171E+00
      4.007  0.3844E-01  0.5226E+00
      4.152  0.5794E-01  0.5311E+00
      4.298  0.4564E-01  0.5377E+00
      4.443  0.4804E-01  0.5447E+00
      4.589  0.3932E-01  0.5504E+00
      4.734  0.4194E-01  0.5565E+00
      4.880  0.3703E-01  0.5619E+00
      5.025  0.3836E-01  0.5675E+00
      5.171  0.4033E-01  0.5734E+00
      5.316  0.4612E-01  0.5801E+00
      5.462  0.5318E-01  0.5878E+00
      5.607  0.4548E-01  0.5944E+00
      5.753  0.2801E-01  0.5985E+00
      5.898  0.2399E-01  0.6020E+00
      6.044  0.4328E-01  0.6083E+00
      6.189  0.5161E-01  0.6158E+00
      6.335  0.4812E-01  0.6228E+00
      6.480  0.3491E-01  0.6279E+00
      6.626  0.4429E-01  0.6343E+00
      6.771  0.5348E-01  0.6421E+00
      6.917  0.6525E-01  0.6516E+00
      7.062  0.4490E-01  0.6581E+00
      7.208  0.3310E-01  0.6630E+00
      7.353  0.1601E-01  0.6653E+00
      7.499  0.7161E-02  0.6663E+00
      7.644  0.2447E-02  0.6667E+00
      7.790 -0.8403E-04  0.6667E+00
      7.935  0.4509E-05  0.6667E+00
      8.081  0.2597E-08  0.6667E+00
      8.226  0.1147E-13  0.6667E+00
      8.372  0.0000E+00  0.6667E+00
      8.517  0.0000E+00  0.6667E+00
      8.663  0.0000E+00  0.6667E+00
      8.808  0.0000E+00  0.6667E+00
      8.953  0.0000E+00  0.6667E+00
      9.099  0.0000E+00  0.6667E+00
      9.244  0.0000E+00  0.6667E+00
      9.390  0.0000E+00  0.6667E+00
      9.535  0.0000E+00  0.6667E+00
