       N       E                     dE             d eps       ncg     rms          rms(c)
DAV:   1     0.114420341819E+03    0.11442E+03   -0.90880E+03 24948   0.740E+02
DAV:   2    -0.278322368273E+02   -0.14225E+03   -0.13887E+03 31336   0.297E+02
DAV:   3    -0.356961888887E+02   -0.78640E+01   -0.77991E+01 45196   0.541E+01
DAV:   4    -0.358675220008E+02   -0.17133E+00   -0.17083E+00 34944   0.613E+00
DAV:   5    -0.358727044564E+02   -0.51825E-02   -0.51803E-02 40008   0.103E+00    0.325E+01
DAV:   6    -0.334442227759E+02    0.24285E+01   -0.74320E+00 36772   0.198E+01    0.124E+01
DAV:   7    -0.331358943692E+02    0.30833E+00   -0.94651E-01 38204   0.508E+00    0.726E+00
DAV:   8    -0.331156748083E+02    0.20220E-01   -0.26537E-01 36504   0.297E+00    0.200E+00
DAV:   9    -0.331118770298E+02    0.37978E-02   -0.49491E-02 32976   0.149E+00    0.324E-01
DAV:  10    -0.331116687070E+02    0.20832E-03   -0.27930E-03 34168   0.461E-01    0.978E-02
DAV:  11    -0.331116742135E+02   -0.55065E-05   -0.18812E-04 24740   0.118E-01
   1 F= -.33111674E+02 E0= -.33111644E+02  d E =-.331117E+02
       N       E                     dE             d eps       ncg     rms          rms(c)
DAV:   1    -0.331893656140E+02   -0.77697E-01   -0.19336E+00 24720   0.126E+01    0.257E+00
DAV:   2    -0.331449900169E+02    0.44376E-01   -0.30426E-01 34544   0.480E+00    0.723E-01
DAV:   3    -0.331371597032E+02    0.78303E-02   -0.17714E-02 36944   0.961E-01    0.382E-01
DAV:   4    -0.331347879289E+02    0.23718E-02   -0.77282E-03 44836   0.545E-01    0.422E-01
DAV:   5    -0.331352225493E+02   -0.43462E-03   -0.59932E-04 34532   0.138E-01    0.151E-01
DAV:   6    -0.331351237551E+02    0.98794E-04   -0.13492E-03 47516   0.212E-01    0.616E-02
DAV:   7    -0.331351245007E+02   -0.74558E-06   -0.38278E-05 19376   0.392E-02
   2 F= -.33135125E+02 E0= -.33135057E+02  d E =-.234503E-01
       N       E                     dE             d eps       ncg     rms          rms(c)
DAV:   1    -0.332098522875E+02   -0.74729E-01   -0.23820E+00 24704   0.141E+01    0.295E+00
DAV:   2    -0.331551704065E+02    0.54682E-01   -0.37044E-01 34428   0.535E+00    0.791E-01
DAV:   3    -0.331454202919E+02    0.97501E-02   -0.21770E-02 36748   0.107E+00    0.423E-01
DAV:   4    -0.331425823455E+02    0.28379E-02   -0.96276E-03 45068   0.610E-01    0.470E-01
DAV:   5    -0.331431218734E+02   -0.53953E-03   -0.72261E-04 34608   0.154E-01    0.166E-01
DAV:   6    -0.331430045868E+02    0.11729E-03   -0.16153E-03 47592   0.235E-01    0.703E-02
DAV:   7    -0.331430049808E+02   -0.39404E-06   -0.44710E-05 20112   0.437E-02
   3 F= -.33143005E+02 E0= -.33142918E+02  d E =-.313308E-01
       N       E                     dE             d eps       ncg     rms          rms(c)
DAV:   1    -0.331491256657E+02   -0.61211E-02   -0.28023E+00 29616   0.166E+01    0.103E+00
DAV:   2    -0.331597165529E+02   -0.10591E-01   -0.32007E-01 27388   0.384E+00    0.578E-01
DAV:   3    -0.331567701605E+02    0.29464E-02   -0.91607E-03 38784   0.685E-01    0.338E-01
DAV:   4    -0.331555670086E+02    0.12032E-02   -0.38803E-03 44616   0.442E-01    0.144E-01
DAV:   5    -0.331555901118E+02   -0.23103E-04   -0.32133E-04 32296   0.138E-01
   4 F= -.33155590E+02 E0= -.33155491E+02  d E =-.125851E-01
       N       E                     dE             d eps       ncg     rms          rms(c)
DAV:   1    -0.331557850957E+02   -0.21809E-03   -0.32800E-01 29656   0.571E+00    0.357E-01
DAV:   2    -0.331569700613E+02   -0.11850E-02   -0.38033E-02 27916   0.133E+00    0.198E-01
DAV:   3    -0.331566094516E+02    0.36061E-03   -0.10927E-03 38356   0.237E-01    0.113E-01
DAV:   4    -0.331564697060E+02    0.13975E-03   -0.44080E-04 34132   0.152E-01    0.488E-02
DAV:   5    -0.331564743950E+02   -0.46890E-05   -0.43593E-05 17692   0.551E-02
   5 F= -.33156474E+02 E0= -.33156373E+02  d E =-.134694E-01
       N       E                     dE             d eps       ncg     rms          rms(c)
DAV:   1    -0.331660429589E+02   -0.95733E-02   -0.96208E-01 27088   0.912E+00    0.953E-01
DAV:   2    -0.331650515430E+02    0.99142E-03   -0.96228E-02 30372   0.228E+00    0.350E-01
DAV:   3    -0.331628450646E+02    0.22065E-02   -0.51226E-03 39484   0.492E-01    0.176E-01
DAV:   4    -0.331624667827E+02    0.37828E-03   -0.12910E-03 42648   0.237E-01    0.134E-01
DAV:   5    -0.331624836141E+02   -0.16831E-04   -0.10299E-04 23968   0.734E-02
   6 F= -.33162484E+02 E0= -.33162402E+02  d E =-.600922E-02
       N       E                     dE             d eps       ncg     rms          rms(c)
DAV:   1    -0.331625369805E+02   -0.70198E-04   -0.11608E-02 29952   0.993E-01    0.108E-01
DAV:   2    -0.331625089710E+02    0.28009E-04   -0.10754E-03 31376   0.240E-01    0.403E-02
DAV:   3    -0.331624791880E+02    0.29783E-04   -0.57995E-05 18272   0.553E-02
   7 F= -.33162479E+02 E0= -.33162400E+02  d E =-.600479E-02
       N       E                     dE             d eps       ncg     rms          rms(c)
DAV:   1    -0.331649351989E+02   -0.24262E-02   -0.31406E-01 29620   0.516E+00    0.303E-01
DAV:   2    -0.331652814566E+02   -0.34626E-03   -0.26738E-02 27868   0.113E+00    0.164E-01
DAV:   3    -0.331646340654E+02    0.64739E-03   -0.12312E-03 38444   0.251E-01    0.647E-02
DAV:   4    -0.331645669622E+02    0.67103E-04   -0.26673E-04 29288   0.111E-01
   8 F= -.33164567E+02 E0= -.33164506E+02  d E =-.208777E-02
       N       E                     dE             d eps       ncg     rms          rms(c)
DAV:   1    -0.331646935420E+02   -0.59477E-04   -0.20516E-02 29868   0.132E+00    0.763E-02
DAV:   2    -0.331647175691E+02   -0.24027E-04   -0.17436E-03 29136   0.289E-01    0.422E-02
DAV:   3    -0.331646740969E+02    0.43472E-04   -0.71535E-05 21852   0.646E-02
   9 F= -.33164674E+02 E0= -.33164619E+02  d E =-.219491E-02
       N       E                     dE             d eps       ncg     rms          rms(c)
DAV:   1    -0.331658134493E+02   -0.10959E-02   -0.16061E-01 29616   0.395E+00    0.355E-01
DAV:   2    -0.331660414851E+02   -0.22804E-03   -0.16775E-02 29124   0.976E-01    0.115E-01
DAV:   3    -0.331658757019E+02    0.16578E-03   -0.83448E-04 43384   0.187E-01    0.603E-02
DAV:   4    -0.331658347734E+02    0.40929E-04   -0.95533E-05 19712   0.777E-02
  10 F= -.33165835E+02 E0= -.33165777E+02  d E =-.116068E-02
       N       E                     dE             d eps       ncg     rms          rms(c)
DAV:   1    -0.331659821767E+02   -0.10647E-03   -0.17811E-01 29620   0.418E+00    0.373E-01
DAV:   2    -0.331662148854E+02   -0.23271E-03   -0.18463E-02 29076   0.103E+00    0.119E-01
DAV:   3    -0.331660320825E+02    0.18280E-03   -0.95121E-04 44172   0.198E-01    0.706E-02
DAV:   4    -0.331659939522E+02    0.38130E-04   -0.10720E-04 20656   0.816E-02
  11 F= -.33165994E+02 E0= -.33165949E+02  d E =-.131986E-02
       N       E                     dE             d eps       ncg     rms          rms(c)
DAV:   1    -0.331662124200E+02   -0.18034E-03   -0.12230E-01 29616   0.348E+00    0.189E-01
DAV:   2    -0.331667916665E+02   -0.57925E-03   -0.12456E-02 27796   0.803E-01    0.970E-02
DAV:   3    -0.331667054371E+02    0.86229E-04   -0.36789E-04 36724   0.136E-01
  12 F= -.33166705E+02 E0= -.33166687E+02  d E =-.711485E-03
       N       E                     dE             d eps       ncg     rms          rms(c)
DAV:   1    -0.331623595395E+02    0.44321E-02   -0.11018E+00 29584   0.104E+01    0.582E-01
DAV:   2    -0.331676231186E+02   -0.52636E-02   -0.11286E-01 27820   0.242E+00    0.288E-01
DAV:   3    -0.331668729524E+02    0.75017E-03   -0.33493E-03 42008   0.404E-01    0.171E-01
DAV:   4    -0.331665751797E+02    0.29777E-03   -0.88543E-04 43356   0.219E-01    0.825E-02
DAV:   5    -0.331665859812E+02   -0.10802E-04   -0.73902E-05 20320   0.735E-02
  13 F= -.33166586E+02 E0= -.33166618E+02  d E =-.592029E-03
