unknown system                          
           1
     5.039820    0.339296   -0.278413
     0.659068    5.069400   -0.242786
     0.148958    0.304469    5.802253
   H    Nb   H    Nb   H    Sr
   6   1   7   1   4   1
Direct configuration=     1
   0.88240982  0.77117227  0.35597387
   0.67392453  0.65413966  0.52790071
   0.05214798  0.34407980  0.78201364
   0.37641566  0.49980657  0.71449818
   0.60297547  0.61763349  0.08102759
   0.55284258  0.56502160  0.19160435
   0.02267051  0.68739018  0.63649424
   0.22458509  0.87780059  0.83295182
   0.19117276  0.49274099  0.20145401
   0.16272767  0.51958938  0.07295177
   0.83524737  0.72560163  0.89832384
   0.71410303  0.51085344  0.60818687
   0.25772323  0.87548500  0.46068821
   0.77593486  0.01737989  0.65370830
   0.38367783  0.13620673  0.66483387
   0.54838740  0.24524175  0.41068103
   0.43902140  0.11644153  0.98071097
   0.12224648  0.35593521  0.46905565
   0.63253358  0.31465121  0.76991428
   0.90235873  0.14718108  0.12437080
unknown system                          
           1
     5.041505    0.338729   -0.279958
     0.658918    5.069579   -0.240285
     0.146921    0.307545    5.801033
   H    Nb   H    Nb   H    Sr
   6   1   7   1   4   1
Direct configuration=     2
   0.88254866  0.77084061  0.35600866
   0.67363241  0.65412037  0.52884520
   0.05178120  0.34410753  0.78244675
   0.37697940  0.49939305  0.71443563
   0.60261068  0.61749299  0.08185609
   0.55294269  0.56548351  0.19094888
   0.02235258  0.68798145  0.63661497
   0.22469650  0.87787427  0.83262505
   0.19071421  0.49365078  0.19960116
   0.16347934  0.51932788  0.07430045
   0.83543961  0.72582141  0.89801402
   0.71425129  0.51128356  0.60749137
   0.25761435  0.87531162  0.46081991
   0.77623946  0.01746448  0.65346998
   0.38538020  0.13501120  0.66557477
   0.54777746  0.24480131  0.41069579
   0.43856186  0.11688547  0.98018261
   0.12155918  0.35637233  0.46919151
   0.63183302  0.31418900  0.76947623
   0.90271190  0.14693918  0.12474499
unknown system                          
           1
     5.040780    0.338972   -0.279294
     0.658982    5.069502   -0.241360
     0.147796    0.306223    5.801558
   H    Nb   H    Nb   H    Sr
   6   1   7   1   4   1
Direct configuration=     3
   0.88248902  0.77098313  0.35599363
   0.67375770  0.65412894  0.52843926
   0.05193867  0.34409575  0.78226063
   0.37673724  0.49957071  0.71446238
   0.60276722  0.61755362  0.08149999
   0.55289981  0.56528482  0.19123070
   0.02248913  0.68772741  0.63656322
   0.22464871  0.87784251  0.83276550
   0.19091156  0.49325932  0.20039778
   0.16315616  0.51944059  0.07372062
   0.83535708  0.72572687  0.89814721
   0.71418774  0.51109852  0.60779038
   0.25766110  0.87538617  0.46076328
   0.77610866  0.01742804  0.65357240
   0.38464875  0.13552508  0.66525590
   0.54803949  0.24499062  0.41068943
   0.43875938  0.11669457  0.98040984
   0.12185440  0.35618456  0.46913327
   0.63213407  0.31438754  0.76966450
   0.90256011  0.14704322  0.12458407
unknown system                          
           1
     5.043305    0.339838   -0.281364
     0.660369    5.069800   -0.239423
     0.145602    0.308996    5.806023
   H    Nb   H    Nb   H    Sr
   6   1   7   1   4   1
Direct configuration=     4
   0.88263737  0.77053650  0.35592506
   0.67317359  0.65447185  0.52952268
   0.05160475  0.34413510  0.78276201
   0.37739567  0.49893423  0.71435668
   0.60273489  0.61786195  0.08157486
   0.55256550  0.56540489  0.19140543
   0.02257521  0.68798888  0.63676444
   0.22482913  0.87791371  0.83243527
   0.19088486  0.49397048  0.20046869
   0.16364140  0.51960971  0.07295702
   0.83552127  0.72608184  0.89784634
   0.71451371  0.51128589  0.60700375
   0.25755015  0.87516574  0.46094903
   0.77655864  0.01761399  0.65322445
   0.38563283  0.13435448  0.66560164
   0.54732816  0.24439902  0.41065528
   0.43830950  0.11729950  0.98003314
   0.12111813  0.35664157  0.46951563
   0.63153205  0.31391217  0.76924426
   0.90299920  0.14677051  0.12509833
unknown system                          
           1
     5.045383    0.340550   -0.283068
     0.661511    5.070046   -0.237828
     0.143795    0.311279    5.809699
   H    Nb   H    Nb   H    Sr
   6   1   7   1   4   1
Direct configuration=     5
   0.88275950  0.77016883  0.35586882
   0.67269335  0.65475374  0.53041367
   0.05133020  0.34416732  0.78317435
   0.37793755  0.49841022  0.71427009
   0.60270825  0.61811574  0.08163635
   0.55229047  0.56550371  0.19154905
   0.02264608  0.68820402  0.63692991
   0.22497743  0.87797244  0.83216365
   0.19086276  0.49455591  0.20052681
   0.16404030  0.51974920  0.07232895
   0.83565616  0.72637418  0.89759879
   0.71478155  0.51144043  0.60635668
   0.25745898  0.87498421  0.46110187
   0.77692871  0.01776716  0.65293829
   0.38644298  0.13339053  0.66588665
   0.54674296  0.24391211  0.41062716
   0.43793902  0.11779771  0.97972297
   0.12051237  0.35701771  0.46982983
   0.63103660  0.31352109  0.76889854
   0.90336079  0.14654572  0.12552157
unknown system                          
           1
     5.046899    0.342008   -0.284671
     0.663339    5.070051   -0.236237
     0.142099    0.313515    5.812681
   H    Nb   H    Nb   H    Sr
   6   1   7   1   4   1
Direct configuration=     6
   0.88290835  0.76983404  0.35586626
   0.67217747  0.65532891  0.53103566
   0.05123636  0.34420673  0.78343224
   0.37833700  0.49788124  0.71418214
   0.60264089  0.61827505  0.08182141
   0.55213162  0.56564122  0.19154614
   0.02283626  0.68804485  0.63699746
   0.22513040  0.87797186  0.83202435
   0.19077266  0.49513465  0.20027951
   0.16445754  0.51979016  0.07209247
   0.83570451  0.72666232  0.89745012
   0.71514477  0.51122071  0.60594308
   0.25739877  0.87481784  0.46124410
   0.77726040  0.01794979  0.65266784
   0.38621436  0.13301350  0.66572819
   0.54632257  0.24350435  0.41056667
   0.43776905  0.11820430  0.97964229
   0.12016026  0.35719485  0.47022180
   0.63085755  0.31328003  0.76872027
   0.90364522  0.14639561  0.12588200
unknown system                          
           1
     5.051446    0.346383   -0.289478
     0.668824    5.070066   -0.231465
     0.137012    0.320223    5.821626
   H    Nb   H    Nb   H    Sr
   6   1   7   1   4   1
Direct configuration=     7
   0.88335513  0.76882949  0.35585898
   0.67063037  0.65705412  0.53289981
   0.05095518  0.34432470  0.78420540
   0.37953549  0.49629401  0.71391918
   0.60243892  0.61875283  0.08237613
   0.55165505  0.56605390  0.19153716
   0.02340690  0.68756707  0.63720030
   0.22558902  0.87797016  0.83160680
   0.19050148  0.49687134  0.19953742
   0.16570860  0.51991298  0.07138370
   0.83584902  0.72752692  0.89700413
   0.71623389  0.51056174  0.60470335
   0.25721856  0.87431856  0.46167068
   0.77825469  0.01849778  0.65185697
   0.38552892  0.13188277  0.66525321
   0.54506211  0.24228145  0.41038533
   0.43725874  0.11942435  0.97939990
   0.11910451  0.35772606  0.47139667
   0.63032055  0.31255722  0.76818581
   0.90449888  0.14594453  0.12696308
unknown system                          
           1
     5.060541    0.355131   -0.299093
     0.679794    5.070096   -0.221920
     0.126837    0.333640    5.839515
   H    Nb   H    Nb   H    Sr
   6   1   7   1   4   1
Direct configuration=     8
   0.88425013  0.76681938  0.35584686
   0.66753950  0.66050274  0.53661709
   0.05039493  0.34455913  0.78574873
   0.38193332  0.49311779  0.71339862
   0.60203564  0.61970740  0.08348274
   0.55070178  0.56688022  0.19151780
   0.02454878  0.68660989  0.63760703
   0.22650449  0.87796708  0.83077365
   0.18995400  0.50034757  0.19805207
   0.16820669  0.52015838  0.06996998
   0.83613486  0.72925728  0.89611222
   0.71840875  0.50924503  0.60223048
   0.25686055  0.87331907  0.46252312
   0.78023848  0.01959433  0.65023827
   0.38416041  0.12962343  0.66430563
   0.54254542  0.23983797  0.41002342
   0.43623572  0.12186627  0.97891297
   0.11699644  0.35878735  0.47374032
   0.62924769  0.31111373  0.76711898
   0.90620843  0.14503797  0.12912401
unknown system                          
           1
     5.049912    0.356363   -0.298783
     0.679563    5.068053   -0.224759
     0.126876    0.329933    5.832849
   H    Nb   H    Nb   H    Sr
   6   1   7   1   4   1
Direct configuration=     9
   0.88475591  0.76646299  0.35622566
   0.66770740  0.66100323  0.53722965
   0.05110028  0.34420777  0.78546016
   0.38188597  0.49268598  0.71331559
   0.60221343  0.61991823  0.08335654
   0.55076470  0.56675868  0.19172858
   0.02220737  0.68721322  0.63776891
   0.22625712  0.87708604  0.83117378
   0.18988714  0.50061965  0.19819972
   0.16836141  0.52003761  0.06988300
   0.83615538  0.72938687  0.89582930
   0.71890407  0.50890671  0.60205674
   0.25680622  0.87304189  0.46236807
   0.77971927  0.01989221  0.64985267
   0.38537229  0.13156871  0.66585060
   0.54235583  0.23983734  0.40957723
   0.43649373  0.12165641  0.97844152
   0.11711732  0.35800325  0.47332989
   0.62901072  0.31076822  0.76681365
   0.90603043  0.14529699  0.12888275
unknown system                          
           1
     5.050999    0.356237   -0.298815
     0.679587    5.068262   -0.224469
     0.126872    0.330312    5.833531
   H    Nb   H    Nb   H    Sr
   6   1   7   1   4   1
Direct configuration=    10
   0.88470406  0.76649946  0.35618688
   0.66769019  0.66095197  0.53716688
   0.05102796  0.34424377  0.78548973
   0.38189083  0.49273018  0.71332412
   0.60219520  0.61989667  0.08336946
   0.55075825  0.56677110  0.19170699
   0.02244742  0.68715137  0.63775231
   0.22628248  0.87717617  0.83113285
   0.18989400  0.50059179  0.19818459
   0.16834555  0.52004998  0.06989191
   0.83615327  0.72937363  0.89585827
   0.71885329  0.50894137  0.60207455
   0.25681179  0.87307027  0.46238396
   0.77977250  0.01986173  0.64989215
   0.38524807  0.13136958  0.66569226
   0.54237526  0.23983743  0.40962293
   0.43646727  0.12167793  0.97848981
   0.11710492  0.35808353  0.47337196
   0.62903501  0.31080359  0.76684494
   0.90604867  0.14527049  0.12890745
unknown system                          
           1
     5.043939    0.358157   -0.297414
     0.680431    5.067847   -0.226153
     0.128402    0.328014    5.830167
   H    Nb   H    Nb   H    Sr
   6   1   7   1   4   1
Direct configuration=    11
   0.88488577  0.76626673  0.35621327
   0.66727824  0.66156095  0.53780559
   0.05157108  0.34396984  0.78532459
   0.38155629  0.49279004  0.71330703
   0.60226006  0.61999804  0.08354150
   0.55098947  0.56680887  0.19164085
   0.02242102  0.68711970  0.63777902
   0.22620873  0.87652685  0.83156649
   0.18976332  0.50096598  0.19830732
   0.16855039  0.51990051  0.06987596
   0.83557788  0.72966925  0.89603271
   0.71919092  0.50845929  0.60178137
   0.25673353  0.87293687  0.46250999
   0.77926503  0.02040032  0.64948017
   0.38477769  0.13155425  0.66555400
   0.54225124  0.23995032  0.40919193
   0.43705228  0.12157192  0.97874769
   0.11719299  0.35737770  0.47307739
   0.62965955  0.31100610  0.76688554
   0.90592051  0.14551847  0.12872158
unknown system                          
           1
     5.029377    0.362118   -0.294523
     0.682173    5.066991   -0.229628
     0.131557    0.323272    5.823227
   H    Nb   H    Nb   H    Sr
   6   1   7   1   4   1
Direct configuration=    12
   0.88526121  0.76578645  0.35626754
   0.66642650  0.66281822  0.53912438
   0.05269331  0.34340405  0.78498337
   0.38086520  0.49291384  0.71327192
   0.60239388  0.62020725  0.08389664
   0.55146716  0.56688648  0.19150427
   0.02236646  0.68705443  0.63783414
   0.22605629  0.87518783  0.83246118
   0.18949312  0.50173814  0.19856091
   0.16897364  0.51959194  0.06984287
   0.83438897  0.73027982  0.89639314
   0.71988881  0.50746420  0.60117586
   0.25657182  0.87266187  0.46277006
   0.77821680  0.02151153  0.64863037
   0.38380602  0.13193555  0.66526892
   0.54199532  0.24018294  0.40830248
   0.43826064  0.12135291  0.97927964
   0.11737543  0.35592128  0.47246896
   0.63094962  0.31142330  0.76696921
   0.90565579  0.14602998  0.12833815
unknown system                          
           1
     5.025510    0.362854   -0.293280
     0.682216    5.067364   -0.231161
     0.132976    0.321257    5.821314
   H    Nb   H    Nb   H    Sr
   6   1   7   1   4   1
Direct configuration=    13
   0.88534311  0.76565021  0.35613375
   0.66585222  0.66314681  0.53993179
   0.05292798  0.34323083  0.78500888
   0.38073274  0.49302131  0.71328948
   0.60268220  0.62054712  0.08363527
   0.55147970  0.56674553  0.19190671
   0.02230301  0.68700470  0.63777514
   0.22614662  0.87478396  0.83286291
   0.18930513  0.50216283  0.19862130
   0.16921064  0.51943905  0.06987714
   0.83370431  0.73065163  0.89657848
   0.72004288  0.50728362  0.60071942
   0.25649740  0.87255429  0.46287898
   0.77797044  0.02195584  0.64822033
   0.38420578  0.13144607  0.66520021
   0.54173447  0.24027689  0.40796501
   0.43873749  0.12127947  0.97947813
   0.11725479  0.35545683  0.47216898
   0.63133738  0.31154023  0.76687125
   0.90563771  0.14617476  0.12822084
unknown system                          
           1
     5.020777    0.363754   -0.291758
     0.682269    5.067820   -0.233037
     0.134713    0.318791    5.818972
   H    Nb   H    Nb   H    Sr
   6   1   7   1   4   1
Direct configuration=    14
   0.88544347  0.76548342  0.35596994
   0.66514859  0.66354938  0.54092033
   0.05321536  0.34301885  0.78504000
   0.38057052  0.49315284  0.71331103
   0.60303539  0.62096277  0.08331539
   0.55149488  0.56657327  0.19239927
   0.02222533  0.68694384  0.63770293
   0.22625708  0.87429000  0.83335451
   0.18907489  0.50268254  0.19869539
   0.16950087  0.51925194  0.06991898
   0.83286577  0.73110681  0.89680562
   0.72023175  0.50706241  0.60016063
   0.25640621  0.87242273  0.46301228
   0.77766892  0.02249932  0.64771862
   0.38469537  0.13084706  0.66511586
   0.54141516  0.24039173  0.40755201
   0.43932138  0.12118961  0.97972096
   0.11710717  0.35488845  0.47180166
   0.63181228  0.31168317  0.76675130
   0.90561563  0.14635186  0.12807729
unknown system                          
           1
     5.019219    0.363466   -0.289803
     0.681617    5.067851   -0.234009
     0.136876    0.317247    5.816327
   H    Nb   H    Nb   H    Sr
   6   1   7   1   4   1
Direct configuration=    15
   0.88547033  0.76539603  0.35567756
   0.66421941  0.66377115  0.54202737
   0.05319923  0.34294754  0.78523764
   0.38070948  0.49309681  0.71334281
   0.60308803  0.62103700  0.08371668
   0.55183293  0.56679361  0.19222025
   0.02198086  0.68686684  0.63770131
   0.22655683  0.87406651  0.83373372
   0.18878338  0.50323851  0.19879905
   0.16981785  0.51907386  0.06987238
   0.83199519  0.73163184  0.89689733
   0.72025476  0.50702956  0.59945398
   0.25632514  0.87224625  0.46306870
   0.77789535  0.02282923  0.64721566
   0.38565757  0.13011105  0.66523457
   0.54099667  0.24045389  0.40723893
   0.43974998  0.12113788  0.97980239
   0.11684934  0.35452953  0.47159130
   0.63197111  0.31168322  0.76645234
   0.90575255  0.14641172  0.12806002
unknown system                          
           1
     5.017119    0.363077   -0.287168
     0.680738    5.067893   -0.235320
     0.139792    0.315165    5.812761
   H    Nb   H    Nb   H    Sr
   6   1   7   1   4   1
Direct configuration=    16
   0.88550673  0.76527807  0.35528314
   0.66296551  0.66407056  0.54352112
   0.05317733  0.34285147  0.78550423
   0.38089687  0.49302128  0.71338561
   0.60315877  0.62113725  0.08425797
   0.55228902  0.56709063  0.19197867
   0.02165114  0.68676301  0.63769922
   0.22696083  0.87376536  0.83424506
   0.18839025  0.50398813  0.19893914
   0.17024537  0.51883376  0.06980933
   0.83082105  0.73233970  0.89702153
   0.72028626  0.50698498  0.59850077
   0.25621572  0.87200832  0.46314481
   0.77820114  0.02327383  0.64653719
   0.38695512  0.12911884  0.66539411
   0.54043246  0.24053752  0.40681681
   0.44032798  0.12106821  0.97991203
   0.11650168  0.35404549  0.47130758
   0.63218554  0.31168316  0.76604900
   0.90593724  0.14649242  0.12803667
unknown system                          
           1
     5.018502    0.362992   -0.285770
     0.680784    5.067166   -0.236060
     0.141414    0.313958    5.810684
   H    Nb   H    Nb   H    Sr
   6   1   7   1   4   1
Direct configuration=    17
   0.88556470  0.76516525  0.35498133
   0.66165632  0.66455214  0.54474871
   0.05305014  0.34287720  0.78578064
   0.38121215  0.49260860  0.71340363
   0.60344940  0.62144113  0.08428030
   0.55242142  0.56715378  0.19227185
   0.02150029  0.68655431  0.63778384
   0.22740331  0.87363346  0.83452055
   0.18799677  0.50465698  0.19902738
   0.17066484  0.51862563  0.06969152
   0.82986652  0.73299827  0.89693968
   0.72029780  0.50670590  0.59764534
   0.25614014  0.87172151  0.46313367
   0.77907125  0.02345863  0.64595389
   0.38715444  0.12879545  0.66542712
   0.54002535  0.24054242  0.40650111
   0.44075460  0.12105899  0.97996225
   0.11634638  0.35367210  0.47143929
   0.63230637  0.31163974  0.76566594
   0.90622381  0.14649051  0.12818597
unknown system                          
           1
     5.022653    0.362736   -0.281576
     0.680922    5.064988   -0.238280
     0.146278    0.310336    5.804452
   H    Nb   H    Nb   H    Sr
   6   1   7   1   4   1
Direct configuration=    18
   0.88573890  0.76482654  0.35407547
   0.65772843  0.66599777  0.54843394
   0.05266840  0.34295457  0.78661027
   0.38215775  0.49137047  0.71345732
   0.60432101  0.62235299  0.08434718
   0.55281819  0.56734350  0.19315164
   0.02104780  0.68592815  0.63803783
   0.22873009  0.87323799  0.83534692
   0.18681649  0.50666380  0.19929275
   0.17192303  0.51800112  0.06933755
   0.82700376  0.73497407  0.89669500
   0.72033335  0.50586792  0.59507802
   0.25591349  0.87086095  0.46310018
   0.78168150  0.02401279  0.64420281
   0.38775224  0.12782521  0.66552589
   0.53880472  0.24055682  0.40555398
   0.44203405  0.12103142  0.98011265
   0.11588051  0.35255182  0.47183455
   0.63266919  0.31150920  0.76451624
   0.90708311  0.14648490  0.12863381
unknown system                          
           1
     5.021547    0.364318   -0.284209
     0.682726    5.062671   -0.237099
     0.143064    0.311930    5.802271
   H    Nb   H    Nb   H    Sr
   6   1   7   1   4   1
Direct configuration=    19
   0.88613312  0.76450492  0.35462131
   0.65776995  0.66657444  0.54875961
   0.05270797  0.34289963  0.78668900
   0.38202487  0.49093563  0.71346283
   0.60410191  0.62202083  0.08503735
   0.55306542  0.56769657  0.19264317
   0.02074851  0.68605706  0.63770371
   0.22867881  0.87299108  0.83503749
   0.18657428  0.50693863  0.19883511
   0.17221489  0.51789429  0.06956808
   0.82706190  0.73516226  0.89635496
   0.72041685  0.50556019  0.59470449
   0.25588829  0.87068019  0.46305026
   0.78216927  0.02409435  0.64405423
   0.38682050  0.12844540  0.66529943
   0.53885797  0.24040777  0.40551419
   0.44199349  0.12117474  0.98008966
   0.11612624  0.35242343  0.47246624
   0.63256312  0.31140089  0.76443268
   0.90718864  0.14648970  0.12902021
unknown system                          
           1
     5.021561    0.364298   -0.284177
     0.682704    5.062699   -0.237113
     0.143103    0.311911    5.802298
   H    Nb   H    Nb   H    Sr
   6   1   7   1   4   1
Direct configuration=    20
   0.88612829  0.76450887  0.35461462
   0.65776944  0.66656738  0.54875562
   0.05270749  0.34290030  0.78668804
   0.38202649  0.49094095  0.71346276
   0.60410458  0.62202490  0.08502890
   0.55306240  0.56769224  0.19264940
   0.02075218  0.68605548  0.63770780
   0.22867944  0.87299410  0.83504128
   0.18657725  0.50693526  0.19884072
   0.17221132  0.51789560  0.06956526
   0.82706120  0.73515996  0.89635912
   0.72041583  0.50556396  0.59470906
   0.25588860  0.87068240  0.46305087
   0.78216330  0.02409335  0.64405605
   0.38683191  0.12843780  0.66530221
   0.53885732  0.24040959  0.40551467
   0.44199399  0.12117299  0.98008994
   0.11612323  0.35242501  0.47245851
   0.63256442  0.31140221  0.76443370
   0.90718735  0.14648964  0.12901547
unknown system                          
           1
     5.020899    0.365912   -0.287386
     0.684509    5.061575   -0.236488
     0.139459    0.313161    5.803592
   H    Nb   H    Nb   H    Sr
   6   1   7   1   4   1
Direct configuration=    21
   0.88642655  0.76422637  0.35493325
   0.65773503  0.66718471  0.54917271
   0.05270190  0.34283349  0.78681258
   0.38188019  0.49054017  0.71348191
   0.60428089  0.62211288  0.08491229
   0.55291183  0.56765159  0.19299113
   0.02064016  0.68608027  0.63773632
   0.22864772  0.87273605  0.83466788
   0.18636506  0.50722952  0.19894523
   0.17250535  0.51781712  0.06920241
   0.82710423  0.73540630  0.89595253
   0.72047848  0.50530306  0.59421109
   0.25585700  0.87050634  0.46296962
   0.78258400  0.02431486  0.64384846
   0.38629138  0.12875803  0.66520070
   0.53884016  0.24025176  0.40547927
   0.44191358  0.12135856  0.98002727
   0.11627125  0.35233588  0.47304771
   0.63236455  0.31125533  0.76429424
   0.90730670  0.14644972  0.12945741
unknown system                          
           1
     5.020329    0.367301   -0.290150
     0.686064    5.060606   -0.235950
     0.136320    0.314237    5.804706
   H    Nb   H    Nb   H    Sr
   6   1   7   1   4   1
Direct configuration=    22
   0.88668378  0.76398284  0.35520779
   0.65770545  0.66771642  0.54953177
   0.05269719  0.34277591  0.78691983
   0.38175431  0.49019495  0.71349836
   0.60443265  0.62218865  0.08481195
   0.55278237  0.56761654  0.19328532
   0.02054367  0.68610164  0.63776081
   0.22862025  0.87251384  0.83434637
   0.18618225  0.50748305  0.19903509
   0.17275841  0.51774950  0.06889011
   0.82714095  0.73561860  0.89560242
   0.72053220  0.50507841  0.59378236
   0.25582979  0.87035471  0.46289967
   0.78294618  0.02450560  0.64366988
   0.38582560  0.12903410  0.66511301
   0.53882541  0.24011581  0.40544879
   0.44184420  0.12151846  0.97997324
   0.11639917  0.35225890  0.47355513
   0.63219234  0.31112889  0.76417407
   0.90740982  0.14641517  0.12983801
unknown system                          
           1
     5.020052    0.368617   -0.293196
     0.687568    5.060405   -0.234931
     0.132890    0.316019    5.807258
   H    Nb   H    Nb   H    Sr
   6   1   7   1   4   1
Direct configuration=    23
   0.88684609  0.76374763  0.35522889
   0.65752819  0.66829485  0.55012671
   0.05259186  0.34269173  0.78712511
   0.38165477  0.48989185  0.71356743
   0.60450714  0.62215661  0.08498752
   0.55276171  0.56773856  0.19339191
   0.02064359  0.68598636  0.63810283
   0.22866686  0.87230332  0.83393135
   0.18585175  0.50793571  0.19883508
   0.17316667  0.51761234  0.06879627
   0.82706398  0.73598541  0.89517224
   0.72053090  0.50502662  0.59305691
   0.25575965  0.87017920  0.46281792
   0.78325542  0.02494874  0.64336664
   0.38613502  0.12856198  0.66523565
   0.53864352  0.23995975  0.40544567
   0.44171135  0.12177058  0.97984202
   0.11630203  0.35229128  0.47401050
   0.63190711  0.31095858  0.76396645
   0.90757839  0.14631087  0.13033690
unknown system                          
           1
     5.019292    0.372218   -0.301534
     0.691688    5.059855   -0.232138
     0.123500    0.320897    5.814245
   H    Nb   H    Nb   H    Sr
   6   1   7   1   4   1
Direct configuration=    24
   0.88729078  0.76310343  0.35528700
   0.65704355  0.66987824  0.55175443
   0.05230391  0.34246112  0.78768685
   0.38138259  0.48906190  0.71375646
   0.60471150  0.62206865  0.08546814
   0.55270524  0.56807259  0.19368352
   0.02091798  0.68567025  0.63903908
   0.22879382  0.87172727  0.83279568
   0.18494597  0.50917568  0.19828697
   0.17428450  0.51723655  0.06854008
   0.82685204  0.73699031  0.89399460
   0.72052588  0.50488558  0.59107147
   0.25556758  0.86969878  0.46259417
   0.78410121  0.02616223  0.64253692
   0.38698292  0.12726884  0.66557198
   0.53814560  0.23953258  0.40543695
   0.44134709  0.12246118  0.97948255
   0.11603693  0.35237955  0.47525664
   0.63112581  0.31049269  0.76339792
   0.90804110  0.14602461  0.13170257
unknown system                          
           1
     5.020094    0.373469   -0.302717
     0.693203    5.060359   -0.230043
     0.122269    0.323732    5.818388
   H    Nb   H    Nb   H    Sr
   6   1   7   1   4   1
Direct configuration=    25
   0.88748745  0.76273653  0.35529496
   0.65654576  0.67032017  0.55261906
   0.05219365  0.34226145  0.78798402
   0.38166512  0.48861278  0.71395797
   0.60466704  0.62191672  0.08598818
   0.55287686  0.56838778  0.19351619
   0.02066177  0.68550362  0.63860782
   0.22911419  0.87166465  0.83265761
   0.18448263  0.50985058  0.19815454
   0.17481738  0.51700143  0.06838779
   0.82635243  0.73761448  0.89381045
   0.72056617  0.50520119  0.59002003
   0.25541426  0.86946756  0.46267164
   0.78445199  0.02677740  0.64208653
   0.38764205  0.12613904  0.66554011
   0.53768047  0.23937472  0.40557010
   0.44133183  0.12276882  0.97946231
   0.11570306  0.35247618  0.47558217
   0.63112964  0.31041762  0.76324719
   0.90832224  0.14585926  0.13218533
unknown system                          
           1
     5.020725    0.374453   -0.303646
     0.694394    5.060754   -0.228396
     0.121302    0.325960    5.821642
   H    Nb   H    Nb   H    Sr
   6   1   7   1   4   1
Direct configuration=    26
   0.88764201  0.76244825  0.35530134
   0.65615486  0.67066708  0.55329764
   0.05210717  0.34210449  0.78821736
   0.38188721  0.48825982  0.71411634
   0.60463228  0.62179715  0.08639649
   0.55301155  0.56863543  0.19338475
   0.02046043  0.68537295  0.63826926
   0.22936583  0.87161545  0.83254927
   0.18411848  0.51038093  0.19805031
   0.17523599  0.51681669  0.06826838
   0.82595978  0.73810500  0.89366562
   0.72059747  0.50544956  0.58919450
   0.25529390  0.86928592  0.46273251
   0.78472728  0.02726079  0.64173281
   0.38816006  0.12525137  0.66551552
   0.53731517  0.23925075  0.40567462
   0.44131978  0.12301052  0.97944634
   0.11544086  0.35255203  0.47583766
   0.63113262  0.31035872  0.76312888
   0.90854325  0.14572911  0.13256441
unknown system                          
           1
     5.021102    0.376008   -0.303289
     0.696112    5.060565   -0.226748
     0.121950    0.328002    5.826208
   H    Nb   H    Nb   H    Sr
   6   1   7   1   4   1
Direct configuration=    27
   0.88772212  0.76208266  0.35507550
   0.65529261  0.67113624  0.55410475
   0.05212288  0.34186581  0.78841734
   0.38240011  0.48758606  0.71432750
   0.60488813  0.62198209  0.08627678
   0.55292430  0.56862850  0.19384362
   0.02026161  0.68527767  0.63811975
   0.22970788  0.87146956  0.83263884
   0.18364146  0.51108723  0.19791414
   0.17576284  0.51652810  0.06818066
   0.82530448  0.73876104  0.89350949
   0.72077564  0.50569219  0.58811299
   0.25509697  0.86900713  0.46288898
   0.78511001  0.02781690  0.64121387
   0.38859239  0.12467510  0.66554284
   0.53677889  0.23912179  0.40581658
   0.44144217  0.12324203  0.97946365
   0.11511110  0.35248683  0.47599767
   0.63132689  0.31033290  0.76303264
   0.90884351  0.14557217  0.13286642
unknown system                          
           1
     5.021744    0.378648   -0.302683
     0.699027    5.060244   -0.223952
     0.123049    0.331466    5.833955
   H    Nb   H    Nb   H    Sr
   6   1   7   1   4   1
Direct configuration=    28
   0.88785829  0.76146233  0.35469277
   0.65382918  0.67193237  0.55547309
   0.05214967  0.34146066  0.78875653
   0.38327079  0.48644231  0.71468580
   0.60532215  0.62229588  0.08607370
   0.55277620  0.56861652  0.19462165
   0.01992433  0.68511618  0.63786633
   0.23028835  0.87122177  0.83279073
   0.18283163  0.51228615  0.19768297
   0.17665700  0.51603813  0.06803199
   0.82419218  0.73987478  0.89324452
   0.72107794  0.50610448  0.58627913
   0.25476296  0.86853401  0.46315445
   0.78575916  0.02876074  0.64033365
   0.38932630  0.12369693  0.66558940
   0.53586897  0.23890313  0.40605742
   0.44164970  0.12363483  0.97949286
   0.11455159  0.35237625  0.47626905
   0.63165655  0.31028905  0.76286945
   0.90935307  0.14530552  0.13337851
unknown system                          
           1
     5.020911    0.379860   -0.301830
     0.700223    5.059300   -0.222994
     0.124138    0.332473    5.835862
   H    Nb   H    Nb   H    Sr
   6   1   7   1   4   1
Direct configuration=    29
   0.88790530  0.76117884  0.35449228
   0.65307130  0.67238101  0.55604833
   0.05222405  0.34129087  0.78884694
   0.38367648  0.48587395  0.71482926
   0.60538369  0.62231257  0.08624630
   0.55286255  0.56873035  0.19469514
   0.01979945  0.68507844  0.63799566
   0.23049012  0.87100562  0.83289234
   0.18245549  0.51282548  0.19753650
   0.17705078  0.51579912  0.06801987
   0.82368070  0.74035969  0.89305547
   0.72129474  0.50616830  0.58545761
   0.25460869  0.86832690  0.46330306
   0.78607330  0.02914081  0.63991292
   0.38950752  0.12357110  0.66573769
   0.53549082  0.23883808  0.40610795
   0.44178723  0.12377238  0.97946893
   0.11436249  0.35223233  0.47637394
   0.63180129  0.31025966  0.76278642
   0.90958003  0.14520651  0.13353738
unknown system                          
           1
     5.018412    0.383495   -0.299273
     0.703811    5.056468   -0.220118
     0.127405    0.335492    5.841583
   H    Nb   H    Nb   H    Sr
   6   1   7   1   4   1
Direct configuration=    30
   0.88804671  0.76032823  0.35389116
   0.65079652  0.67372753  0.55777354
   0.05244731  0.34078131  0.78911815
   0.38489417  0.48416814  0.71525961
   0.60556824  0.62236255  0.08676388
   0.55312153  0.56907179  0.19491545
   0.01942466  0.68496521  0.63838361
   0.23109566  0.87035684  0.83319711
   0.18132649  0.51444415  0.19709714
   0.17823257  0.51508164  0.06798348