   23   23   99    2
  0.7403691E+01  0.3926479E-09  0.5801001E-09  0.7635587E-09  0.5000000E-15
  1.000000000000000E-004
  CAR 
 unknown system                          
     42     38     48
 
  0.3742002E-15  0.3742002E-15  0.3742002E-15  0.1388889E-01
    1      -35.431119    -35.431119   1.000000   1.000000
    2      -30.861218    -30.861218   1.000000   1.000000
    3      -30.588347    -30.588347   1.000000   1.000000
    4      -30.481206    -30.481205   1.000000   1.000000
    5      -17.620585    -17.620584   1.000000   1.000000
    6      -17.358922    -17.358922   1.000000   1.000000
    7      -17.346871    -17.346871   1.000000   1.000000
    8       -9.682099     -9.682099   1.000000   1.000000
    9       -8.501710     -8.501710   1.000000   1.000000
   10       -7.629453     -7.629453   1.000000   1.000000
   11       -6.998473     -6.998473   1.000000   1.000000
   12       -6.796557     -6.796557   1.000000   1.000000
   13       -6.550957     -6.550957   1.000000   1.000000
   14       -5.962255     -5.962255   1.000000   1.000000
   15       -5.652508     -5.652508   1.000000   1.000000
   16       -3.961031     -3.961031   1.000000   1.000000
   17       -3.538319     -3.538320   1.000000   1.000000
   18       -3.087970     -3.087970   1.000000   1.000000
   19       -2.710328     -2.710328   1.000000   1.000000
   20       -2.278253     -2.278253   1.000000   1.000000
   21       -1.153587     -1.153587   1.000000   1.000000
   22        2.243161      2.243161   0.000000   0.000000
   23        3.034680      3.034680   0.000000   0.000000
   24        3.145690      3.145690   0.000000   0.000000
   25        3.265887      3.265887   0.000000   0.000000
   26        3.791134      3.791134   0.000000   0.000000
   27        3.998488      3.998488   0.000000   0.000000
   28        4.306225      4.306225   0.000000   0.000000
   29        4.538995      4.538995   0.000000   0.000000
   30        4.903911      4.903911   0.000000   0.000000
   31        5.194401      5.194400   0.000000   0.000000
   32        5.695961      5.695961   0.000000   0.000000
   33        6.139502      6.139502   0.000000   0.000000
   34        6.255738      6.255738   0.000000   0.000000
   35        6.488618      6.488618   0.000000   0.000000
   36        6.592700      6.592700   0.000000   0.000000
   37        6.816235      6.816235   0.000000   0.000000
   38        7.362047      7.362047   0.000000   0.000000
   39        7.647496      7.647496   0.000000   0.000000
   40        8.710892      8.710892   0.000000   0.000000
   41        8.854590      8.854590   0.000000   0.000000
   42        9.158475      9.158475   0.000000   0.000000
   43        9.716601      9.716601   0.000000   0.000000
   44        9.896816      9.896816   0.000000   0.000000
   45       10.217766     10.217766   0.000000   0.000000
   46       10.335320     10.335319   0.000000   0.000000
   47       10.462521     10.462521   0.000000   0.000000
   48       11.010645     11.010647   0.000000   0.000000
 
  0.1666667E+00  0.3703635E-15  0.3712308E-15  0.2777778E-01
    1      -35.428793    -35.428793   1.000000   1.000000
    2      -30.860465    -30.860465   1.000000   1.000000
    3      -30.596933    -30.596933   1.000000   1.000000
    4      -30.480629    -30.480629   1.000000   1.000000
    5      -17.612234    -17.612234   1.000000   1.000000
    6      -17.412116    -17.412116   1.000000   1.000000
    7      -17.342001    -17.342001   1.000000   1.000000
    8       -9.522889     -9.522889   1.000000   1.000000
    9       -8.436914     -8.436914   1.000000   1.000000
   10       -7.630762     -7.630762   1.000000   1.000000
   11       -6.972020     -6.972020   1.000000   1.000000
   12       -6.754718     -6.754718   1.000000   1.000000
   13       -6.505183     -6.505183   1.000000   1.000000
   14       -5.975418     -5.975418   1.000000   1.000000
   15       -5.673997     -5.673997   1.000000   1.000000
   16       -3.903342     -3.903342   1.000000   1.000000
   17       -3.477461     -3.477461   1.000000   1.000000
   18       -3.070219     -3.070219   1.000000   1.000000
   19       -2.769028     -2.769028   1.000000   1.000000
   20       -2.489820     -2.489820   1.000000   1.000000
   21       -1.354160     -1.354160   1.000000   1.000000
   22        2.206951      2.206951   0.000000   0.000000
   23        2.554425      2.554426   0.000000   0.000000
   24        2.875925      2.875925   0.000000   0.000000
   25        3.494909      3.494909   0.000000   0.000000
   26        3.626327      3.626327   0.000000   0.000000
   27        3.995904      3.995904   0.000000   0.000000
   28        4.211712      4.211712   0.000000   0.000000
   29        4.564898      4.564898   0.000000   0.000000
   30        4.712707      4.712707   0.000000   0.000000
   31        5.218930      5.218930   0.000000   0.000000
   32        5.596071      5.596071   0.000000   0.000000
   33        5.769235      5.769235   0.000000   0.000000
   34        6.141774      6.141774   0.000000   0.000000
   35        6.280705      6.280705   0.000000   0.000000
   36        6.801572      6.801572   0.000000   0.000000
   37        7.082683      7.082683   0.000000   0.000000
   38        7.541732      7.541732   0.000000   0.000000
   39        8.081007      8.081007   0.000000   0.000000
   40        8.469421      8.469421   0.000000   0.000000
   41        8.651987      8.651987   0.000000   0.000000
   42        9.029111      9.029111   0.000000   0.000000
   43        9.726957      9.726957   0.000000   0.000000
   44        9.936228      9.936228   0.000000   0.000000
   45       10.203747     10.203747   0.000000   0.000000
   46       10.558147     10.558147   0.000000   0.000000
   47       10.868818     10.868818   0.000000   0.000000
   48       11.051398     11.051398   0.000000   0.000000
 
  0.3333333E+00  0.3766518E-15  0.3747003E-15  0.2777778E-01
    1      -35.424135    -35.424135   1.000000   1.000000
    2      -30.858954    -30.858954   1.000000   1.000000
    3      -30.614098    -30.614098   1.000000   1.000000
    4      -30.479427    -30.479427   1.000000   1.000000
    5      -17.595473    -17.595472   1.000000   1.000000
    6      -17.516839    -17.516839   1.000000   1.000000
    7      -17.331011    -17.331011   1.000000   1.000000
    8       -9.108090     -9.108090   1.000000   1.000000
    9       -8.296880     -8.296880   1.000000   1.000000
   10       -7.703585     -7.703585   1.000000   1.000000
   11       -7.105019     -7.105019   1.000000   1.000000
   12       -6.664924     -6.664924   1.000000   1.000000
   13       -6.417040     -6.417040   1.000000   1.000000
   14       -6.189917     -6.189917   1.000000   1.000000
   15       -5.225691     -5.225691   1.000000   1.000000
   16       -3.894064     -3.894064   1.000000   1.000000
   17       -3.355395     -3.355396   1.000000   1.000000
   18       -3.112108     -3.112108   1.000000   1.000000
   19       -2.925746     -2.925745   1.000000   1.000000
   20       -2.783606     -2.783606   1.000000   1.000000
   21       -1.719990     -1.719990   1.000000   1.000000
   22        1.808293      1.808293   0.000000   0.000000
   23        2.262212      2.262212   0.000000   0.000000
   24        2.400903      2.400903   0.000000   0.000000
   25        3.273357      3.273356   0.000000   0.000000
   26        3.523543      3.523543   0.000000   0.000000
   27        3.816062      3.816062   0.000000   0.000000
   28        4.256936      4.256936   0.000000   0.000000
   29        4.404532      4.404532   0.000000   0.000000
   30        4.673808      4.673808   0.000000   0.000000
   31        5.115348      5.115348   0.000000   0.000000
   32        5.340515      5.340515   0.000000   0.000000
   33        5.846699      5.846699   0.000000   0.000000
   34        6.037639      6.037639   0.000000   0.000000
   35        6.331717      6.331717   0.000000   0.000000
   36        6.901134      6.901134   0.000000   0.000000
   37        7.209822      7.209822   0.000000   0.000000
   38        7.601287      7.601287   0.000000   0.000000
   39        7.906890      7.906890   0.000000   0.000000
   40        8.214185      8.214185   0.000000   0.000000
   41        8.609488      8.609488   0.000000   0.000000
   42        8.807286      8.807286   0.000000   0.000000
   43        9.106242      9.106242   0.000000   0.000000
   44        9.595077      9.595077   0.000000   0.000000
   45       10.140116     10.140116   0.000000   0.000000
   46       10.914935     10.914935   0.000000   0.000000
   47       11.176748     11.176748   0.000000   0.000000
   48       11.536197     11.536197   0.000000   0.000000
 
  0.5000000E+00  0.3688456E-15  0.3608225E-15  0.1388889E-01
    1      -35.421802    -35.421803   1.000000   1.000000
    2      -30.858194    -30.858194   1.000000   1.000000
    3      -30.622671    -30.622671   1.000000   1.000000
    4      -30.478806    -30.478806   1.000000   1.000000
    5      -17.587224    -17.587223   1.000000   1.000000
    6      -17.567716    -17.567716   1.000000   1.000000
    7      -17.325464    -17.325464   1.000000   1.000000
    8       -8.761279     -8.761279   1.000000   1.000000
    9       -8.274647     -8.274647   1.000000   1.000000
   10       -7.820368     -7.820368   1.000000   1.000000
   11       -7.250958     -7.250958   1.000000   1.000000
   12       -6.636415     -6.636415   1.000000   1.000000
   13       -6.378920     -6.378920   1.000000   1.000000
   14       -6.254975     -6.254975   1.000000   1.000000
   15       -4.653855     -4.653855   1.000000   1.000000
   16       -4.210947     -4.210947   1.000000   1.000000
   17       -3.319196     -3.319196   1.000000   1.000000
   18       -3.182057     -3.182057   1.000000   1.000000
   19       -3.019549     -3.019549   1.000000   1.000000
   20       -2.792554     -2.792554   1.000000   1.000000
   21       -1.896176     -1.896176   1.000000   1.000000
   22        1.709862      1.709862   0.000000   0.000000
   23        2.119477      2.119478   0.000000   0.000000
   24        2.227587      2.227588   0.000000   0.000000
   25        3.003069      3.003068   0.000000   0.000000
   26        3.235710      3.235710   0.000000   0.000000
   27        3.609100      3.609100   0.000000   0.000000
   28        4.265564      4.265564   0.000000   0.000000
   29        4.556537      4.556537   0.000000   0.000000
   30        4.746226      4.746226   0.000000   0.000000
   31        5.178799      5.178799   0.000000   0.000000
   32        5.441154      5.441154   0.000000   0.000000
   33        5.985040      5.985040   0.000000   0.000000
   34        6.365852      6.365852   0.000000   0.000000
   35        6.478731      6.478731   0.000000   0.000000
   36        6.692391      6.692391   0.000000   0.000000
   37        7.075836      7.075836   0.000000   0.000000
   38        7.176246      7.176246   0.000000   0.000000
   39        7.614422      7.614422   0.000000   0.000000
   40        7.882180      7.882180   0.000000   0.000000
   41        8.212345      8.212345   0.000000   0.000000
   42        8.914420      8.914420   0.000000   0.000000
   43        9.166824      9.166824   0.000000   0.000000
   44        9.361696      9.361696   0.000000   0.000000
   45       10.016657     10.016657   0.000000   0.000000
   46       11.328894     11.328894   0.000000   0.000000
   47       11.570213     11.570213   0.000000   0.000000
   48       11.835038     11.835038   0.000000   0.000000
 
  0.3679782E-15  0.2500000E+00  0.3747003E-15  0.2777778E-01
    1      -35.431260    -35.431260   1.000000   1.000000
    2      -30.861229    -30.861229   1.000000   1.000000
    3      -30.588318    -30.588318   1.000000   1.000000
    4      -30.480743    -30.480742   1.000000   1.000000
    5      -17.620432    -17.620431   1.000000   1.000000
    6      -17.360183    -17.360183   1.000000   1.000000
    7      -17.353939    -17.353939   1.000000   1.000000
    8       -9.513888     -9.513889   1.000000   1.000000
    9       -8.614390     -8.614390   1.000000   1.000000
   10       -7.816254     -7.816254   1.000000   1.000000
   11       -7.197885     -7.197885   1.000000   1.000000
   12       -6.688337     -6.688337   1.000000   1.000000
   13       -6.286514     -6.286514   1.000000   1.000000
   14       -5.918550     -5.918550   1.000000   1.000000
   15       -5.584163     -5.584163   1.000000   1.000000
   16       -3.913068     -3.913068   1.000000   1.000000
   17       -3.531309     -3.531309   1.000000   1.000000
   18       -3.177090     -3.177090   1.000000   1.000000
   19       -2.927240     -2.927240   1.000000   1.000000
   20       -2.334410     -2.334410   1.000000   1.000000
   21       -0.974579     -0.974579   1.000000   1.000000
   22        2.147117      2.147117   0.000000   0.000000
   23        2.464363      2.464363   0.000000   0.000000
   24        2.953773      2.953773   0.000000   0.000000
   25        3.567030      3.567029   0.000000   0.000000
   26        3.744839      3.744839   0.000000   0.000000
   27        4.088624      4.088624   0.000000   0.000000
   28        4.477710      4.477710   0.000000   0.000000
   29        4.726092      4.726092   0.000000   0.000000
   30        5.182549      5.182549   0.000000   0.000000
   31        5.571289      5.571289   0.000000   0.000000
   32        5.669748      5.669748   0.000000   0.000000
   33        5.925903      5.925903   0.000000   0.000000
   34        6.172019      6.172019   0.000000   0.000000
   35        6.455889      6.455889   0.000000   0.000000
   36        6.790601      6.790602   0.000000   0.000000
   37        7.093664      7.093664   0.000000   0.000000
   38        7.377142      7.377142   0.000000   0.000000
   39        7.647612      7.647612   0.000000   0.000000
   40        8.187874      8.187874   0.000000   0.000000
   41        8.707588      8.707589   0.000000   0.000000
   42        9.108217      9.108217   0.000000   0.000000
   43        9.444958      9.444957   0.000000   0.000000
   44        9.601565      9.601565   0.000000   0.000000
   45        9.949079      9.949079   0.000000   0.000000
   46       10.582017     10.582017   0.000000   0.000000
   47       10.659819     10.659819   0.000000   0.000000
   48       11.080159     11.080159   0.000000   0.000000
 
  0.1666667E+00  0.2500000E+00  0.3608225E-15  0.2777778E-01
    1      -35.428897    -35.428897   1.000000   1.000000
    2      -30.860470    -30.860470   1.000000   1.000000
    3      -30.596924    -30.596924   1.000000   1.000000
    4      -30.480311    -30.480311   1.000000   1.000000
    5      -17.612053    -17.612052   1.000000   1.000000
    6      -17.411715    -17.411715   1.000000   1.000000
    7      -17.348226    -17.348226   1.000000   1.000000
    8       -9.363977     -9.363977   1.000000   1.000000
    9       -8.535465     -8.535466   1.000000   1.000000
   10       -7.774566     -7.774566   1.000000   1.000000
   11       -7.156272     -7.156272   1.000000   1.000000
   12       -6.688327     -6.688327   1.000000   1.000000
   13       -6.326976     -6.326976   1.000000   1.000000
   14       -5.916449     -5.916449   1.000000   1.000000
   15       -5.593514     -5.593514   1.000000   1.000000
   16       -3.840558     -3.840558   1.000000   1.000000
   17       -3.448159     -3.448159   1.000000   1.000000
   18       -3.194135     -3.194135   1.000000   1.000000
   19       -3.017238     -3.017238   1.000000   1.000000
   20       -2.470776     -2.470776   1.000000   1.000000
   21       -1.272931     -1.272931   1.000000   1.000000
   22        2.211600      2.211600   0.000000   0.000000
   23        2.451571      2.451571   0.000000   0.000000
   24        2.870421      2.870421   0.000000   0.000000
   25        3.419186      3.419185   0.000000   0.000000
   26        3.739026      3.739025   0.000000   0.000000
   27        3.982022      3.982022   0.000000   0.000000
   28        4.356081      4.356081   0.000000   0.000000
   29        4.670191      4.670191   0.000000   0.000000
   30        5.005349      5.005349   0.000000   0.000000
   31        5.179294      5.179294   0.000000   0.000000
   32        5.566523      5.566523   0.000000   0.000000
   33        5.717942      5.717942   0.000000   0.000000
   34        6.123339      6.123340   0.000000   0.000000
   35        6.451765      6.451765   0.000000   0.000000
   36        6.636362      6.636362   0.000000   0.000000
   37        7.152123      7.152123   0.000000   0.000000
   38        7.547561      7.547561   0.000000   0.000000
   39        7.849666      7.849666   0.000000   0.000000
   40        8.287290      8.287290   0.000000   0.000000
   41        8.890376      8.890376   0.000000   0.000000
   42        9.092852      9.092852   0.000000   0.000000
   43        9.697221      9.697221   0.000000   0.000000
   44        9.831158      9.831158   0.000000   0.000000
   45       10.171652     10.171652   0.000000   0.000000
   46       10.377663     10.377663   0.000000   0.000000
   47       10.805170     10.805170   0.000000   0.000000
   48       11.032818     11.032818   0.000000   0.000000
 
  0.3333333E+00  0.2500000E+00  0.3608225E-15  0.2777778E-01
    1      -35.424128    -35.424128   1.000000   1.000000
    2      -30.858949    -30.858949   1.000000   1.000000
    3      -30.614243    -30.614243   1.000000   1.000000
    4      -30.479433    -30.479432   1.000000   1.000000
    5      -17.595247    -17.595247   1.000000   1.000000
    6      -17.514286    -17.514286   1.000000   1.000000
    7      -17.333070    -17.333070   1.000000   1.000000
    8       -9.003421     -9.003421   1.000000   1.000000
    9       -8.326192     -8.326192   1.000000   1.000000
   10       -7.711984     -7.711984   1.000000   1.000000
   11       -7.212424     -7.212424   1.000000   1.000000
   12       -6.731956     -6.731956   1.000000   1.000000
   13       -6.416324     -6.416324   1.000000   1.000000
   14       -6.136749     -6.136749   1.000000   1.000000
   15       -5.190196     -5.190196   1.000000   1.000000
   16       -3.820964     -3.820964   1.000000   1.000000
   17       -3.437528     -3.437528   1.000000   1.000000
   18       -3.162512     -3.162512   1.000000   1.000000
   19       -3.071150     -3.071150   1.000000   1.000000
   20       -2.617976     -2.617976   1.000000   1.000000
   21       -1.840913     -1.840913   1.000000   1.000000
   22        1.842599      1.842600   0.000000   0.000000
   23        2.467962      2.467962   0.000000   0.000000
   24        2.830270      2.830270   0.000000   0.000000
   25        3.211790      3.211789   0.000000   0.000000
   26        3.540511      3.540511   0.000000   0.000000
   27        3.696421      3.696421   0.000000   0.000000
   28        4.105236      4.105236   0.000000   0.000000
   29        4.533367      4.533367   0.000000   0.000000
   30        4.936835      4.936835   0.000000   0.000000
   31        5.101703      5.101703   0.000000   0.000000
   32        5.595505      5.595505   0.000000   0.000000
   33        5.749588      5.749588   0.000000   0.000000
   34        5.984474      5.984474   0.000000   0.000000
   35        6.246080      6.246079   0.000000   0.000000
   36        6.678270      6.678271   0.000000   0.000000
   37        7.055134      7.055134   0.000000   0.000000
   38        7.463822      7.463822   0.000000   0.000000
   39        7.755152      7.755152   0.000000   0.000000
   40        8.311783      8.311782   0.000000   0.000000
   41        8.569653      8.569653   0.000000   0.000000
   42        8.908200      8.908200   0.000000   0.000000
   43        9.399451      9.399451   0.000000   0.000000
   44        9.536309      9.536309   0.000000   0.000000
   45       10.114149     10.114149   0.000000   0.000000
   46       10.693797     10.693797   0.000000   0.000000
   47       11.162851     11.162851   0.000000   0.000000
   48       11.577686     11.577686   0.000000   0.000000
 
  0.5000000E+00  0.2500000E+00  0.3885781E-15  0.2777778E-01
    1      -35.421721    -35.421721   1.000000   1.000000
    2      -30.858186    -30.858186   1.000000   1.000000
    3      -30.622939    -30.622939   1.000000   1.000000
    4      -30.479003    -30.479003   1.000000   1.000000
    5      -17.586938    -17.586937   1.000000   1.000000
    6      -17.563983    -17.563983   1.000000   1.000000
    7      -17.324956    -17.324956   1.000000   1.000000
    8       -8.730348     -8.730348   1.000000   1.000000
    9       -8.221472     -8.221472   1.000000   1.000000
   10       -7.808784     -7.808784   1.000000   1.000000
   11       -7.205711     -7.205711   1.000000   1.000000
   12       -6.771785     -6.771785   1.000000   1.000000
   13       -6.421102     -6.421102   1.000000   1.000000
   14       -6.305002     -6.305002   1.000000   1.000000
   15       -4.814596     -4.814596   1.000000   1.000000
   16       -4.052535     -4.052536   1.000000   1.000000
   17       -3.521699     -3.521699   1.000000   1.000000
   18       -3.064227     -3.064227   1.000000   1.000000
   19       -2.913731     -2.913731   1.000000   1.000000
   20       -2.652845     -2.652845   1.000000   1.000000
   21       -2.180662     -2.180662   1.000000   1.000000
   22        1.697442      1.697442   0.000000   0.000000
   23        2.452241      2.452241   0.000000   0.000000
   24        2.583929      2.583929   0.000000   0.000000
   25        3.016494      3.016494   0.000000   0.000000
   26        3.452301      3.452301   0.000000   0.000000
   27        3.687725      3.687725   0.000000   0.000000
   28        4.012275      4.012275   0.000000   0.000000
   29        4.525693      4.525693   0.000000   0.000000
   30        4.978964      4.978964   0.000000   0.000000
   31        5.053848      5.053848   0.000000   0.000000
   32        5.790732      5.790732   0.000000   0.000000
   33        5.994881      5.994881   0.000000   0.000000
   34        6.148036      6.148037   0.000000   0.000000
   35        6.390700      6.390700   0.000000   0.000000
   36        6.598664      6.598664   0.000000   0.000000
   37        6.789153      6.789153   0.000000   0.000000
   38        7.239329      7.239329   0.000000   0.000000
   39        7.289448      7.289448   0.000000   0.000000
   40        7.844593      7.844593   0.000000   0.000000
   41        8.657888      8.657888   0.000000   0.000000
   42        8.734669      8.734669   0.000000   0.000000
   43        9.040735      9.040735   0.000000   0.000000
   44        9.448419      9.448420   0.000000   0.000000
   45       10.096544     10.096544   0.000000   0.000000
   46       10.861581     10.861581   0.000000   0.000000
   47       11.261659     11.261658   0.000000   0.000000
   48       11.784921     11.784921   0.000000   0.000000
 
 -0.3333333E+00  0.2500000E+00  0.3833739E-15  0.2777778E-01
    1      -35.424091    -35.424091   1.000000   1.000000
    2      -30.858949    -30.858949   1.000000   1.000000
    3      -30.614341    -30.614341   1.000000   1.000000
    4      -30.479477    -30.479477   1.000000   1.000000
    5      -17.595260    -17.595260   1.000000   1.000000
    6      -17.513947    -17.513947   1.000000   1.000000
    7      -17.331946    -17.331946   1.000000   1.000000
    8       -8.989639     -8.989639   1.000000   1.000000
    9       -8.389938     -8.389938   1.000000   1.000000
   10       -7.717615     -7.717615   1.000000   1.000000
   11       -7.016250     -7.016250   1.000000   1.000000
   12       -6.858001     -6.858001   1.000000   1.000000
   13       -6.387991     -6.387991   1.000000   1.000000
   14       -6.168737     -6.168737   1.000000   1.000000
   15       -5.207894     -5.207894   1.000000   1.000000
   16       -3.831469     -3.831469   1.000000   1.000000
   17       -3.495959     -3.495959   1.000000   1.000000
   18       -3.255904     -3.255904   1.000000   1.000000
   19       -2.956422     -2.956422   1.000000   1.000000
   20       -2.561426     -2.561426   1.000000   1.000000
   21       -1.826977     -1.826977   1.000000   1.000000
   22        1.769717      1.769717   0.000000   0.000000
   23        2.470247      2.470248   0.000000   0.000000
   24        2.711971      2.711971   0.000000   0.000000
   25        3.144625      3.144624   0.000000   0.000000
   26        3.486087      3.486086   0.000000   0.000000
   27        3.911592      3.911592   0.000000   0.000000
   28        4.326922      4.326922   0.000000   0.000000
   29        4.519352      4.519352   0.000000   0.000000
   30        4.868559      4.868559   0.000000   0.000000
   31        5.152177      5.152177   0.000000   0.000000
   32        5.565173      5.565173   0.000000   0.000000
   33        5.674612      5.674612   0.000000   0.000000
   34        6.198252      6.198252   0.000000   0.000000
   35        6.345046      6.345046   0.000000   0.000000
   36        6.866503      6.866503   0.000000   0.000000
   37        7.103823      7.103823   0.000000   0.000000
   38        7.307628      7.307628   0.000000   0.000000
   39        7.443222      7.443222   0.000000   0.000000
   40        7.992673      7.992673   0.000000   0.000000
   41        8.486348      8.486348   0.000000   0.000000
   42        8.931327      8.931327   0.000000   0.000000
   43        9.206711      9.206711   0.000000   0.000000
   44        9.863546      9.863546   0.000000   0.000000
   45       10.132229     10.132229   0.000000   0.000000
   46       10.805783     10.805783   0.000000   0.000000
   47       11.300510     11.300510   0.000000   0.000000
   48       11.629610     11.629610   0.000000   0.000000
 
 -0.1666667E+00  0.2500000E+00  0.3712308E-15  0.2777778E-01
    1      -35.428860    -35.428860   1.000000   1.000000
    2      -30.860470    -30.860470   1.000000   1.000000
    3      -30.597033    -30.597033   1.000000   1.000000
    4      -30.480345    -30.480344   1.000000   1.000000
    5      -17.612066    -17.612066   1.000000   1.000000
    6      -17.411625    -17.411625   1.000000   1.000000
    7      -17.346828    -17.346828   1.000000   1.000000
    8       -9.369714     -9.369714   1.000000   1.000000
    9       -8.541312     -8.541312   1.000000   1.000000
   10       -7.763176     -7.763176   1.000000   1.000000
   11       -7.145323     -7.145323   1.000000   1.000000
   12       -6.678607     -6.678607   1.000000   1.000000
   13       -6.331168     -6.331168   1.000000   1.000000
   14       -5.965806     -5.965806   1.000000   1.000000
   15       -5.558668     -5.558668   1.000000   1.000000
   16       -3.851673     -3.851673   1.000000   1.000000
   17       -3.498749     -3.498749   1.000000   1.000000
   18       -3.138950     -3.138950   1.000000   1.000000
   19       -3.071684     -3.071684   1.000000   1.000000
   20       -2.410753     -2.410753   1.000000   1.000000
   21       -1.250346     -1.250347   1.000000   1.000000
   22        2.153404      2.153404   0.000000   0.000000
   23        2.442511      2.442511   0.000000   0.000000
   24        2.734934      2.734934   0.000000   0.000000
   25        3.413046      3.413046   0.000000   0.000000
   26        3.634638      3.634638   0.000000   0.000000
   27        4.029700      4.029699   0.000000   0.000000
   28        4.409216      4.409216   0.000000   0.000000
   29        4.648161      4.648161   0.000000   0.000000
   30        5.072061      5.072060   0.000000   0.000000
   31        5.468605      5.468605   0.000000   0.000000
   32        5.598213      5.598213   0.000000   0.000000
   33        5.916576      5.916576   0.000000   0.000000
   34        6.173882      6.173882   0.000000   0.000000
   35        6.458230      6.458230   0.000000   0.000000
   36        6.729921      6.729921   0.000000   0.000000
   37        7.160373      7.160373   0.000000   0.000000
   38        7.358025      7.358025   0.000000   0.000000
   39        7.760584      7.760584   0.000000   0.000000
   40        8.071539      8.071539   0.000000   0.000000
   41        8.806298      8.806298   0.000000   0.000000
   42        9.102803      9.102803   0.000000   0.000000
   43        9.314816      9.314816   0.000000   0.000000
   44        9.840283      9.840283   0.000000   0.000000
   45       10.055716     10.055716   0.000000   0.000000
   46       10.401681     10.401681   0.000000   0.000000
   47       10.817793     10.817793   0.000000   0.000000
   48       11.306305     11.306305   0.000000   0.000000
 
  0.3799044E-15  0.5000000E+00  0.3469447E-15  0.1388889E-01
    1      -35.431401    -35.431401   1.000000   1.000000
    2      -30.861239    -30.861239   1.000000   1.000000
    3      -30.588287    -30.588287   1.000000   1.000000
    4      -30.480278    -30.480278   1.000000   1.000000
    5      -17.620279    -17.620278   1.000000   1.000000
    6      -17.364054    -17.364054   1.000000   1.000000
    7      -17.358356    -17.358356   1.000000   1.000000
    8       -9.141187     -9.141187   1.000000   1.000000
    9       -8.990393     -8.990393   1.000000   1.000000
   10       -7.875226     -7.875226   1.000000   1.000000
   11       -7.382268     -7.382268   1.000000   1.000000
   12       -6.544418     -6.544418   1.000000   1.000000
   13       -6.098986     -6.098986   1.000000   1.000000
   14       -5.912682     -5.912682   1.000000   1.000000
   15       -5.491793     -5.491793   1.000000   1.000000
   16       -3.937122     -3.937122   1.000000   1.000000
   17       -3.424722     -3.424722   1.000000   1.000000
   18       -3.366484     -3.366484   1.000000   1.000000
   19       -3.095719     -3.095719   1.000000   1.000000
   20       -2.377687     -2.377687   1.000000   1.000000
   21       -0.788398     -0.788398   1.000000   1.000000