  21  21   0   0
  0.1241919E+02  0.6253104E-09  0.6660608E-09  0.7685819E-09  0.5000000E-15
  1.000000000000000E-004
  CAR 
 unknown system                          
      8.95030155    -35.20196794  301      0.52421470      1.00000000
    -35.202  0.0000E+00  0.0000E+00
    -35.055  0.0000E+00  0.0000E+00
    -34.908  0.0000E+00  0.0000E+00
    -34.760  0.0000E+00  0.0000E+00
    -34.613  0.0000E+00  0.0000E+00
    -34.466  0.0000E+00  0.0000E+00
    -34.319  0.0000E+00  0.0000E+00
    -34.172  0.0000E+00  0.0000E+00
    -34.025  0.8264E-29  0.1216E-29
    -33.877  0.2486E-19  0.3659E-20
    -33.730  0.8581E-12  0.1263E-12
    -33.583  0.3048E-06  0.4486E-07
    -33.436  0.7611E-03  0.1121E-03
    -33.289 -0.1898E-01 -0.2681E-02
    -33.142  0.4629E+00  0.6544E-01
    -32.994  0.6825E+00  0.1659E+00
    -32.847  0.3295E-02  0.1664E+00
    -32.700  0.1977E-02  0.1667E+00
    -32.553  0.9442E-05  0.1667E+00
    -32.406  0.1643E-09  0.1667E+00
    -32.258  0.2577E-16  0.1667E+00
    -32.111  0.0000E+00  0.1667E+00
    -31.964  0.0000E+00  0.1667E+00
    -31.817  0.0000E+00  0.1667E+00
    -31.670  0.0000E+00  0.1667E+00
    -31.523  0.0000E+00  0.1667E+00
    -31.375  0.0000E+00  0.1667E+00
    -31.228  0.0000E+00  0.1667E+00
    -31.081  0.0000E+00  0.1667E+00
    -30.934  0.0000E+00  0.1667E+00
    -30.787  0.0000E+00  0.1667E+00
    -30.640  0.0000E+00  0.1667E+00
    -30.492  0.0000E+00  0.1667E+00
    -30.345  0.0000E+00  0.1667E+00
    -30.198  0.0000E+00  0.1667E+00
    -30.051  0.0000E+00  0.1667E+00
    -29.904  0.3174E-28  0.1667E+00
    -29.757  0.7442E-19  0.1667E+00
    -29.609  0.1939E-11  0.1667E+00
    -29.462  0.4845E-06  0.1667E+00
    -29.315  0.6641E-03  0.1668E+00
    -29.168 -0.1043E-01  0.1652E+00
    -29.021  0.2688E+00  0.2048E+00
    -28.873  0.4397E+00  0.2695E+00
    -28.726 -0.2038E-01  0.2665E+00
    -28.579  0.1100E-02  0.2667E+00
    -28.432  0.8767E-06  0.2667E+00
    -28.285  0.4093E-11  0.2667E+00
    -28.138  0.0000E+00  0.2667E+00
    -27.990  0.0000E+00  0.2667E+00
    -27.843  0.0000E+00  0.2667E+00
    -27.696  0.0000E+00  0.2667E+00
    -27.549  0.0000E+00  0.2667E+00
    -27.402  0.0000E+00  0.2667E+00
    -27.255  0.0000E+00  0.2667E+00
    -27.107  0.0000E+00  0.2667E+00
    -26.960  0.0000E+00  0.2667E+00
    -26.813  0.0000E+00  0.2667E+00
    -26.666  0.0000E+00  0.2667E+00
    -26.519  0.0000E+00  0.2667E+00
    -26.372  0.0000E+00  0.2667E+00
    -26.224  0.0000E+00  0.2667E+00
    -26.077  0.0000E+00  0.2667E+00
    -25.930  0.0000E+00  0.2667E+00
    -25.783  0.0000E+00  0.2667E+00
    -25.636  0.0000E+00  0.2667E+00
    -25.488  0.0000E+00  0.2667E+00
    -25.341  0.0000E+00  0.2667E+00
    -25.194  0.0000E+00  0.2667E+00
    -25.047  0.0000E+00  0.2667E+00
    -24.900  0.0000E+00  0.2667E+00
    -24.753  0.0000E+00  0.2667E+00
    -24.605  0.0000E+00  0.2667E+00
    -24.458  0.0000E+00  0.2667E+00
    -24.311  0.0000E+00  0.2667E+00
    -24.164  0.0000E+00  0.2667E+00
    -24.017  0.0000E+00  0.2667E+00
    -23.870  0.0000E+00  0.2667E+00
    -23.722  0.0000E+00  0.2667E+00
    -23.575  0.0000E+00  0.2667E+00
    -23.428  0.0000E+00  0.2667E+00
    -23.281  0.0000E+00  0.2667E+00
    -23.134  0.0000E+00  0.2667E+00
    -22.987  0.0000E+00  0.2667E+00
    -22.839  0.0000E+00  0.2667E+00
    -22.692  0.0000E+00  0.2667E+00
    -22.545  0.0000E+00  0.2667E+00
    -22.398  0.0000E+00  0.2667E+00
    -22.251  0.0000E+00  0.2667E+00
    -22.103  0.0000E+00  0.2667E+00
    -21.956  0.0000E+00  0.2667E+00
    -21.809  0.0000E+00  0.2667E+00
    -21.662  0.0000E+00  0.2667E+00
    -21.515  0.0000E+00  0.2667E+00
    -21.368  0.0000E+00  0.2667E+00
    -21.220  0.0000E+00  0.2667E+00
    -21.073  0.0000E+00  0.2667E+00
    -20.926  0.0000E+00  0.2667E+00
    -20.779  0.0000E+00  0.2667E+00
    -20.632  0.0000E+00  0.2667E+00
    -20.485  0.0000E+00  0.2667E+00
    -20.337  0.0000E+00  0.2667E+00
    -20.190  0.0000E+00  0.2667E+00
    -20.043  0.0000E+00  0.2667E+00
    -19.896  0.0000E+00  0.2667E+00
    -19.749  0.0000E+00  0.2667E+00
    -19.601  0.0000E+00  0.2667E+00
    -19.454  0.0000E+00  0.2667E+00
    -19.307  0.0000E+00  0.2667E+00
    -19.160  0.0000E+00  0.2667E+00
    -19.013  0.0000E+00  0.2667E+00
    -18.866  0.0000E+00  0.2667E+00
    -18.718  0.0000E+00  0.2667E+00
    -18.571  0.0000E+00  0.2667E+00
    -18.424  0.0000E+00  0.2667E+00
    -18.277  0.0000E+00  0.2667E+00
    -18.130  0.0000E+00  0.2667E+00
    -17.983  0.0000E+00  0.2667E+00
    -17.835  0.0000E+00  0.2667E+00
    -17.688  0.0000E+00  0.2667E+00
    -17.541  0.0000E+00  0.2667E+00
    -17.394  0.0000E+00  0.2667E+00
    -17.247  0.0000E+00  0.2667E+00
    -17.100  0.0000E+00  0.2667E+00
    -16.952  0.0000E+00  0.2667E+00
    -16.805  0.0000E+00  0.2667E+00
    -16.658  0.0000E+00  0.2667E+00
    -16.511  0.2681E-38  0.2667E+00
    -16.364  0.3893E-27  0.2667E+00
    -16.216  0.4391E-18  0.2667E+00
    -16.069  0.5981E-11  0.2667E+00
    -15.922  0.8730E-06  0.2667E+00
    -15.775  0.8110E-03  0.2668E+00
    -15.628 -0.1272E-01  0.2649E+00
    -15.481  0.3325E+00  0.3138E+00
    -15.333  0.5337E+00  0.3924E+00
    -15.186  0.9534E+00  0.5327E+00
    -15.039  0.9713E+00  0.6757E+00
    -14.892  0.6033E+00  0.7645E+00
    -14.745  0.1346E-01  0.7664E+00
    -14.598  0.1490E-02  0.7667E+00
    -14.450  0.1324E-04  0.7667E+00
    -14.303  0.3597E-09  0.7667E+00
    -14.156  0.8909E-16  0.7667E+00
    -14.009  0.0000E+00  0.7667E+00
    -13.862  0.0000E+00  0.7667E+00
    -13.715  0.0000E+00  0.7667E+00
    -13.567  0.0000E+00  0.7667E+00
    -13.420  0.0000E+00  0.7667E+00
    -13.273  0.0000E+00  0.7667E+00
    -13.126  0.0000E+00  0.7667E+00
    -12.979  0.0000E+00  0.7667E+00
    -12.831  0.0000E+00  0.7667E+00
    -12.684  0.0000E+00  0.7667E+00
    -12.537  0.0000E+00  0.7667E+00
    -12.390  0.0000E+00  0.7667E+00
    -12.243  0.0000E+00  0.7667E+00
    -12.096  0.0000E+00  0.7667E+00
    -11.948  0.0000E+00  0.7667E+00
    -11.801  0.0000E+00  0.7667E+00
    -11.654  0.0000E+00  0.7667E+00
    -11.507  0.0000E+00  0.7667E+00
    -11.360  0.0000E+00  0.7667E+00
    -11.213  0.0000E+00  0.7667E+00
    -11.065  0.0000E+00  0.7667E+00
    -10.918  0.0000E+00  0.7667E+00
    -10.771  0.0000E+00  0.7667E+00
    -10.624  0.0000E+00  0.7667E+00
    -10.477  0.0000E+00  0.7667E+00
    -10.330  0.0000E+00  0.7667E+00
    -10.182  0.0000E+00  0.7667E+00
    -10.035  0.0000E+00  0.7667E+00
     -9.888  0.0000E+00  0.7667E+00
     -9.741  0.0000E+00  0.7667E+00
     -9.594  0.0000E+00  0.7667E+00
     -9.446  0.0000E+00  0.7667E+00
     -9.299  0.0000E+00  0.7667E+00
     -9.152  0.0000E+00  0.7667E+00
     -9.005  0.0000E+00  0.7667E+00
     -8.858  0.0000E+00  0.7667E+00
     -8.711  0.0000E+00  0.7667E+00
     -8.563  0.0000E+00  0.7667E+00
     -8.416  0.0000E+00  0.7667E+00
     -8.269  0.0000E+00  0.7667E+00
     -8.122  0.0000E+00  0.7667E+00
     -7.975  0.0000E+00  0.7667E+00
     -7.828  0.0000E+00  0.7667E+00
     -7.680  0.0000E+00  0.7667E+00
     -7.533  0.0000E+00  0.7667E+00
     -7.386  0.0000E+00  0.7667E+00
     -7.239  0.0000E+00  0.7667E+00
     -7.092  0.0000E+00  0.7667E+00
     -6.945  0.0000E+00  0.7667E+00
     -6.797  0.0000E+00  0.7667E+00
     -6.650  0.0000E+00  0.7667E+00
     -6.503  0.0000E+00  0.7667E+00
     -6.356  0.0000E+00  0.7667E+00
     -6.209  0.4825E-37  0.7667E+00
     -6.061  0.1523E-26  0.7667E+00
     -5.914  0.5560E-18  0.7667E+00
     -5.767  0.2165E-11  0.7667E+00
     -5.620  0.7319E-07  0.7667E+00
     -5.473  0.1100E-04  0.7667E+00
     -5.326 -0.6030E-04  0.7667E+00
     -5.178  0.6801E-02  0.7677E+00
     -5.031  0.1687E-01  0.7701E+00
     -4.884  0.3328E-01  0.7750E+00
     -4.737  0.3797E-01  0.7806E+00
     -4.590  0.5848E-01  0.7892E+00
     -4.443  0.6612E-01  0.7990E+00
     -4.295  0.7035E-02  0.8000E+00
     -4.148 -0.3089E-04  0.8000E+00
     -4.001  0.6626E-05  0.8000E+00
     -3.854  0.1245E-07  0.8000E+00
     -3.707  0.9815E-05  0.8000E+00
     -3.560 -0.1161E-03  0.8000E+00
     -3.412  0.5524E-02  0.8008E+00
     -3.265  0.1717E-01  0.8033E+00
     -3.118  0.3410E-01  0.8083E+00
     -2.971  0.8815E-01  0.8213E+00
     -2.824  0.7023E-01  0.8317E+00
     -2.676  0.3129E-01  0.8363E+00
     -2.529  0.7209E-01  0.8469E+00
     -2.382  0.9510E-01  0.8609E+00
     -2.235  0.1334E+00  0.8805E+00
     -2.088  0.1988E+00  0.9098E+00
     -1.941  0.1858E+00  0.9371E+00
     -1.793  0.1898E+00  0.9650E+00
     -1.646  0.2039E+00  0.9950E+00
     -1.499  0.1390E+00  0.1015E+01
     -1.352  0.1941E+00  0.1044E+01
     -1.205  0.1721E+00  0.1069E+01
     -1.058  0.1902E+00  0.1097E+01
     -0.910  0.1143E+00  0.1114E+01
     -0.763  0.1416E+00  0.1135E+01
     -0.616  0.1313E+00  0.1154E+01
     -0.469  0.1259E+00  0.1173E+01
     -0.322  0.1729E+00  0.1198E+01
     -0.175  0.9091E-01  0.1212E+01
     -0.027  0.1496E+00  0.1234E+01
      0.120  0.3359E-01  0.1239E+01
      0.267  0.9486E-01  0.1253E+01
      0.414  0.7699E-01  0.1264E+01
      0.561  0.1871E-01  0.1267E+01
      0.709 -0.4369E-03  0.1267E+01
      0.856  0.3680E-04  0.1267E+01
      1.003  0.6012E-07  0.1267E+01
      1.150  0.6983E-12  0.1267E+01
      1.297  0.8980E-19  0.1267E+01
      1.444  0.0000E+00  0.1267E+01
      1.592  0.0000E+00  0.1267E+01
      1.739  0.0000E+00  0.1267E+01
      1.886  0.0000E+00  0.1267E+01
      2.033  0.0000E+00  0.1267E+01
      2.180  0.0000E+00  0.1267E+01
      2.327  0.1106E-34  0.1267E+01
      2.475  0.1569E-24  0.1267E+01
      2.622  0.2596E-16  0.1267E+01
      2.769  0.4806E-10  0.1267E+01
      2.916  0.9351E-06  0.1267E+01
      3.063  0.1004E-03  0.1267E+01
      3.211  0.4872E-03  0.1267E+01
      3.358  0.4278E-01  0.1273E+01
      3.505  0.1019E+00  0.1288E+01
      3.652  0.1462E+00  0.1310E+01
      3.799  0.1900E+00  0.1338E+01
      3.946  0.1571E+00  0.1361E+01
      4.094  0.1328E+00  0.1380E+01
      4.241  0.1415E+00  0.1401E+01
      4.388  0.1175E+00  0.1418E+01
      4.535  0.1749E+00  0.1444E+01
      4.682  0.1473E+00  0.1466E+01
      4.829  0.1260E+00  0.1484E+01
      4.977  0.1248E+00  0.1503E+01
      5.124  0.1245E+00  0.1521E+01
      5.271  0.9563E-01  0.1535E+01
      5.418  0.1055E+00  0.1551E+01
      5.565  0.1140E+00  0.1567E+01
      5.712  0.1298E+00  0.1586E+01
      5.860  0.1417E+00  0.1607E+01
      6.007  0.1391E+00  0.1628E+01
      6.154  0.1589E+00  0.1651E+01
      6.301  0.1404E+00  0.1672E+01
      6.448  0.1564E+00  0.1695E+01
      6.596  0.1443E+00  0.1716E+01
      6.743  0.1018E+00  0.1731E+01
      6.890  0.1412E-01  0.1733E+01
      7.037  0.1211E-02  0.1733E+01
      7.184 -0.3783E-04  0.1733E+01
      7.331  0.2615E-05  0.1733E+01
      7.479  0.1527E-08  0.1733E+01
      7.626  0.5618E-14  0.1733E+01
      7.773  0.0000E+00  0.1733E+01
      7.920  0.0000E+00  0.1733E+01
      8.067  0.0000E+00  0.1733E+01
      8.214  0.0000E+00  0.1733E+01
      8.362  0.0000E+00  0.1733E+01
      8.509  0.0000E+00  0.1733E+01
      8.656  0.0000E+00  0.1733E+01
      8.803  0.0000E+00  0.1733E+01
      8.950  0.0000E+00  0.1733E+01
