  16  16   0   0
  0.8064601E+01  0.3288409E-09  0.5833811E-09  0.6800320E-09  0.5000000E-15
  1.000000000000000E-004
  CAR 
 unknown system                          
     10.29376591    -36.57736115  301      0.87505030      1.00000000
    -36.577  0.0000E+00  0.0000E+00
    -36.421  0.0000E+00  0.0000E+00
    -36.265  0.0000E+00  0.0000E+00
    -36.109  0.0000E+00  0.0000E+00
    -35.952  0.0000E+00  0.0000E+00
    -35.796  0.0000E+00  0.0000E+00
    -35.640  0.0000E+00  0.0000E+00
    -35.484  0.0000E+00  0.0000E+00
    -35.327  0.4639E-33  0.7248E-34
    -35.171  0.2213E-22  0.3458E-23
    -35.015  0.7013E-14  0.1096E-14
    -34.859  0.1320E-07  0.2063E-08
    -34.703  0.1013E-03  0.1583E-04
    -34.546 -0.3441E-02 -0.5217E-03
    -34.390  0.1030E+00  0.1557E-01
    -34.234  0.1177E+00  0.3396E-01
    -34.078 -0.4146E-02  0.3331E-01
    -33.921  0.1432E-03  0.3333E-01
    -33.765  0.2770E-07  0.3333E-01
    -33.609  0.2068E-13  0.3333E-01
    -33.453  0.0000E+00  0.3333E-01
    -33.296  0.0000E+00  0.3333E-01
    -33.140  0.0000E+00  0.3333E-01
    -32.984  0.0000E+00  0.3333E-01
    -32.828  0.0000E+00  0.3333E-01
    -32.671  0.0000E+00  0.3333E-01
    -32.515  0.0000E+00  0.3333E-01
    -32.359  0.0000E+00  0.3333E-01
    -32.203  0.0000E+00  0.3333E-01
    -32.046  0.0000E+00  0.3333E-01
    -31.890  0.0000E+00  0.3333E-01
    -31.734  0.0000E+00  0.3333E-01
    -31.578  0.0000E+00  0.3333E-01
    -31.422  0.0000E+00  0.3333E-01
    -31.265  0.0000E+00  0.3333E-01
    -31.109  0.3891E-28  0.3333E-01
    -30.953  0.1882E-18  0.3333E-01
    -30.797  0.6139E-11  0.3333E-01
    -30.640  0.1235E-05  0.3333E-01
    -30.484  0.8424E-03  0.3347E-01
    -30.328 -0.4415E-02  0.3278E-01
    -30.172  0.3037E+00  0.8023E-01
    -30.015  0.2716E+00  0.1227E+00
    -29.859  0.6824E-01  0.1333E+00
    -29.703  0.3996E-04  0.1333E+00
    -29.547  0.2654E-04  0.1333E+00
    -29.390  0.1162E-08  0.1333E+00
    -29.234  0.2716E-15  0.1333E+00
    -29.078  0.0000E+00  0.1333E+00
    -28.922  0.0000E+00  0.1333E+00
    -28.766  0.0000E+00  0.1333E+00
    -28.609  0.0000E+00  0.1333E+00
    -28.453  0.0000E+00  0.1333E+00
    -28.297  0.0000E+00  0.1333E+00
    -28.141  0.0000E+00  0.1333E+00
    -27.984  0.0000E+00  0.1333E+00
    -27.828  0.0000E+00  0.1333E+00
    -27.672  0.0000E+00  0.1333E+00
    -27.516  0.0000E+00  0.1333E+00
    -27.359  0.0000E+00  0.1333E+00
    -27.203  0.0000E+00  0.1333E+00
    -27.047  0.0000E+00  0.1333E+00
    -26.891  0.0000E+00  0.1333E+00
    -26.734  0.0000E+00  0.1333E+00
    -26.578  0.0000E+00  0.1333E+00
    -26.422  0.0000E+00  0.1333E+00
    -26.266  0.0000E+00  0.1333E+00
    -26.109  0.0000E+00  0.1333E+00
    -25.953  0.0000E+00  0.1333E+00
    -25.797  0.0000E+00  0.1333E+00
    -25.641  0.0000E+00  0.1333E+00
    -25.485  0.0000E+00  0.1333E+00
    -25.328  0.0000E+00  0.1333E+00
    -25.172  0.0000E+00  0.1333E+00
    -25.016  0.0000E+00  0.1333E+00
    -24.860  0.0000E+00  0.1333E+00
    -24.703  0.0000E+00  0.1333E+00
    -24.547  0.0000E+00  0.1333E+00
    -24.391  0.0000E+00  0.1333E+00
    -24.235  0.0000E+00  0.1333E+00
    -24.078  0.0000E+00  0.1333E+00
    -23.922  0.0000E+00  0.1333E+00
    -23.766  0.0000E+00  0.1333E+00
    -23.610  0.0000E+00  0.1333E+00
    -23.453  0.0000E+00  0.1333E+00
    -23.297  0.0000E+00  0.1333E+00
    -23.141  0.0000E+00  0.1333E+00
    -22.985  0.0000E+00  0.1333E+00
    -22.828  0.0000E+00  0.1333E+00
    -22.672  0.0000E+00  0.1333E+00
    -22.516  0.0000E+00  0.1333E+00
    -22.360  0.0000E+00  0.1333E+00
    -22.204  0.0000E+00  0.1333E+00
    -22.047  0.0000E+00  0.1333E+00
    -21.891  0.0000E+00  0.1333E+00
    -21.735  0.0000E+00  0.1333E+00
    -21.579  0.0000E+00  0.1333E+00
    -21.422  0.0000E+00  0.1333E+00
    -21.266  0.0000E+00  0.1333E+00
    -21.110  0.0000E+00  0.1333E+00
    -20.954  0.0000E+00  0.1333E+00
    -20.797  0.0000E+00  0.1333E+00
    -20.641  0.0000E+00  0.1333E+00
    -20.485  0.0000E+00  0.1333E+00
    -20.329  0.0000E+00  0.1333E+00
    -20.172  0.0000E+00  0.1333E+00
    -20.016  0.0000E+00  0.1333E+00
    -19.860  0.0000E+00  0.1333E+00
    -19.704  0.0000E+00  0.1333E+00
    -19.548  0.0000E+00  0.1333E+00
    -19.391  0.0000E+00  0.1333E+00
    -19.235  0.0000E+00  0.1333E+00
    -19.079  0.0000E+00  0.1333E+00
    -18.923  0.0000E+00  0.1333E+00
    -18.766  0.0000E+00  0.1333E+00
    -18.610  0.0000E+00  0.1333E+00
    -18.454  0.0000E+00  0.1333E+00
    -18.298  0.0000E+00  0.1333E+00
    -18.141  0.3032E-36  0.1333E+00
    -17.985  0.4361E-25  0.1333E+00
    -17.829  0.4183E-16  0.1333E+00
    -17.673  0.2426E-09  0.1333E+00
    -17.516  0.6322E-05  0.1333E+00
    -17.360 -0.1599E-03  0.1333E+00
    -17.204  0.1310E-01  0.1354E+00
    -17.048  0.4036E-01  0.1417E+00
    -16.891  0.3536E-01  0.1472E+00
    -16.735 -0.1921E-02  0.1469E+00
    -16.579  0.1035E+00  0.1631E+00
    -16.423  0.1994E+00  0.1942E+00
    -16.267  0.1779E+00  0.2220E+00
    -16.110  0.4850E-01  0.2296E+00
    -15.954  0.2472E-01  0.2334E+00
    -15.798 -0.7736E-03  0.2333E+00
    -15.642  0.2980E-04  0.2333E+00
    -15.485  0.5127E-08  0.2333E+00
    -15.329  0.3123E-14  0.2333E+00
    -15.173  0.0000E+00  0.2333E+00
    -15.017  0.0000E+00  0.2333E+00
    -14.860  0.0000E+00  0.2333E+00
    -14.704  0.0000E+00  0.2333E+00
    -14.548  0.0000E+00  0.2333E+00
    -14.392  0.0000E+00  0.2333E+00
    -14.235  0.0000E+00  0.2333E+00
    -14.079  0.0000E+00  0.2333E+00
    -13.923  0.0000E+00  0.2333E+00
    -13.767  0.0000E+00  0.2333E+00
    -13.611  0.0000E+00  0.2333E+00
    -13.454  0.0000E+00  0.2333E+00
    -13.298  0.0000E+00  0.2333E+00
    -13.142  0.0000E+00  0.2333E+00
    -12.986  0.0000E+00  0.2333E+00
    -12.829  0.0000E+00  0.2333E+00
    -12.673  0.0000E+00  0.2333E+00
    -12.517  0.0000E+00  0.2333E+00
    -12.361  0.0000E+00  0.2333E+00
    -12.204  0.0000E+00  0.2333E+00
    -12.048  0.0000E+00  0.2333E+00
    -11.892  0.0000E+00  0.2333E+00
    -11.736  0.0000E+00  0.2333E+00
    -11.579  0.0000E+00  0.2333E+00
    -11.423  0.0000E+00  0.2333E+00
    -11.267  0.0000E+00  0.2333E+00
    -11.111  0.0000E+00  0.2333E+00
    -10.954  0.0000E+00  0.2333E+00
    -10.798  0.0000E+00  0.2333E+00
    -10.642  0.0000E+00  0.2333E+00
    -10.486  0.0000E+00  0.2333E+00
    -10.330  0.0000E+00  0.2333E+00
    -10.173  0.0000E+00  0.2333E+00
    -10.017  0.0000E+00  0.2333E+00
     -9.861  0.0000E+00  0.2333E+00
     -9.705  0.6380E-40  0.2333E+00
     -9.548  0.2200E-28  0.2333E+00
     -9.392  0.5025E-19  0.2333E+00
     -9.236  0.6998E-12  0.2333E+00
     -9.080  0.4875E-07  0.2333E+00
     -8.923  0.9129E-05  0.2333E+00
     -8.767  0.6838E-05  0.2333E+00
     -8.611  0.6405E-02  0.2343E+00
     -8.455  0.1262E-01  0.2363E+00
     -8.298  0.2220E-01  0.2398E+00
     -8.142  0.2480E-01  0.2437E+00
     -7.986  0.2535E-01  0.2476E+00
     -7.830  0.1896E-01  0.2506E+00
     -7.673  0.1473E-01  0.2529E+00
     -7.517  0.1867E-01  0.2558E+00
     -7.361  0.1616E-01  0.2583E+00
     -7.205  0.2501E-01  0.2622E+00
     -7.049  0.3141E-01  0.2671E+00
     -6.892  0.3770E-01  0.2730E+00
     -6.736  0.2486E-01  0.2769E+00
     -6.580  0.1465E-01  0.2792E+00
     -6.424  0.2533E-01  0.2832E+00
     -6.267  0.2830E-01  0.2876E+00
     -6.111  0.6631E-01  0.2979E+00
     -5.955  0.6067E-01  0.3074E+00
     -5.799  0.6668E-01  0.3178E+00
     -5.642  0.7255E-01  0.3292E+00
     -5.486  0.3976E-01  0.3354E+00
     -5.330  0.5163E-01  0.3434E+00
     -5.174  0.3608E-01  0.3491E+00
     -5.017  0.6616E-01  0.3594E+00
     -4.861  0.2895E-01  0.3639E+00
     -4.705  0.3670E-01  0.3697E+00
     -4.549  0.3416E-01  0.3750E+00
     -4.393  0.3804E-01  0.3810E+00
     -4.236  0.5139E-01  0.3890E+00
     -4.080  0.4754E-01  0.3964E+00
     -3.924  0.2388E-01  0.4001E+00
     -3.768  0.1484E-01  0.4025E+00
     -3.611  0.5315E-01  0.4108E+00
     -3.455  0.7671E-01  0.4228E+00
     -3.299  0.7158E-01  0.4339E+00
     -3.143  0.1651E-01  0.4365E+00
     -2.986  0.2777E-01  0.4409E+00
     -2.830  0.7420E-01  0.4524E+00
     -2.674  0.1009E+00  0.4682E+00
     -2.518  0.6139E-01  0.4778E+00
     -2.361  0.1187E+00  0.4964E+00
     -2.205  0.6786E-01  0.5070E+00
     -2.049  0.9713E-01  0.5221E+00
     -1.893  0.3961E-01  0.5283E+00
     -1.736  0.5679E-01  0.5372E+00
     -1.580  0.5398E-01  0.5456E+00
     -1.424  0.3577E-01  0.5512E+00
     -1.268  0.1843E-01  0.5541E+00
     -1.112  0.1991E-01  0.5572E+00
     -0.955  0.7416E-02  0.5584E+00
     -0.799  0.8646E-03  0.5585E+00
     -0.643  0.1924E-01  0.5615E+00
     -0.487  0.1847E-01  0.5644E+00
     -0.330  0.1354E-01  0.5665E+00
     -0.174  0.9107E-02  0.5679E+00
     -0.018  0.2213E-01  0.5714E+00
      0.138  0.1838E-01  0.5743E+00
      0.295  0.1372E-01  0.5764E+00
      0.451  0.1923E-01  0.5794E+00
      0.607  0.7642E-02  0.5806E+00
      0.763 -0.8270E-03  0.5805E+00
      0.920  0.2635E-01  0.5846E+00
      1.076  0.1005E-01  0.5862E+00
      1.232 -0.1849E-03  0.5861E+00
      1.388  0.1151E-02  0.5863E+00
      1.544  0.3365E-01  0.5916E+00
      1.701  0.4094E-03  0.5916E+00
      1.857  0.1017E-01  0.5932E+00
      2.013  0.5816E-01  0.6023E+00
      2.169  0.6580E-01  0.6126E+00
      2.326  0.6048E-01  0.6220E+00
      2.482  0.4677E-01  0.6293E+00
      2.638  0.2937E-01  0.6339E+00
      2.794  0.1619E-01  0.6365E+00
      2.951  0.1775E-01  0.6392E+00
      3.107  0.2749E-01  0.6435E+00
      3.263  0.1931E-01  0.6465E+00
      3.419  0.3051E-01  0.6513E+00
      3.576  0.4665E-01  0.6586E+00
      3.732  0.6215E-01  0.6683E+00
      3.888  0.6367E-01  0.6783E+00
      4.044  0.5284E-01  0.6865E+00
      4.201  0.5714E-01  0.6954E+00
      4.357  0.4974E-01  0.7032E+00
      4.513  0.7529E-01  0.7150E+00
      4.669  0.6303E-01  0.7248E+00
      4.825  0.5766E-01  0.7338E+00
      4.982  0.6840E-01  0.7445E+00
      5.138  0.6545E-01  0.7547E+00
      5.294  0.5038E-01  0.7626E+00
      5.450  0.4254E-01  0.7693E+00
      5.607  0.6230E-01  0.7790E+00
      5.763  0.7585E-01  0.7908E+00
      5.919  0.6511E-01  0.8010E+00
      6.075  0.6244E-01  0.8108E+00
      6.232  0.7535E-01  0.8225E+00
      6.388  0.6688E-01  0.8330E+00
      6.544  0.8179E-01  0.8458E+00
      6.700  0.9999E-01  0.8614E+00
      6.857  0.7853E-01  0.8737E+00
      7.013  0.1025E+00  0.8897E+00
      7.169  0.9518E-01  0.9046E+00
      7.325  0.8557E-01  0.9179E+00
      7.481  0.5717E-01  0.9269E+00
      7.638  0.2115E-01  0.9302E+00
      7.794  0.1308E-01  0.9322E+00
      7.950  0.5546E-02  0.9331E+00
      8.106  0.1228E-02  0.9333E+00
      8.263  0.4398E-03  0.9333E+00
      8.419 -0.1846E-04  0.9333E+00
      8.575  0.7395E-06  0.9333E+00
      8.731  0.1431E-09  0.9333E+00
      8.888  0.9385E-16  0.9333E+00
      9.044  0.0000E+00  0.9333E+00
      9.200  0.0000E+00  0.9333E+00
      9.356  0.0000E+00  0.9333E+00
      9.513  0.0000E+00  0.9333E+00
      9.669  0.0000E+00  0.9333E+00
      9.825  0.0000E+00  0.9333E+00
      9.981  0.0000E+00  0.9333E+00
     10.138  0.0000E+00  0.9333E+00
     10.294  0.0000E+00  0.9333E+00
