  20  20   0   0
  0.7161198E+01  0.3447495E-09  0.7030828E-09  0.5981558E-09  0.5000000E-15
  1.000000000000000E-004
  CAR 
 unknown system                          
     10.29596970    -36.31692725  301      0.95276507      1.00000000
    -36.317  0.0000E+00  0.0000E+00
    -36.162  0.0000E+00  0.0000E+00
    -36.006  0.0000E+00  0.0000E+00
    -35.851  0.0000E+00  0.0000E+00
    -35.695  0.0000E+00  0.0000E+00
    -35.540  0.0000E+00  0.0000E+00
    -35.385  0.0000E+00  0.0000E+00
    -35.229  0.0000E+00  0.0000E+00
    -35.074  0.1305E-32  0.2028E-33
    -34.919  0.4721E-22  0.7336E-23
    -34.763  0.1197E-13  0.1859E-14
    -34.608  0.1904E-07  0.2959E-08
    -34.452  0.1318E-03  0.2049E-04
    -34.297 -0.4596E-02 -0.6937E-03
    -34.142  0.1340E+00  0.2012E-01
    -33.986  0.8677E-01  0.3361E-01
    -33.831 -0.1805E-02  0.3333E-01
    -33.676  0.4895E-04  0.3333E-01
    -33.520  0.2843E-08  0.3333E-01
    -33.365  0.7944E-15  0.3333E-01
    -33.209  0.0000E+00  0.3333E-01
    -33.054  0.0000E+00  0.3333E-01
    -32.899  0.0000E+00  0.3333E-01
    -32.743  0.0000E+00  0.3333E-01
    -32.588  0.0000E+00  0.3333E-01
    -32.433  0.0000E+00  0.3333E-01
    -32.277  0.0000E+00  0.3333E-01
    -32.122  0.0000E+00  0.3333E-01
    -31.966  0.0000E+00  0.3333E-01
    -31.811  0.0000E+00  0.3333E-01
    -31.656  0.0000E+00  0.3333E-01
    -31.500  0.0000E+00  0.3333E-01
    -31.345  0.0000E+00  0.3333E-01
    -31.190  0.0000E+00  0.3333E-01
    -31.034  0.0000E+00  0.3333E-01
    -30.879  0.4723E-32  0.3333E-01
    -30.723  0.1572E-21  0.3333E-01
    -30.568  0.3688E-13  0.3333E-01
    -30.413  0.5415E-07  0.3333E-01
    -30.257  0.3234E-03  0.3338E-01
    -30.102 -0.1055E-01  0.3174E-01
    -29.946  0.2411E+00  0.6920E-01
    -29.791  0.3533E+00  0.1241E+00
    -29.636  0.6110E-01  0.1336E+00
    -29.480 -0.1652E-02  0.1333E+00
    -29.325  0.7428E-04  0.1333E+00
    -29.170  0.1129E-07  0.1333E+00
    -29.014  0.7362E-14  0.1333E+00
    -28.859  0.0000E+00  0.1333E+00
    -28.703  0.0000E+00  0.1333E+00
    -28.548  0.0000E+00  0.1333E+00
    -28.393  0.0000E+00  0.1333E+00
    -28.237  0.0000E+00  0.1333E+00
    -28.082  0.0000E+00  0.1333E+00
    -27.927  0.0000E+00  0.1333E+00
    -27.771  0.0000E+00  0.1333E+00
    -27.616  0.0000E+00  0.1333E+00
    -27.460  0.0000E+00  0.1333E+00
    -27.305  0.0000E+00  0.1333E+00
    -27.150  0.0000E+00  0.1333E+00
    -26.994  0.0000E+00  0.1333E+00
    -26.839  0.0000E+00  0.1333E+00
    -26.684  0.0000E+00  0.1333E+00
    -26.528  0.0000E+00  0.1333E+00
    -26.373  0.0000E+00  0.1333E+00
    -26.217  0.0000E+00  0.1333E+00
    -26.062  0.0000E+00  0.1333E+00
    -25.907  0.0000E+00  0.1333E+00
    -25.751  0.0000E+00  0.1333E+00
    -25.596  0.0000E+00  0.1333E+00
    -25.441  0.0000E+00  0.1333E+00
    -25.285  0.0000E+00  0.1333E+00
    -25.130  0.0000E+00  0.1333E+00
    -24.974  0.0000E+00  0.1333E+00
    -24.819  0.0000E+00  0.1333E+00
    -24.664  0.0000E+00  0.1333E+00
    -24.508  0.0000E+00  0.1333E+00
    -24.353  0.0000E+00  0.1333E+00
    -24.198  0.0000E+00  0.1333E+00
    -24.042  0.0000E+00  0.1333E+00
    -23.887  0.0000E+00  0.1333E+00
    -23.731  0.0000E+00  0.1333E+00
    -23.576  0.0000E+00  0.1333E+00
    -23.421  0.0000E+00  0.1333E+00
    -23.265  0.0000E+00  0.1333E+00
    -23.110  0.0000E+00  0.1333E+00
    -22.955  0.0000E+00  0.1333E+00
    -22.799  0.0000E+00  0.1333E+00
    -22.644  0.0000E+00  0.1333E+00
    -22.488  0.0000E+00  0.1333E+00
    -22.333  0.0000E+00  0.1333E+00
    -22.178  0.0000E+00  0.1333E+00
    -22.022  0.0000E+00  0.1333E+00
    -21.867  0.0000E+00  0.1333E+00
    -21.712  0.0000E+00  0.1333E+00
    -21.556  0.0000E+00  0.1333E+00
    -21.401  0.0000E+00  0.1333E+00
    -21.245  0.0000E+00  0.1333E+00
    -21.090  0.0000E+00  0.1333E+00
    -20.935  0.0000E+00  0.1333E+00
    -20.779  0.0000E+00  0.1333E+00
    -20.624  0.0000E+00  0.1333E+00
    -20.469  0.0000E+00  0.1333E+00
    -20.313  0.0000E+00  0.1333E+00
    -20.158  0.0000E+00  0.1333E+00
    -20.002  0.0000E+00  0.1333E+00
    -19.847  0.0000E+00  0.1333E+00
    -19.692  0.0000E+00  0.1333E+00
    -19.536  0.0000E+00  0.1333E+00
    -19.381  0.0000E+00  0.1333E+00
    -19.226  0.0000E+00  0.1333E+00
    -19.070  0.0000E+00  0.1333E+00
    -18.915  0.0000E+00  0.1333E+00
    -18.759  0.0000E+00  0.1333E+00
    -18.604  0.0000E+00  0.1333E+00
    -18.449  0.0000E+00  0.1333E+00
    -18.293  0.0000E+00  0.1333E+00
    -18.138  0.0000E+00  0.1333E+00
    -17.983  0.0000E+00  0.1333E+00
    -17.827  0.0000E+00  0.1333E+00
    -17.672  0.4494E-29  0.1333E+00
    -17.516  0.2647E-19  0.1333E+00
    -17.361  0.1045E-11  0.1333E+00
    -17.206  0.2330E-06  0.1333E+00
    -17.050  0.1385E-03  0.1334E+00
    -16.895 -0.5295E-03  0.1333E+00
    -16.740  0.5094E-01  0.1412E+00
    -16.584  0.3421E-01  0.1465E+00
    -16.429  0.5897E-01  0.1557E+00
    -16.273  0.1799E+00  0.1836E+00
    -16.118  0.2018E+00  0.2150E+00
    -15.963  0.8665E-01  0.2284E+00
    -15.807  0.3250E-01  0.2335E+00
    -15.652 -0.1028E-02  0.2333E+00
    -15.496  0.4386E-04  0.2333E+00
    -15.341  0.1139E-07  0.2333E+00
    -15.186  0.1091E-13  0.2333E+00
    -15.030  0.0000E+00  0.2333E+00
    -14.875  0.0000E+00  0.2333E+00
    -14.720  0.0000E+00  0.2333E+00
    -14.564  0.0000E+00  0.2333E+00
    -14.409  0.0000E+00  0.2333E+00
    -14.253  0.0000E+00  0.2333E+00
    -14.098  0.0000E+00  0.2333E+00
    -13.943  0.0000E+00  0.2333E+00
    -13.787  0.0000E+00  0.2333E+00
    -13.632  0.0000E+00  0.2333E+00
    -13.477  0.0000E+00  0.2333E+00
    -13.321  0.0000E+00  0.2333E+00
    -13.166  0.0000E+00  0.2333E+00
    -13.010  0.0000E+00  0.2333E+00
    -12.855  0.0000E+00  0.2333E+00
    -12.700  0.0000E+00  0.2333E+00
    -12.544  0.0000E+00  0.2333E+00
    -12.389  0.0000E+00  0.2333E+00
    -12.234  0.0000E+00  0.2333E+00
    -12.078  0.0000E+00  0.2333E+00
    -11.923  0.0000E+00  0.2333E+00
    -11.767  0.0000E+00  0.2333E+00
    -11.612  0.0000E+00  0.2333E+00
    -11.457  0.0000E+00  0.2333E+00
    -11.301  0.0000E+00  0.2333E+00
    -11.146  0.0000E+00  0.2333E+00
    -10.991  0.0000E+00  0.2333E+00
    -10.835  0.0000E+00  0.2333E+00
    -10.680  0.0000E+00  0.2333E+00
    -10.524  0.3571E-38  0.2333E+00
    -10.369  0.5382E-27  0.2333E+00
    -10.214  0.5636E-18  0.2333E+00
    -10.058  0.3761E-11  0.2333E+00
     -9.903  0.1312E-06  0.2333E+00
     -9.748  0.1087E-04  0.2333E+00
     -9.592  0.1483E-03  0.2334E+00
     -9.437  0.7854E-02  0.2346E+00
     -9.281  0.1483E-01  0.2369E+00
     -9.126  0.2077E-01  0.2401E+00
     -8.971  0.2233E-01  0.2436E+00
     -8.815  0.2366E-01  0.2473E+00
     -8.660  0.1941E-01  0.2503E+00
     -8.505  0.1539E-01  0.2527E+00
     -8.349  0.3241E-01  0.2577E+00
     -8.194  0.2101E-01  0.2610E+00
     -8.038  0.3430E-01  0.2663E+00
     -7.883  0.4279E-01  0.2729E+00
     -7.728  0.3271E-01  0.2780E+00
     -7.572  0.3889E-01  0.2841E+00
     -7.417  0.3771E-01  0.2899E+00
     -7.262  0.4956E-01  0.2976E+00
     -7.106  0.3627E-01  0.3033E+00
     -6.951  0.2189E-01  0.3067E+00
     -6.795  0.3842E-01  0.3126E+00
     -6.640  0.4301E-01  0.3193E+00
     -6.485  0.7954E-01  0.3317E+00
     -6.329  0.6296E-01  0.3415E+00
     -6.174  0.6756E-01  0.3520E+00
     -6.019  0.7294E-01  0.3633E+00
     -5.863  0.2637E-01  0.3674E+00
     -5.708  0.4087E-01  0.3737E+00
     -5.552  0.6685E-01  0.3841E+00
     -5.397  0.5742E-01  0.3930E+00
     -5.242  0.4939E-01  0.4007E+00
     -5.086  0.5134E-01  0.4087E+00
     -4.931  0.7797E-01  0.4208E+00
     -4.776  0.4904E-01  0.4284E+00
     -4.620  0.3132E-01  0.4333E+00
     -4.465  0.1556E-01  0.4357E+00
     -4.309  0.4351E-01  0.4425E+00
     -4.154  0.7089E-01  0.4535E+00
     -3.999  0.3411E-01  0.4588E+00
     -3.843  0.4094E-01  0.4651E+00
     -3.688  0.1895E-01  0.4681E+00
     -3.533  0.4406E-01  0.4749E+00
     -3.377  0.6760E-01  0.4854E+00
     -3.222  0.9708E-01  0.5005E+00
     -3.066  0.1265E+00  0.5202E+00
     -2.911  0.8207E-01  0.5329E+00
     -2.756  0.2346E-02  0.5333E+00
     -2.600  0.9042E-02  0.5347E+00
     -2.445  0.5723E-01  0.5436E+00
     -2.290  0.1036E+00  0.5597E+00
     -2.134  0.4324E-01  0.5664E+00
     -1.979  0.6687E-01  0.5768E+00
     -1.823  0.1016E+00  0.5926E+00
     -1.668  0.4679E-01  0.5999E+00
     -1.513  0.2176E-01  0.6032E+00
     -1.357  0.6363E-01  0.6131E+00
     -1.202  0.4531E-02  0.6138E+00
     -1.047  0.1961E-01  0.6169E+00
     -0.891  0.1686E-01  0.6195E+00
     -0.736 -0.3650E-03  0.6194E+00
     -0.580 -0.3336E-03  0.6194E+00
     -0.425  0.1079E-01  0.6211E+00
     -0.270  0.1981E-01  0.6241E+00
     -0.114  0.2477E-01  0.6280E+00
      0.041  0.2718E-01  0.6322E+00
      0.197  0.6984E-02  0.6333E+00
      0.352  0.2421E-01  0.6371E+00
      0.507  0.2570E-01  0.6411E+00
      0.663  0.7997E-02  0.6423E+00
      0.818  0.2060E-01  0.6455E+00
      0.973  0.2961E-01  0.6501E+00
      1.129  0.3701E-02  0.6507E+00
      1.284  0.4265E-03  0.6507E+00
      1.440  0.2004E-01  0.6539E+00
      1.595  0.2147E-01  0.6572E+00
      1.750  0.9111E-02  0.6586E+00
      1.906  0.1608E-01  0.6611E+00
      2.061  0.3455E-01  0.6665E+00
      2.216  0.4381E-02  0.6672E+00
      2.372  0.1502E-01  0.6695E+00
      2.527 -0.9366E-03  0.6693E+00
      2.683  0.1773E-01  0.6721E+00
      2.838  0.9433E-02  0.6736E+00
      2.993  0.4647E-02  0.6743E+00
      3.149  0.1869E-01  0.6772E+00
      3.304  0.4113E-01  0.6836E+00
      3.459  0.7033E-01  0.6945E+00
      3.615  0.8991E-01  0.7085E+00
      3.770  0.1103E+00  0.7256E+00
      3.926  0.8001E-01  0.7381E+00
      4.081  0.5512E-01  0.7466E+00
      4.236  0.7709E-01  0.7586E+00
      4.392  0.8502E-01  0.7718E+00
      4.547  0.7883E-01  0.7841E+00
      4.702  0.8756E-01  0.7977E+00
      4.858  0.6944E-01  0.8085E+00
      5.013  0.7586E-01  0.8202E+00
      5.169  0.8654E-01  0.8337E+00
      5.324  0.5450E-01  0.8422E+00
      5.479  0.6400E-01  0.8521E+00
      5.635  0.8050E-01  0.8646E+00
      5.790  0.6827E-01  0.8752E+00
      5.945  0.7657E-01  0.8871E+00
      6.101  0.7667E-01  0.8990E+00
      6.256  0.8301E-01  0.9119E+00
      6.412  0.7034E-01  0.9228E+00
      6.567  0.9990E-01  0.9384E+00
      6.722  0.8377E-01  0.9514E+00
      6.878  0.8879E-01  0.9652E+00
      7.033  0.1054E+00  0.9816E+00
      7.188  0.8885E-01  0.9954E+00
      7.344  0.9630E-01  0.1010E+01
      7.499  0.1072E+00  0.1027E+01
      7.655  0.9055E-01  0.1041E+01
      7.810  0.8546E-01  0.1054E+01
      7.965  0.4327E-01  0.1061E+01
      8.121  0.2875E-01  0.1066E+01
      8.276  0.7563E-02  0.1067E+01
      8.431 -0.1723E-03  0.1067E+01
      8.587  0.5883E-05  0.1067E+01
      8.742  0.6403E-09  0.1067E+01
      8.898  0.3678E-15  0.1067E+01
      9.053  0.0000E+00  0.1067E+01
      9.208  0.0000E+00  0.1067E+01
      9.364  0.0000E+00  0.1067E+01
      9.519  0.0000E+00  0.1067E+01
      9.674  0.0000E+00  0.1067E+01
      9.830  0.0000E+00  0.1067E+01
      9.985  0.0000E+00  0.1067E+01
     10.141  0.0000E+00  0.1067E+01
     10.296  0.0000E+00  0.1067E+01
