 running on   32 total cores
 distrk:  each k-point on   32 cores,    1 groups
 distr:  one band on    8 cores,    4 groups
 using from now: INCAR     
 vasp.5.4.4.18Apr17-6-g9f103f2a35 (build Nov 01 2019 12:17:22) complex          
  
 POSCAR found type information on POSCAR  H  Nb H  Sr H  Sr H 
 POSCAR found :  7 types and      10 ions
 LDA part: xc-table for Pade appr. of Perdew
 generate k-points for:   14    7    6
 POSCAR, INCAR and KPOINTS ok, starting setup
 FFT: planning ...
 WAVECAR not read
 entering main loop
       N       E                     dE             d eps       ncg     rms          rms(c)
DAV:   1     0.171390089139E+03    0.17139E+03   -0.12871E+04 17144   0.730E+02
DAV:   2    -0.252337511185E+02   -0.19662E+03   -0.19205E+03 20820   0.288E+02
DAV:   3    -0.396003982370E+02   -0.14367E+02   -0.14268E+02 27668   0.579E+01
DAV:   4    -0.404430899023E+02   -0.84269E+00   -0.84062E+00 26276   0.120E+01
DAV:   5    -0.404631736409E+02   -0.20084E-01   -0.20079E-01 26944   0.179E+00    0.338E+01
DAV:   6    -0.378735978971E+02    0.25896E+01   -0.67343E+00 24648   0.133E+01    0.157E+01
DAV:   7    -0.372470653809E+02    0.62653E+00   -0.22817E+00 23280   0.577E+00    0.753E+00
DAV:   8    -0.372288510584E+02    0.18214E-01   -0.57165E-01 27360   0.355E+00    0.268E+00
DAV:   9    -0.372253408381E+02    0.35102E-02   -0.47657E-02 20276   0.119E+00    0.547E-01
DAV:  10    -0.372245792699E+02    0.76157E-03   -0.14181E-02 23680   0.525E-01    0.211E-01
DAV:  11    -0.372253801597E+02   -0.80089E-03   -0.11227E-03 21940   0.188E-01    0.741E-02
DAV:  12    -0.372256739022E+02   -0.29374E-03   -0.32684E-04 18456   0.830E-02    0.476E-02
DAV:  13    -0.372257301259E+02   -0.56224E-04   -0.58432E-05 15620   0.408E-02
   1 F= -.37225730E+02 E0= -.37225835E+02  d E =-.372257E+02
 curvature:   0.00 expect dE= 0.000E+00 dE for cont linesearch  0.000E+00
 trial: gam= 0.00000 g(F)=  0.204E-02 g(S)=  0.532E-03 ort = 0.000E+00 (trialstep = 0.100E+01)
 search vector abs. value=  0.258E-02
 bond charge predicted
       N       E                     dE             d eps       ncg     rms          rms(c)
DAV:   1    -0.372268274668E+02   -0.11536E-02   -0.99605E-02 19996   0.215E+00    0.273E-01
DAV:   2    -0.372265848592E+02    0.24261E-03   -0.86896E-03 20176   0.567E-01    0.127E-01
DAV:   3    -0.372263512933E+02    0.23357E-03   -0.68313E-04 23080   0.143E-01    0.596E-02
DAV:   4    -0.372263152909E+02    0.36002E-04   -0.16211E-04 14252   0.749E-02
   2 F= -.37226315E+02 E0= -.37226412E+02  d E =-.585165E-03
 trial-energy change:   -0.000585  1 .order   -0.000619   -0.002576    0.001338
 step:   0.6582(harm=  0.6582)  dis= 0.00350  next Energy=   -37.226578 (dE=-0.848E-03)
 bond charge predicted
       N       E                     dE             d eps       ncg     rms          rms(c)
DAV:   1    -0.372266195665E+02   -0.26827E-03   -0.11908E-02 19944   0.733E-01    0.106E-01
DAV:   2    -0.372266210270E+02   -0.14605E-05   -0.10804E-03 20484   0.197E-01    0.530E-02
DAV:   3    -0.372265998079E+02    0.21219E-04   -0.66060E-05 10972   0.484E-02
   3 F= -.37226600E+02 E0= -.37226699E+02  d E =-.869682E-03
 curvature:  -0.33 expect dE=-0.214E-03 dE for cont linesearch -0.533E-05
 trial: gam= 0.33168 g(F)=  0.616E-03 g(S)=  0.344E-04 ort =-0.204E-03 (trialstep = 0.932E+00)
 search vector abs. value=  0.798E-03
 reached required accuracy - stopping structural energy minimisation
