   12   12   60    1
  0.1149006E+02  0.5649594E-09  0.4023229E-09  0.6075963E-09  0.5000000E-15
  1.000000000000000E-004
  CAR 
 unknown system                          
     40    246     28
 
  0.3742002E-15  0.3742002E-15  0.3742002E-15  0.2040816E-02
    1      -33.675040   1.000000
    2      -33.446074   1.000000
    3      -29.697282   1.000000
    4      -29.580873   1.000000
    5      -29.525630   1.000000
    6      -15.810405   1.000000
    7      -15.759962   1.000000
    8      -15.657454   1.000000
    9      -15.540353   1.000000
   10      -15.470173   1.000000
   11      -15.444139   1.000000
   12       -6.465494   1.000000
   13       -3.443749   1.000000
   14       -3.210205   1.000000
   15       -2.413224   1.000000
   16       -2.096600   1.000000
   17       -1.807746   1.000000
   18       -1.034253   1.000000
   19       -0.776907   1.000000
   20       -0.641635   1.000000
   21        3.791714   0.000000
   22        3.888062   0.000000
   23        3.924398   0.000000
   24        4.656814   0.000000
   25        4.920790   0.000000
   26        5.556326   0.000000
   27        6.160555   0.000000
   28        6.444963   0.000000
 
  0.1428571E+00  0.3741040E-15  0.3755676E-15  0.4081633E-02
    1      -33.674907   1.000000
    2      -33.446368   1.000000
    3      -29.697197   1.000000
    4      -29.580360   1.000000
    5      -29.525561   1.000000
    6      -15.808159   1.000000
    7      -15.756901   1.000000
    8      -15.656826   1.000000
    9      -15.552263   1.000000
   10      -15.471870   1.000000
   11      -15.445067   1.000000
   12       -6.372511   1.000000
   13       -3.430603   1.000000
   14       -3.207842   1.000000
   15       -2.612996   1.000000
   16       -2.064361   1.000000
   17       -1.800354   1.000000
   18       -1.045063   1.000000
   19       -0.727810   1.000000
   20       -0.539405   1.000000
   21        3.645771   0.000000
   22        3.842169   0.000000
   23        3.936084   0.000000
   24        4.472842   0.000000
   25        5.038721   0.000000
   26        5.528233   0.000000
   27        6.201500   0.000000
   28        6.367889   0.000000
 
  0.2857143E+00  0.3757845E-15  0.3799044E-15  0.4081633E-02
    1      -33.674613   1.000000
    2      -33.447046   1.000000
    3      -29.697232   1.000000
    4      -29.579469   1.000000
    5      -29.525549   1.000000
    6      -15.804567   1.000000
    7      -15.746176   1.000000
    8      -15.655510   1.000000
    9      -15.581995   1.000000
   10      -15.475970   1.000000
   11      -15.447346   1.000000
   12       -6.136972   1.000000
   13       -3.417060   1.000000
   14       -3.211706   1.000000
   15       -3.022304   1.000000
   16       -2.002459   1.000000
   17       -1.776300   1.000000
   18       -1.045441   1.000000
   19       -0.689459   1.000000
   20       -0.309887   1.000000
   21        3.330588   0.000000
   22        3.743704   0.000000
   23        3.998167   0.000000
   24        4.251974   0.000000
   25        5.087072   0.000000
   26        5.450266   0.000000
   27        5.971262   0.000000
   28        6.365859   0.000000
 
  0.4285714E+00  0.3815307E-15  0.3712308E-15  0.4081633E-02
    1      -33.674380   1.000000
    2      -33.447592   1.000000
    3      -29.697261   1.000000
    4      -29.578788   1.000000
    5      -29.525559   1.000000
    6      -15.803150   1.000000
    7      -15.731734   1.000000
    8      -15.653819   1.000000
    9      -15.611008   1.000000
   10      -15.479505   1.000000
   11      -15.449272   1.000000
   12       -5.905568   1.000000
   13       -3.512386   1.000000
   14       -3.310141   1.000000
   15       -3.167906   1.000000
   16       -1.939188   1.000000
   17       -1.763655   1.000000
   18       -1.033666   1.000000
   19       -0.682509   1.000000
   20       -0.137084   0.999655
   21        3.147355   0.000000
   22        3.570793   0.000000
   23        3.987329   0.000000
   24        4.325532   0.000000
   25        4.942035   0.000000
   26        5.349686   0.000000
   27        5.671257   0.000000
   28        6.201992   0.000000
 
  0.3750230E-15  0.1000000E+00  0.3755676E-15  0.4081633E-02
    1      -33.673887   1.000000
    2      -33.444967   1.000000
    3      -29.701288   1.000000
    4      -29.580357   1.000000
    5      -29.525273   1.000000
    6      -15.807996   1.000000
    7      -15.757196   1.000000
    8      -15.681553   1.000000
    9      -15.538655   1.000000
   10      -15.480913   1.000000
   11      -15.454377   1.000000
   12       -6.349673   1.000000
   13       -3.399426   1.000000
   14       -3.161831   1.000000
   15       -2.365110   1.000000
   16       -2.104171   1.000000
   17       -1.831149   1.000000
   18       -1.135347   1.000000
   19       -0.849242   1.000000
   20       -0.643307   1.000000
   21        3.660915   0.000000
   22        3.769779   0.000000
   23        3.974646   0.000000
   24        4.735142   0.000000
   25        4.907552   0.000000
   26        5.552483   0.000000
   27        6.169916   0.000000
   28        6.333792   0.000000
 
  0.1428571E+00  0.1000000E+00  0.3768687E-15  0.4081633E-02
    1      -33.673756   1.000000
    2      -33.445200   1.000000
    3      -29.701422   1.000000
    4      -29.580024   1.000000
    5      -29.525210   1.000000
    6      -15.805917   1.000000
    7      -15.753982   1.000000
    8      -15.680396   1.000000
    9      -15.550083   1.000000
   10      -15.481382   1.000000
   11      -15.456264   1.000000
   12       -6.265754   1.000000
   13       -3.378369   1.000000
   14       -3.170130   1.000000
   15       -2.545608   1.000000
   16       -2.096982   1.000000
   17       -1.824607   1.000000
   18       -1.100779   1.000000
   19       -0.841210   1.000000
   20       -0.544549   1.000000
   21        3.574587   0.000000
   22        3.796867   0.000000
   23        4.000425   0.000000
   24        4.400925   0.000000
   25        4.777465   0.000000
   26        5.614602   0.000000
   27        6.178485   0.000000
   28        6.515455   0.000000
 
  0.2857143E+00  0.1000000E+00  0.3799044E-15  0.4081633E-02
    1      -33.673462   1.000000
    2      -33.445804   1.000000
    3      -29.701442   1.000000
    4      -29.579201   1.000000
    5      -29.525151   1.000000
    6      -15.802317   1.000000
    7      -15.743682   1.000000
    8      -15.678226   1.000000
    9      -15.578497   1.000000
   10      -15.483558   1.000000
   11      -15.459660   1.000000
   12       -6.040664   1.000000
   13       -3.359644   1.000000
   14       -3.173352   1.000000
   15       -2.963925   1.000000
   16       -2.027832   1.000000
   17       -1.796544   1.000000
   18       -1.120026   1.000000
   19       -0.799965   1.000000
   20       -0.306894   1.000000
   21        3.391922   0.000000
   22        3.698857   0.000000
   23        3.994801   0.000000
   24        4.218087   0.000000
   25        4.631898   0.000000
   26        5.590263   0.000000
   27        5.914642   0.000000
   28        6.220394   0.000000
 
  0.4285714E+00  0.1000000E+00  0.3747003E-15  0.4081633E-02
    1      -33.673224   1.000000
    2      -33.446321   1.000000
    3      -29.701347   1.000000
    4      -29.578578   1.000000
    5      -29.525123   1.000000
    6      -15.800719   1.000000
    7      -15.729979   1.000000
    8      -15.676549   1.000000
    9      -15.605624   1.000000
   10      -15.485924   1.000000
   11      -15.462085   1.000000
   12       -5.812961   1.000000
   13       -3.450848   1.000000
   14       -3.256540   1.000000
   15       -3.129716   1.000000
   16       -1.953260   1.000000
   17       -1.784734   1.000000
   18       -1.144464   1.000000
   19       -0.773317   1.000000
   20       -0.123229   0.999370
   21        3.271556   0.000000
   22        3.490147   0.000000
   23        4.063597   0.000000
   24        4.192035   0.000000
   25        4.644635   0.000000
   26        5.250450   0.000000
   27        5.659838   0.000000
   28        6.094914   0.000000
 
 -0.4285714E+00  0.1000000E+00  0.3747003E-15  0.4081633E-02
    1      -33.673225   1.000000
    2      -33.446367   1.000000
    3      -29.701282   1.000000
    4      -29.578615   1.000000
    5      -29.525225   1.000000
    6      -15.801032   1.000000
    7      -15.729285   1.000000
    8      -15.678619   1.000000
    9      -15.605148   1.000000
   10      -15.486575   1.000000
   11      -15.461701   1.000000
   12       -5.805316   1.000000
   13       -3.461891   1.000000
   14       -3.263711   1.000000
   15       -3.126229   1.000000
   16       -1.934946   1.000000
   17       -1.797682   1.000000
   18       -1.165295   1.000000
   19       -0.767857   1.000000
   20       -0.111816   0.999009
   21        3.219752   0.000000
   22        3.530033   0.000000
   23        4.017038   0.000000
   24        4.306146   0.000000
   25        4.773959   0.000000
   26        5.155150   0.000000
   27        5.616048   0.000000
   28        6.090793   0.000000
 
 -0.2857143E+00  0.1000000E+00  0.3747003E-15  0.4081633E-02
    1      -33.673459   1.000000
    2      -33.445899   1.000000
    3      -29.701217   1.000000
    4      -29.579175   1.000000
    5      -29.525244   1.000000
    6      -15.802643   1.000000
    7      -15.743170   1.000000
    8      -15.680628   1.000000
    9      -15.578327   1.000000
   10      -15.484714   1.000000
   11      -15.458801   1.000000
   12       -6.025507   1.000000
   13       -3.379421   1.000000
   14       -3.151120   1.000000
   15       -2.998234   1.000000
   16       -1.990219   1.000000
   17       -1.808976   1.000000
   18       -1.180624   1.000000
   19       -0.779626   1.000000
   20       -0.272945   1.000000
   21        3.326476   0.000000
   22        3.693383   0.000000
   23        3.935390   0.000000
   24        4.438300   0.000000
   25        4.991251   0.000000
   26        5.538141   0.000000
   27        5.658848   0.000000
   28        6.057159   0.000000
 
 -0.1428571E+00  0.1000000E+00  0.3764350E-15  0.4081633E-02
    1      -33.673756   1.000000
    2      -33.445278   1.000000
    3      -29.701288   1.000000
    4      -29.580025   1.000000
    5      -29.525237   1.000000
    6      -15.805968   1.000000
    7      -15.754259   1.000000
    8      -15.681618   1.000000
    9      -15.550468   1.000000
   10      -15.482242   1.000000
   11      -15.455519   1.000000
   12       -6.256047   1.000000
   13       -3.393234   1.000000
   14       -3.152051   1.000000
   15       -2.592110   1.000000
   16       -2.049427   1.000000
   17       -1.826167   1.000000
   18       -1.177990   1.000000
   19       -0.815962   1.000000
   20       -0.504944   1.000000
   21        3.544226   0.000000
   22        3.781457   0.000000
   23        3.892086   0.000000
   24        4.666624   0.000000
   25        5.178702   0.000000
   26        5.435942   0.000000
   27        5.942389   0.000000
   28        6.181429   0.000000
 
  0.3610800E-15  0.2000000E+00  0.3799044E-15  0.4081633E-02
    1      -33.670877   1.000000
    2      -33.442083   1.000000
    3      -29.711872   1.000000
    4      -29.579335   1.000000
    5      -29.524367   1.000000
    6      -15.804796   1.000000
    7      -15.753658   1.000000
    8      -15.738215   1.000000
    9      -15.540059   1.000000
   10      -15.531595   1.000000
   11      -15.452472   1.000000
   12       -6.018563   1.000000
   13       -3.304322   1.000000
   14       -3.046183   1.000000
   15       -2.273919   1.000000
   16       -2.108358   1.000000
   17       -1.887713   1.000000
   18       -1.384729   1.000000
   19       -1.073767   1.000000
   20       -0.609232   1.000000
   21        3.279619   0.000000
   22        3.493037   0.000000
   23        4.105430   0.000000
   24        4.867259   0.000000
   25        5.023198   0.000000
   26        5.574518   0.000000
   27        6.017355   0.000000
   28        6.267864   0.000000
 
  0.1428571E+00  0.2000000E+00  0.3788202E-15  0.4081633E-02
    1      -33.670747   1.000000
    2      -33.442220   1.000000
    3      -29.712092   1.000000
    4      -29.579160   1.000000
    5      -29.524335   1.000000
    6      -15.803281   1.000000
    7      -15.751032   1.000000
    8      -15.735252   1.000000
    9      -15.545585   1.000000
   10      -15.535555   1.000000
   11      -15.454342   1.000000
   12       -5.949188   1.000000
   13       -3.270908   1.000000
   14       -3.063352   1.000000
   15       -2.424263   1.000000
   16       -2.151172   1.000000
   17       -1.882130   1.000000
   18       -1.293399   1.000000
   19       -1.099381   1.000000
   20       -0.514072   1.000000
   21        3.229034   0.000000
   22        3.576910   0.000000
   23        4.018546   0.000000
   24        4.635267   0.000000
   25        4.732243   0.000000
   26        5.604911   0.000000
   27        5.964668   0.000000
   28        6.529609   0.000000
 
  0.2857143E+00  0.2000000E+00  0.3816392E-15  0.4081633E-02
    1      -33.670454   1.000000
    2      -33.442653   1.000000
    3      -29.712364   1.000000
    4      -29.578665   1.000000
    5      -29.524275   1.000000
    6      -15.800389   1.000000
    7      -15.746438   1.000000
    8      -15.726111   1.000000
    9      -15.569632   1.000000
   10      -15.536108   1.000000
   11      -15.458522   1.000000
   12       -5.750927   1.000000
   13       -3.236222   1.000000
   14       -3.067730   1.000000
   15       -2.850627   1.000000
   16       -2.073312   1.000000
   17       -1.865597   1.000000
   18       -1.318324   1.000000
   19       -1.060437   1.000000
   20       -0.273120   1.000000
   21        3.151677   0.000000
   22        3.675571   0.000000
   23        3.814462   0.000000
   24        4.379756   0.000000
   25        4.550802   0.000000
   26        5.493974   0.000000
   27        5.796560   0.000000
   28        6.151373   0.000000
 
  0.4285714E+00  0.2000000E+00  0.3729655E-15  0.4081633E-02
    1      -33.670214   1.000000
    2      -33.443055   1.000000
    3      -29.712412   1.000000
    4      -29.578184   1.000000
    5      -29.524237   1.000000
    6      -15.798884   1.000000
    7      -15.742323   1.000000
    8      -15.715324   1.000000
    9      -15.592686   1.000000
   10      -15.536770   1.000000
   11      -15.461836   1.000000
   12       -5.546290   1.000000
   13       -3.307363   1.000000
   14       -3.120797   1.000000
   15       -3.047906   1.000000
   16       -1.988864   1.000000
   17       -1.856168   1.000000
   18       -1.402336   1.000000
   19       -1.003205   1.000000
   20       -0.082123   0.997381
   21        3.097288   0.000000
   22        3.649292   0.000000
   23        3.768314   0.000000
   24        4.243446   0.000000
   25        4.473279   0.000000
   26        5.219408   0.000000
   27        5.669473   0.000000
   28        5.917450   0.000000
 
 -0.4285714E+00  0.2000000E+00  0.3712308E-15  0.4081633E-02
    1      -33.670218   1.000000
    2      -33.443128   1.000000
    3      -29.712258   1.000000
    4      -29.578219   1.000000
    5      -29.524345   1.000000
    6      -15.799344   1.000000
    7      -15.740921   1.000000
    8      -15.717726   1.000000
    9      -15.593228   1.000000
   10      -15.536876   1.000000
   11      -15.461730   1.000000
   12       -5.531683   1.000000
   13       -3.337153   1.000000
   14       -3.140518   1.000000
   15       -3.024324   1.000000
   16       -1.950701   1.000000
   17       -1.861211   1.000000
   18       -1.465192   1.000000
   19       -0.983934   1.000000
   20       -0.066128   0.996196
   21        3.081604   0.000000
   22        3.679731   0.000000
   23        3.766872   0.000000
   24        4.377873   0.000000
   25        4.474997   0.000000
   26        5.174979   0.000000
   27        5.595315   0.000000
   28        5.965232   0.000000
 
 -0.2857143E+00  0.2000000E+00  0.3816392E-15  0.4081633E-02
    1      -33.670454   1.000000
    2      -33.442809   1.000000
    3      -29.712003   1.000000
    4      -29.578543   1.000000
    5      -29.524370   1.000000
    6      -15.800906   1.000000
    7      -15.744137   1.000000
    8      -15.730327   1.000000
    9      -15.571501   1.000000
   10      -15.535653   1.000000
   11      -15.458183   1.000000
   12       -5.723297   1.000000
   13       -3.285068   1.000000
   14       -3.040605   1.000000
   15       -2.885985   1.000000
   16       -1.986715   1.000000
   17       -1.867913   1.000000
   18       -1.473432   1.000000
   19       -1.002292   1.000000
   20       -0.228938   0.999998
   21        3.136762   0.000000
   22        3.591919   0.000000
   23        3.947019   0.000000
   24        4.548300   0.000000
   25        4.806802   0.000000
   26        5.424778   0.000000
   27        5.575474   0.000000
   28        6.112411   0.000000
 
 -0.1428571E+00  0.2000000E+00  0.3816392E-15  0.4081633E-02
    1      -33.670743   1.000000
    2      -33.442341   1.000000
    3      -29.711750   1.000000
    4      -29.579033   1.000000
    5      -29.524359   1.000000
    6      -15.803267   1.000000
    7      -15.751374   1.000000
    8      -15.736471   1.000000
    9      -15.549394   1.000000
   10      -15.532891   1.000000
   11      -15.454118   1.000000
   12       -5.929957   1.000000
   13       -3.303615   1.000000
   14       -3.031506   1.000000
   15       -2.508472   1.000000
   16       -2.026977   1.000000
   17       -1.885372   1.000000
   18       -1.450901   1.000000
   19       -1.039603   1.000000
   20       -0.464048   1.000000
   21        3.239586   0.000000
   22        3.494804   0.000000
   23        4.091277   0.000000
   24        4.813830   0.000000
   25        5.174708   0.000000
   26        5.371536   0.000000
   27        5.856918   0.000000
   28        6.095405   0.000000
 
  0.3748866E-15  0.3000000E+00  0.3781697E-15  0.4081633E-02
    1      -33.667159   1.000000
    2      -33.438516   1.000000
    3      -29.724906   1.000000
    4      -29.578106   1.000000
    5      -29.523304   1.000000
    6      -15.837841   1.000000
    7      -15.779740   1.000000
    8      -15.739414   1.000000
    9      -15.610514   1.000000
   10      -15.528710   1.000000
   11      -15.444849   1.000000
   12       -5.513720   1.000000
   13       -3.284611   1.000000
   14       -2.935447   1.000000
   15       -2.251381   1.000000
   16       -2.054325   1.000000
   17       -1.916483   1.000000
   18       -1.655535   1.000000
   19       -1.342007   1.000000
   20       -0.548253   1.000000
   21        2.905986   0.000000
   22        3.171409   0.000000
   23        4.116066   0.000000
   24        4.920744   0.000000
   25        5.288862   0.000000
   26        5.663732   0.000000
   27        5.917821   0.000000
   28        6.221824   0.000000
 
  0.1428571E+00  0.3000000E+00  0.3764350E-15  0.4081633E-02
    1      -33.667028   1.000000
    2      -33.438561   1.000000
    3      -29.725286   1.000000
    4      -29.578012   1.000000
    5      -29.523295   1.000000
    6      -15.837183   1.000000
    7      -15.777133   1.000000
    8      -15.735254   1.000000
    9      -15.609420   1.000000
   10      -15.536694   1.000000
   11      -15.446564   1.000000
   12       -5.465075   1.000000
   13       -3.230775   1.000000
   14       -2.964021   1.000000
   15       -2.354096   1.000000
   16       -2.162304   1.000000
   17       -1.909304   1.000000
   18       -1.519481   1.000000
   19       -1.383822   1.000000
   20       -0.462346   1.000000
   21        2.885614   0.000000
   22        3.218585   0.000000
   23        3.887849   0.000000
   24        4.868542   0.000000
   25        5.086697   0.000000
   26        5.587386   0.000000
   27        5.928950   0.000000
   28        6.397183   0.000000
 
  0.2857143E+00  0.3000000E+00  0.3792539E-15  0.4081633E-02
    1      -33.666737   1.000000
    2      -33.438797   1.000000
    3      -29.725827   1.000000
    4      -29.577954   1.000000
    5      -29.523360   1.000000
    6      -15.835920   1.000000
    7      -15.772724   1.000000
    8      -15.723695   1.000000
    9      -15.608139   1.000000
   10      -15.557028   1.000000
   11      -15.450594   1.000000
   12       -5.315787   1.000000
   13       -3.157179   1.000000
   14       -3.007124   1.000000
   15       -2.692229   1.000000
   16       -2.137364   1.000000
   17       -1.911169   1.000000
   18       -1.529500   1.000000
   19       -1.344143   1.000000
   20       -0.234162   0.999999
   21        2.849058   0.000000
   22        3.265464   0.000000
   23        3.637110   0.000000
   24        4.760288   0.000000
   25        4.818891   0.000000
   26        5.515430   0.000000
   27        5.785537   0.000000
   28        6.216793   0.000000
 
  0.4285714E+00  0.3000000E+00  0.3781697E-15  0.4081633E-02
    1      -33.666492   1.000000
    2      -33.439028   1.000000
    3      -29.725964   1.000000
    4      -29.577681   1.000000
    5      -29.523208   1.000000
    6      -15.834908   1.000000
    7      -15.769352   1.000000
    8      -15.711602   1.000000
    9      -15.607053   1.000000
   10      -15.576099   1.000000
   11      -15.453684   1.000000
   12       -5.155477   1.000000
   13       -3.187661   1.000000
   14       -3.007691   1.000000
   15       -2.910637   1.000000
   16       -2.076485   1.000000
   17       -1.910360   1.000000
   18       -1.639734   1.000000
   19       -1.264461   1.000000
   20       -0.040162   0.995079
   21        2.822438   0.000000
   22        3.284121   0.000000
   23        3.534546   0.000000
   24        4.513598   0.000000
   25        4.722511   0.000000
   26        5.438574   0.000000
   27        5.726744   0.000000
   28        5.902965   0.000000
 
 -0.4285714E+00  0.3000000E+00  0.3885781E-15  0.4081633E-02
    1      -33.666491   1.000000
    2      -33.439096   1.000000
    3      -29.725835   1.000000
    4      -29.577633   1.000000
    5      -29.523237   1.000000
    6      -15.835290   1.000000
    7      -15.769342   1.000000
    8      -15.712057   1.000000
    9      -15.608215   1.000000
   10      -15.575867   1.000000
   11      -15.453604   1.000000
   12       -5.134346   1.000000
   13       -3.250060   1.000000
   14       -2.999099   1.000000
   15       -2.886981   1.000000
   16       -2.008930   1.000000
   17       -1.908602   1.000000
   18       -1.745123   1.000000
   19       -1.238318   1.000000
   20       -0.024737   0.996291
   21        2.825496   0.000000
   22        3.319170   0.000000
   23        3.548363   0.000000
   24        4.515741   0.000000
   25        4.776498   0.000000
   26        5.424424   0.000000
   27        5.624789   0.000000
   28        5.986314   0.000000
 
 -0.2857143E+00  0.3000000E+00  0.3747003E-15  0.4081633E-02
    1      -33.666731   1.000000
    2      -33.438944   1.000000
    3      -29.725419   1.000000
    4      -29.577738   1.000000
    5      -29.523275   1.000000
    6      -15.836400   1.000000
    7      -15.772825   1.000000
    8      -15.724486   1.000000
    9      -15.610027   1.000000
   10      -15.556715   1.000000
   11      -15.450260   1.000000
   12       -5.274754   1.000000
   13       -3.263621   1.000000
   14       -2.950655   1.000000
   15       -2.700078   1.000000
   16       -1.988539   1.000000
   17       -1.914913   1.000000
   18       -1.772893   1.000000
   19       -1.261276   1.000000
   20       -0.192145   0.999981
   21        2.859983   0.000000
   22        3.243563   0.000000
   23        3.800976   0.000000
   24        4.732209   0.000000
   25        5.010699   0.000000
   26        5.513826   0.000000
   27        5.621107   0.000000
   28        6.235404   0.000000
 
 -0.1428571E+00  0.3000000E+00  0.3781697E-15  0.4081633E-02
    1      -33.667025   1.000000
    2      -33.438684   1.000000
    3      -29.725037   1.000000
    4      -29.577945   1.000000
    5      -29.523249   1.000000
    6      -15.837532   1.000000
    7      -15.777710   1.000000
    8      -15.735653   1.000000
    9      -15.610835   1.000000
   10      -15.536731   1.000000
   11      -15.446368   1.000000
   12       -5.438498   1.000000
   13       -3.290871   1.000000
   14       -2.923198   1.000000
   15       -2.406829   1.000000
   16       -2.007673   1.000000
   17       -1.914875   1.000000
   18       -1.745202   1.000000
   19       -1.302255   1.000000
   20       -0.419672   1.000000
   21        2.902614   0.000000
   22        3.162674   0.000000
   23        4.118427   0.000000
   24        4.816130   0.000000
   25        5.294853   0.000000
   26        5.642913   0.000000
   27        5.771050   0.000000
   28        6.206404   0.000000
 
  0.3608936E-15  0.4000000E+00  0.3781697E-15  0.4081633E-02
    1      -33.664144   1.000000
    2      -33.435625   1.000000
    3      -29.735542   1.000000
    4      -29.577054   1.000000
    5      -29.522375   1.000000
    6      -15.895197   1.000000
    7      -15.777494   1.000000
    8      -15.732392   1.000000
    9      -15.667874   1.000000
   10      -15.524329   1.000000
   11      -15.438182   1.000000
   12       -4.909201   1.000000
   13       -3.546667   1.000000
   14       -2.845062   1.000000
   15       -2.265675   1.000000
   16       -1.995683   1.000000
   17       -1.880520   1.000000
   18       -1.807272   1.000000
   19       -1.585887   1.000000
   20       -0.466403   1.000000
   21        2.666622   0.000000
   22        2.954108   0.000000
   23        4.045322   0.000000
   24        4.785773   0.000000
   25        5.318200   0.000000
   26        5.644267   0.000000
   27        6.022113   0.000000
   28        6.500194   0.000000
 
  0.1428571E+00  0.4000000E+00  0.3764350E-15  0.4081633E-02
    1      -33.664009   1.000000
    2      -33.435621   1.000000
    3      -29.735798   1.000000
    4      -29.577048   1.000000
    5      -29.522423   1.000000
    6      -15.894008   1.000000
    7      -15.775221   1.000000
    8      -15.728364   1.000000
    9      -15.666073   1.000000
   10      -15.531195   1.000000
   11      -15.439827   1.000000
   12       -4.890683   1.000000
   13       -3.489745   1.000000
   14       -2.865301   1.000000
   15       -2.333477   1.000000
   16       -2.098173   1.000000
   17       -1.884035   1.000000
   18       -1.691024   1.000000
   19       -1.610326   1.000000
   20       -0.391033   1.000000
   21        2.672337   0.000000
   22        2.949404   0.000000
   23        3.757145   0.000000
   24        4.990743   0.000000
   25        5.176384   0.000000
   26        5.624708   0.000000
   27        6.027297   0.000000
   28        6.565359   0.000000
 
  0.2857143E+00  0.4000000E+00  0.3803381E-15  0.4081633E-02
    1      -33.663713   1.000000
    2      -33.435689   1.000000
    3      -29.736384   1.000000
    4      -29.577241   1.000000
    5      -29.522393   1.000000
    6      -15.891747   1.000000
    7      -15.770234   1.000000
    8      -15.717793   1.000000
    9      -15.662763   1.000000
   10      -15.548532   1.000000
   11      -15.443424   1.000000
   12       -4.815358   1.000000
   13       -3.391214   1.000000
   14       -2.887304   1.000000
   15       -2.526828   1.000000
   16       -2.175727   1.000000
   17       -1.902641   1.000000
   18       -1.712826   1.000000
   19       -1.528655   1.000000
   20       -0.192661   0.999982
   21        2.662968   0.000000
   22        2.952845   0.000000
   23        3.461892   0.000000
   24        4.796213   0.000000
   25        5.203030   0.000000
   26        5.613200   0.000000
   27        6.005470   0.000000
   28        6.338421   0.000000
 
  0.4285714E+00  0.4000000E+00  0.3786034E-15  0.4081633E-02
    1      -33.663474   1.000000
    2      -33.435774   1.000000
    3      -29.736846   1.000000
    4      -29.577254   1.000000
    5      -29.522284   1.000000
    6      -15.890178   1.000000
    7      -15.766429   1.000000
    8      -15.707724   1.000000
    9      -15.659720   1.000000
   10      -15.564553   1.000000
   11      -15.446380   1.000000
   12       -4.734827   1.000000
   13       -3.308437   1.000000
   14       -2.892968   1.000000
   15       -2.722713   1.000000
   16       -2.192169   1.000000
   17       -1.914668   1.000000
   18       -1.775947   1.000000
   19       -1.459083   1.000000
   20       -0.015282   0.998370
   21        2.647742   0.000000
   22        2.978896   0.000000
   23        3.326353   0.000000
   24        4.430138   0.000000
   25        5.274103   0.000000
   26        5.647224   0.000000
   27        5.900628   0.000000
   28        6.068789   0.000000
 
 -0.4285714E+00  0.4000000E+00  0.3747003E-15  0.4081633E-02
    1      -33.663473   1.000000
    2      -33.435816   1.000000
    3      -29.736787   1.000000
    4      -29.577188   1.000000
    5      -29.522360   1.000000
    6      -15.890445   1.000000
    7      -15.766580   1.000000
    8      -15.707811   1.000000
    9      -15.660177   1.000000
   10      -15.564788   1.000000
   11      -15.446432   1.000000
   12       -4.713813   1.000000
   13       -3.353824   1.000000
   14       -2.868152   1.000000
   15       -2.730339   1.000000
   16       -2.154035   1.000000
   17       -1.923924   1.000000
   18       -1.828827   1.000000
   19       -1.442014   1.000000
   20       -0.005864   1.001790
   21        2.651493   0.000000
   22        3.004609   0.000000
   23        3.324608   0.000000
   24        4.437348   0.000000
   25        5.315989   0.000000
   26        5.609168   0.000000
   27        5.838821   0.000000
   28        6.156133   0.000000
 
 -0.2857143E+00  0.4000000E+00  0.3816392E-15  0.4081633E-02
    1      -33.663714   1.000000
    2      -33.435786   1.000000
    3      -29.736299   1.000000
    4      -29.577179   1.000000