       N       E                     dE             d eps       ncg     rms          rms(c)
DAV:   1     0.116343026096E+03    0.11634E+03   -0.97788E+03 21200   0.694E+02
DAV:   2    -0.360534343813E+02   -0.15240E+03   -0.14633E+03 26008   0.267E+02
DAV:   3    -0.446495230369E+02   -0.85961E+01   -0.85038E+01 35000   0.508E+01
DAV:   4    -0.449575835666E+02   -0.30806E+00   -0.30754E+00 28920   0.804E+00
DAV:   5    -0.449622355873E+02   -0.46520E-02   -0.46514E-02 31784   0.933E-01    0.330E+01
DAV:   6    -0.419612639942E+02    0.30010E+01   -0.70683E+00 31440   0.204E+01    0.127E+01
DAV:   7    -0.417031294454E+02    0.25813E+00   -0.12406E+00 31032   0.665E+00    0.885E+00
DAV:   8    -0.416655981350E+02    0.37531E-01   -0.35996E-01 31136   0.377E+00    0.150E+00
DAV:   9    -0.416541690065E+02    0.11429E-01   -0.45955E-02 28584   0.141E+00    0.653E-01
DAV:  10    -0.416531091077E+02    0.10599E-02   -0.82979E-03 28840   0.531E-01    0.153E-01
DAV:  11    -0.416530628206E+02    0.46287E-04   -0.12707E-03 27248   0.218E-01    0.783E-02
DAV:  12    -0.416530589618E+02    0.38588E-05   -0.67800E-05 14928   0.472E-02
   1 F= -.41653059E+02 E0= -.41652956E+02  d E =-.416531E+02
       N       E                     dE             d eps       ncg     rms          rms(c)
DAV:   1    -0.416533347894E+02   -0.27197E-03   -0.43869E-02 22656   0.149E+00    0.153E-01
DAV:   2    -0.416533819082E+02   -0.47119E-04   -0.31898E-03 27504   0.368E-01    0.780E-02
DAV:   3    -0.416533053076E+02    0.76601E-04   -0.15793E-04 21864   0.828E-02
   2 F= -.41653305E+02 E0= -.41653206E+02  d E =-.246346E-03
       N       E                     dE             d eps       ncg     rms          rms(c)
DAV:   1    -0.416535393056E+02   -0.15740E-03   -0.71441E-03 22048   0.594E-01    0.576E-02
DAV:   2    -0.416535578324E+02   -0.18527E-04   -0.53026E-04 26504   0.153E-01
   3 F= -.41653558E+02 E0= -.41653454E+02  d E =-.498871E-03
