  21  21   1   0
  0.7856065E+01  0.5681893E-09  0.5836359E-09  0.5521952E-09  0.5000000E-15
  1.000000000000000E-004
  CAR 
 unknown system                          
     14.80516423    -38.16780212  301     -2.27861742      1.00000000
    -38.168  0.0000E+00  0.0000E+00  0.0000E+00  0.0000E+00
    -37.991  0.0000E+00  0.0000E+00  0.0000E+00  0.0000E+00
    -37.815  0.0000E+00  0.0000E+00  0.0000E+00  0.0000E+00
    -37.638  0.0000E+00  0.0000E+00  0.0000E+00  0.0000E+00
    -37.461  0.0000E+00  0.0000E+00  0.0000E+00  0.0000E+00
    -37.285  0.0000E+00  0.0000E+00  0.0000E+00  0.0000E+00
    -37.108  0.0000E+00  0.0000E+00  0.0000E+00  0.0000E+00
    -36.932  0.0000E+00  0.0000E+00  0.0000E+00  0.0000E+00
    -36.755  0.0000E+00  0.0000E+00  0.0000E+00  0.0000E+00
    -36.579  0.0000E+00  0.0000E+00  0.0000E+00  0.0000E+00
    -36.402  0.0000E+00  0.0000E+00  0.0000E+00  0.0000E+00
    -36.225  0.0000E+00  0.0000E+00  0.0000E+00  0.0000E+00
    -36.049  0.0000E+00  0.0000E+00  0.0000E+00  0.0000E+00
    -35.872  0.0000E+00  0.0000E+00  0.0000E+00  0.0000E+00
    -35.696  0.0000E+00  0.0000E+00  0.1010E-01  0.1010E-01
    -35.519  0.0000E+00  0.0000E+00  0.1010E-01  0.1010E-01
    -35.343  0.0000E+00  0.0000E+00  0.1010E-01  0.1010E-01
    -35.166  0.0000E+00  0.0000E+00  0.1010E-01  0.1010E-01
    -34.989  0.0000E+00  0.0000E+00  0.1010E-01  0.1010E-01
    -34.813  0.0000E+00  0.0000E+00  0.1010E-01  0.1010E-01
    -34.636  0.0000E+00  0.0000E+00  0.1010E-01  0.1010E-01
    -34.460  0.0000E+00  0.0000E+00  0.1010E-01  0.1010E-01
    -34.283  0.0000E+00  0.0000E+00  0.1010E-01  0.1010E-01
    -34.107  0.0000E+00  0.0000E+00  0.1010E-01  0.1010E-01
    -33.930  0.0000E+00  0.0000E+00  0.1010E-01  0.1010E-01
    -33.753  0.0000E+00  0.0000E+00  0.1010E-01  0.1010E-01
    -33.577  0.0000E+00  0.0000E+00  0.1010E-01  0.1010E-01
    -33.400  0.0000E+00  0.0000E+00  0.1010E-01  0.1010E-01
    -33.224  0.0000E+00  0.0000E+00  0.1010E-01  0.1010E-01
    -33.047  0.0000E+00  0.0000E+00  0.1010E-01  0.1010E-01
    -32.871  0.0000E+00  0.0000E+00  0.1010E-01  0.1010E-01
    -32.694  0.0000E+00  0.0000E+00  0.1010E-01  0.1010E-01
    -32.517  0.0000E+00  0.0000E+00  0.1010E-01  0.1010E-01
    -32.341  0.0000E+00  0.0000E+00  0.1010E-01  0.1010E-01
    -32.164  0.0000E+00  0.0000E+00  0.1010E-01  0.1010E-01
    -31.988  0.0000E+00  0.0000E+00  0.1010E-01  0.1010E-01
    -31.811  0.0000E+00  0.0000E+00  0.1010E-01  0.1010E-01
    -31.634  0.0000E+00  0.0000E+00  0.1010E-01  0.1010E-01
    -31.458  0.0000E+00  0.0000E+00  0.1010E-01  0.1010E-01
    -31.281  0.0000E+00  0.0000E+00  0.1010E-01  0.1010E-01
    -31.105  0.0000E+00  0.0000E+00  0.1010E-01  0.1010E-01
    -30.928  0.0000E+00  0.0000E+00  0.3030E-01  0.3030E-01
    -30.752  0.0000E+00  0.0000E+00  0.4040E-01  0.4040E-01
    -30.575  0.0000E+00  0.0000E+00  0.4040E-01  0.4040E-01
    -30.398  0.0000E+00  0.0000E+00  0.4040E-01  0.4040E-01
    -30.222  0.0000E+00  0.0000E+00  0.4040E-01  0.4040E-01
    -30.045  0.0000E+00  0.0000E+00  0.4040E-01  0.4040E-01
    -29.869  0.0000E+00  0.0000E+00  0.4040E-01  0.4040E-01
    -29.692  0.0000E+00  0.0000E+00  0.4040E-01  0.4040E-01
    -29.516  0.0000E+00  0.0000E+00  0.4040E-01  0.4040E-01
    -29.339  0.0000E+00  0.0000E+00  0.4040E-01  0.4040E-01
    -29.162  0.0000E+00  0.0000E+00  0.4040E-01  0.4040E-01
    -28.986  0.0000E+00  0.0000E+00  0.4040E-01  0.4040E-01
    -28.809  0.0000E+00  0.0000E+00  0.4040E-01  0.4040E-01
    -28.633  0.0000E+00  0.0000E+00  0.4040E-01  0.4040E-01
    -28.456  0.0000E+00  0.0000E+00  0.4040E-01  0.4040E-01
    -28.280  0.0000E+00  0.0000E+00  0.4040E-01  0.4040E-01
    -28.103  0.0000E+00  0.0000E+00  0.4040E-01  0.4040E-01
    -27.926  0.0000E+00  0.0000E+00  0.4040E-01  0.4040E-01
    -27.750  0.0000E+00  0.0000E+00  0.4040E-01  0.4040E-01
    -27.573  0.0000E+00  0.0000E+00  0.4040E-01  0.4040E-01
    -27.397  0.0000E+00  0.0000E+00  0.4040E-01  0.4040E-01
    -27.220  0.0000E+00  0.0000E+00  0.4040E-01  0.4040E-01
    -27.043  0.0000E+00  0.0000E+00  0.4040E-01  0.4040E-01
    -26.867  0.0000E+00  0.0000E+00  0.4040E-01  0.4040E-01
    -26.690  0.0000E+00  0.0000E+00  0.4040E-01  0.4040E-01
    -26.514  0.0000E+00  0.0000E+00  0.4040E-01  0.4040E-01
    -26.337  0.0000E+00  0.0000E+00  0.4040E-01  0.4040E-01
    -26.161  0.0000E+00  0.0000E+00  0.4040E-01  0.4040E-01
    -25.984  0.0000E+00  0.0000E+00  0.4040E-01  0.4040E-01
    -25.807  0.0000E+00  0.0000E+00  0.4040E-01  0.4040E-01
    -25.631  0.0000E+00  0.0000E+00  0.4040E-01  0.4040E-01
    -25.454  0.0000E+00  0.0000E+00  0.4040E-01  0.4040E-01
    -25.278  0.0000E+00  0.0000E+00  0.4040E-01  0.4040E-01
    -25.101  0.0000E+00  0.0000E+00  0.4040E-01  0.4040E-01
    -24.925  0.0000E+00  0.0000E+00  0.4040E-01  0.4040E-01
    -24.748  0.0000E+00  0.0000E+00  0.4040E-01  0.4040E-01
    -24.571  0.0000E+00  0.0000E+00  0.4040E-01  0.4040E-01
    -24.395  0.0000E+00  0.0000E+00  0.4040E-01  0.4040E-01
    -24.218  0.0000E+00  0.0000E+00  0.4040E-01  0.4040E-01
    -24.042  0.0000E+00  0.0000E+00  0.4040E-01  0.4040E-01
    -23.865  0.0000E+00  0.0000E+00  0.4040E-01  0.4040E-01
    -23.689  0.0000E+00  0.0000E+00  0.4040E-01  0.4040E-01
    -23.512  0.0000E+00  0.0000E+00  0.4040E-01  0.4040E-01
    -23.335  0.0000E+00  0.0000E+00  0.4040E-01  0.4040E-01
    -23.159  0.0000E+00  0.0000E+00  0.4040E-01  0.4040E-01
    -22.982  0.0000E+00  0.0000E+00  0.4040E-01  0.4040E-01
    -22.806  0.0000E+00  0.0000E+00  0.4040E-01  0.4040E-01
    -22.629  0.0000E+00  0.0000E+00  0.4040E-01  0.4040E-01
    -22.452  0.0000E+00  0.0000E+00  0.4040E-01  0.4040E-01
    -22.276  0.0000E+00  0.0000E+00  0.4040E-01  0.4040E-01
    -22.099  0.0000E+00  0.0000E+00  0.4040E-01  0.4040E-01
    -21.923  0.0000E+00  0.0000E+00  0.4040E-01  0.4040E-01
    -21.746  0.0000E+00  0.0000E+00  0.4040E-01  0.4040E-01
    -21.570  0.0000E+00  0.0000E+00  0.4040E-01  0.4040E-01
    -21.393  0.0000E+00  0.0000E+00  0.4040E-01  0.4040E-01
    -21.216  0.0000E+00  0.0000E+00  0.4040E-01  0.4040E-01
    -21.040  0.0000E+00  0.0000E+00  0.4040E-01  0.4040E-01
    -20.863  0.0000E+00  0.0000E+00  0.4040E-01  0.4040E-01
    -20.687  0.0000E+00  0.0000E+00  0.4040E-01  0.4040E-01
    -20.510  0.0000E+00  0.0000E+00  0.4040E-01  0.4040E-01
    -20.334  0.0000E+00  0.0000E+00  0.4040E-01  0.4040E-01
    -20.157  0.0000E+00  0.0000E+00  0.4040E-01  0.4040E-01
    -19.980  0.0000E+00  0.0000E+00  0.4040E-01  0.4040E-01
    -19.804  0.0000E+00  0.0000E+00  0.4040E-01  0.4040E-01
    -19.627  0.0000E+00  0.0000E+00  0.4040E-01  0.4040E-01
    -19.451  0.0000E+00  0.0000E+00  0.4040E-01  0.4040E-01
    -19.274  0.0000E+00  0.0000E+00  0.4040E-01  0.4040E-01
    -19.098  0.0000E+00  0.0000E+00  0.4040E-01  0.4040E-01
    -18.921  0.0000E+00  0.0000E+00  0.4040E-01  0.4040E-01
    -18.744  0.0000E+00  0.0000E+00  0.4040E-01  0.4040E-01
    -18.568  0.0000E+00  0.0000E+00  0.4040E-01  0.4040E-01
    -18.391  0.0000E+00  0.0000E+00  0.4040E-01  0.4040E-01
    -18.215  0.0000E+00  0.0000E+00  0.4040E-01  0.4040E-01
    -18.038  0.0000E+00  0.0000E+00  0.4040E-01  0.4040E-01
    -17.861  0.0000E+00  0.0000E+00  0.5051E-01  0.5051E-01
    -17.685  0.0000E+00  0.0000E+00  0.7071E-01  0.7071E-01
    -17.508  0.0000E+00  0.0000E+00  0.7071E-01  0.7071E-01
    -17.332  0.0000E+00  0.0000E+00  0.7071E-01  0.7071E-01
    -17.155  0.0000E+00  0.0000E+00  0.7071E-01  0.7071E-01
    -16.979  0.0000E+00  0.0000E+00  0.7071E-01  0.7071E-01
    -16.802  0.0000E+00  0.0000E+00  0.7071E-01  0.7071E-01
    -16.625  0.0000E+00  0.0000E+00  0.7071E-01  0.7071E-01
    -16.449  0.0000E+00  0.0000E+00  0.7071E-01  0.7071E-01
    -16.272  0.0000E+00  0.0000E+00  0.7071E-01  0.7071E-01
    -16.096  0.0000E+00  0.0000E+00  0.7071E-01  0.7071E-01
    -15.919  0.0000E+00  0.0000E+00  0.7071E-01  0.7071E-01
    -15.743  0.0000E+00  0.0000E+00  0.7071E-01  0.7071E-01
    -15.566  0.0000E+00  0.0000E+00  0.7071E-01  0.7071E-01
    -15.389  0.0000E+00  0.0000E+00  0.7071E-01  0.7071E-01
    -15.213  0.0000E+00  0.0000E+00  0.7071E-01  0.7071E-01
    -15.036  0.0000E+00  0.0000E+00  0.7071E-01  0.7071E-01
    -14.860  0.0000E+00  0.0000E+00  0.7071E-01  0.7071E-01
    -14.683  0.0000E+00  0.0000E+00  0.7071E-01  0.7071E-01
    -14.507  0.0000E+00  0.0000E+00  0.7071E-01  0.7071E-01
    -14.330  0.0000E+00  0.0000E+00  0.7071E-01  0.7071E-01
    -14.153  0.0000E+00  0.0000E+00  0.7071E-01  0.7071E-01
    -13.977  0.0000E+00  0.0000E+00  0.7071E-01  0.7071E-01
    -13.800  0.0000E+00  0.0000E+00  0.7071E-01  0.7071E-01
    -13.624  0.0000E+00  0.0000E+00  0.7071E-01  0.7071E-01
    -13.447  0.0000E+00  0.0000E+00  0.7071E-01  0.7071E-01
    -13.271  0.0000E+00  0.0000E+00  0.7071E-01  0.7071E-01
    -13.094  0.0000E+00  0.0000E+00  0.7071E-01  0.7071E-01
    -12.917  0.0000E+00  0.0000E+00  0.7071E-01  0.7071E-01
    -12.741  0.0000E+00  0.0000E+00  0.7071E-01  0.7071E-01
    -12.564  0.0000E+00  0.0000E+00  0.7071E-01  0.7071E-01
    -12.388  0.0000E+00  0.0000E+00  0.7071E-01  0.7071E-01
    -12.211  0.0000E+00  0.0000E+00  0.7071E-01  0.7071E-01
    -12.034  0.0000E+00  0.0000E+00  0.7071E-01  0.7071E-01
    -11.858  0.0000E+00  0.0000E+00  0.7071E-01  0.7071E-01
    -11.681  0.0000E+00  0.0000E+00  0.7071E-01  0.7071E-01
    -11.505  0.0000E+00  0.0000E+00  0.7071E-01  0.7071E-01
    -11.328  0.0000E+00  0.0000E+00  0.7071E-01  0.7071E-01
    -11.152  0.0000E+00  0.0000E+00  0.7071E-01  0.7071E-01
    -10.975  0.0000E+00  0.0000E+00  0.7071E-01  0.7071E-01
    -10.798  0.0000E+00  0.0000E+00  0.7071E-01  0.7071E-01
    -10.622  0.0000E+00  0.0000E+00  0.7071E-01  0.7071E-01
    -10.445  0.0000E+00  0.0000E+00  0.7071E-01  0.7071E-01
    -10.269  0.0000E+00  0.0000E+00  0.7071E-01  0.7071E-01
    -10.092  0.0000E+00  0.0000E+00  0.7071E-01  0.7071E-01
     -9.916  0.0000E+00  0.0000E+00  0.7071E-01  0.7071E-01
     -9.739  0.0000E+00  0.0000E+00  0.7071E-01  0.7071E-01
     -9.562  0.0000E+00  0.0000E+00  0.7071E-01  0.7071E-01
     -9.386  0.6877E-02  0.6877E-02  0.7126E-01  0.7126E-01
     -9.209  0.2296E-01  0.2296E-01  0.7350E-01  0.7350E-01
     -9.033  0.2748E-01  0.2748E-01  0.7858E-01  0.7858E-01
     -8.856  0.0000E+00  0.0000E+00  0.8081E-01  0.8081E-01
     -8.680  0.0000E+00  0.0000E+00  0.8081E-01  0.8081E-01
     -8.503  0.4561E-01  0.4561E-01  0.8098E-01  0.8098E-01
     -8.326  0.0000E+00  0.0000E+00  0.9091E-01  0.9091E-01
     -8.150  0.0000E+00  0.0000E+00  0.9091E-01  0.9091E-01
     -7.973  0.0000E+00  0.0000E+00  0.9091E-01  0.9091E-01
     -7.797  0.3889E-01  0.3889E-01  0.9888E-01  0.9888E-01
     -7.620  0.4587E-02  0.4587E-02  0.1011E+00  0.1011E+00
     -7.443  0.6175E-01  0.6175E-01  0.1074E+00  0.1074E+00
     -7.267  0.0000E+00  0.0000E+00  0.1111E+00  0.1111E+00
     -7.090  0.0000E+00  0.0000E+00  0.1111E+00  0.1111E+00
     -6.914  0.0000E+00  0.0000E+00  0.1111E+00  0.1111E+00
     -6.737  0.3296E-01  0.3296E-01  0.1134E+00  0.1134E+00
     -6.561  0.0000E+00  0.0000E+00  0.1212E+00  0.1212E+00
     -6.384  0.3263E-01  0.3263E-01  0.1224E+00  0.1224E+00
     -6.207  0.0000E+00  0.0000E+00  0.1313E+00  0.1313E+00
     -6.031  0.0000E+00  0.0000E+00  0.1313E+00  0.1313E+00
     -5.854  0.0000E+00  0.0000E+00  0.1313E+00  0.1313E+00
     -5.678  0.0000E+00  0.0000E+00  0.1313E+00  0.1313E+00
     -5.501  0.0000E+00  0.0000E+00  0.1313E+00  0.1313E+00
     -5.325  0.0000E+00  0.0000E+00  0.1313E+00  0.1313E+00
     -5.148  0.0000E+00  0.0000E+00  0.1313E+00  0.1313E+00
     -4.971  0.1351E-01  0.1351E-01  0.1318E+00  0.1318E+00
     -4.795  0.3312E-01  0.3312E-01  0.1366E+00  0.1366E+00
     -4.618  0.1414E-01  0.1414E-01  0.1409E+00  0.1409E+00
     -4.442  0.0000E+00  0.0000E+00  0.1414E+00  0.1414E+00
     -4.265  0.0000E+00  0.0000E+00  0.1414E+00  0.1414E+00
     -4.089  0.7796E-03  0.7796E-03  0.1414E+00  0.1414E+00
     -3.912  0.4798E-01  0.4798E-01  0.1479E+00  0.1479E+00
     -3.735  0.3948E-02  0.3948E-02  0.1515E+00  0.1515E+00
     -3.559  0.7660E-01  0.7660E-01  0.1565E+00  0.1565E+00
     -3.382  0.1406E-01  0.1406E-01  0.1716E+00  0.1716E+00
     -3.206  0.1755E-01  0.1755E-01  0.1817E+00  0.1817E+00
     -3.029  0.0000E+00  0.0000E+00  0.1818E+00  0.1818E+00
     -2.852  0.0000E+00  0.0000E+00  0.1818E+00  0.1818E+00
     -2.676  0.8653E-01  0.8653E-01  0.1846E+00  0.1846E+00
     -2.499  0.3995E-01  0.3995E-01  0.1970E+00  0.1970E+00
     -2.323  0.1258E-02  0.1258E-02  0.2020E+00  0.2020E+00
     -2.146  0.0000E+00  0.0000E+00  0.2020E+00  0.2020E+00
     -1.970  0.0000E+00  0.0000E+00  0.2020E+00  0.2020E+00
     -1.793  0.0000E+00  0.0000E+00  0.2020E+00  0.2020E+00
     -1.616  0.0000E+00  0.0000E+00  0.2020E+00  0.2020E+00
     -1.440  0.0000E+00  0.0000E+00  0.2020E+00  0.2020E+00
     -1.263  0.0000E+00  0.0000E+00  0.2020E+00  0.2020E+00
     -1.087  0.0000E+00  0.0000E+00  0.2020E+00  0.2020E+00
     -0.910  0.0000E+00  0.0000E+00  0.2020E+00  0.2020E+00
     -0.734  0.0000E+00  0.0000E+00  0.2020E+00  0.2020E+00
     -0.557  0.0000E+00  0.0000E+00  0.2020E+00  0.2020E+00
     -0.380  0.0000E+00  0.0000E+00  0.2020E+00  0.2020E+00
     -0.204  0.0000E+00  0.0000E+00  0.2020E+00  0.2020E+00
     -0.027  0.0000E+00  0.0000E+00  0.2020E+00  0.2020E+00
      0.149  0.0000E+00  0.0000E+00  0.2020E+00  0.2020E+00
      0.326  0.0000E+00  0.0000E+00  0.2020E+00  0.2020E+00
      0.502  0.0000E+00  0.0000E+00  0.2020E+00  0.2020E+00
      0.679  0.0000E+00  0.0000E+00  0.2020E+00  0.2020E+00
      0.856  0.0000E+00  0.0000E+00  0.2020E+00  0.2020E+00
      1.032  0.0000E+00  0.0000E+00  0.2020E+00  0.2020E+00
      1.209  0.0000E+00  0.0000E+00  0.2020E+00  0.2020E+00
      1.385  0.0000E+00  0.0000E+00  0.2020E+00  0.2020E+00
      1.562  0.0000E+00  0.0000E+00  0.2020E+00  0.2020E+00
      1.738  0.0000E+00  0.0000E+00  0.2020E+00  0.2020E+00
      1.915  0.0000E+00  0.0000E+00  0.2020E+00  0.2020E+00
      2.092  0.7122E-01  0.7122E-01  0.2071E+00  0.2071E+00
      2.268  0.2259E-01  0.2259E-01  0.2124E+00  0.2124E+00
      2.445  0.3526E-01  0.3526E-01  0.2213E+00  0.2213E+00
      2.621  0.5222E-01  0.5222E-01  0.2304E+00  0.2304E+00
      2.798  0.4600E-01  0.4600E-01  0.2363E+00  0.2363E+00
      2.975  0.8373E-02  0.8373E-02  0.2423E+00  0.2423E+00
      3.151  0.6053E-01  0.6053E-01  0.2479E+00  0.2479E+00
      3.328  0.2163E-02  0.2163E-02  0.2525E+00  0.2525E+00
      3.504  0.0000E+00  0.0000E+00  0.2525E+00  0.2525E+00
      3.681  0.4414E-01  0.4414E-01  0.2537E+00  0.2537E+00
      3.857  0.3902E-01  0.3902E-01  0.2601E+00  0.2601E+00
      4.034  0.3852E-01  0.3852E-01  0.2664E+00  0.2664E+00
      4.211  0.2218E-01  0.2218E-01  0.2719E+00  0.2719E+00
      4.387  0.3543E-01  0.3543E-01  0.2785E+00  0.2785E+00
      4.564  0.2260E-01  0.2260E-01  0.2822E+00  0.2822E+00
      4.740  0.3247E-01  0.3247E-01  0.2879E+00  0.2879E+00
      4.917  0.1360E-01  0.1360E-01  0.2925E+00  0.2925E+00
      5.093  0.3562E-01  0.3562E-01  0.2947E+00  0.2947E+00
      5.270  0.2146E-01  0.2146E-01  0.3020E+00  0.3020E+00
      5.447  0.3135E-01  0.3135E-01  0.3082E+00  0.3082E+00
      5.623  0.1214E-01  0.1214E-01  0.3131E+00  0.3131E+00
      5.800  0.6410E-01  0.6410E-01  0.3207E+00  0.3207E+00
      5.976  0.4378E-01  0.4378E-01  0.3240E+00  0.3240E+00
      6.153  0.1515E-01  0.1515E-01  0.3323E+00  0.3323E+00
      6.329  0.5469E-01  0.5469E-01  0.3368E+00  0.3368E+00
      6.506  0.9679E-02  0.9679E-02  0.3434E+00  0.3434E+00
      6.683  0.7342E-01  0.7342E-01  0.3502E+00  0.3502E+00
      6.859  0.9070E-02  0.9070E-02  0.3536E+00  0.3536E+00
      7.036  0.2531E-01  0.2531E-01  0.3627E+00  0.3627E+00
      7.212  0.4459E-01  0.4459E-01  0.3656E+00  0.3656E+00
      7.389  0.1519E-01  0.1519E-01  0.3731E+00  0.3731E+00
      7.566  0.4848E-01  0.4848E-01  0.3763E+00  0.3763E+00
      7.742  0.6418E-02  0.6418E-02  0.3835E+00  0.3835E+00
      7.919  0.3205E-01  0.3205E-01  0.3866E+00  0.3866E+00
      8.095  0.2187E-01  0.2187E-01  0.3926E+00  0.3926E+00
      8.272  0.3213E-01  0.3213E-01  0.3957E+00  0.3957E+00
      8.448  0.2310E-01  0.2310E-01  0.4012E+00  0.4012E+00
      8.625  0.1746E-01  0.1746E-01  0.4047E+00  0.4047E+00
      8.802  0.3242E-01  0.3242E-01  0.4090E+00  0.4090E+00
      8.978  0.1208E-01  0.1208E-01  0.4140E+00  0.4140E+00
      9.155  0.2738E-01  0.2738E-01  0.4168E+00  0.4168E+00
      9.331  0.2388E-01  0.2388E-01  0.4219E+00  0.4219E+00
      9.508  0.6989E-02  0.6989E-02  0.4241E+00  0.4241E+00
      9.684  0.3871E-01  0.3871E-01  0.4272E+00  0.4272E+00
      9.861  0.1885E-01  0.1885E-01  0.4331E+00  0.4331E+00
     10.038  0.7755E-02  0.7755E-02  0.4346E+00  0.4346E+00
     10.214  0.4223E-01  0.4223E-01  0.4389E+00  0.4389E+00
     10.391  0.1247E-01  0.1247E-01  0.4440E+00  0.4440E+00
     10.567  0.2253E-01  0.2253E-01  0.4467E+00  0.4467E+00
     10.744  0.3041E-01  0.3041E-01  0.4521E+00  0.4521E+00
     10.920  0.3103E-01  0.3103E-01  0.4563E+00  0.4563E+00
     11.097  0.2328E-01  0.2328E-01  0.4611E+00  0.4611E+00
     11.274  0.3319E-01  0.3319E-01  0.4654E+00  0.4654E+00
     11.450  0.2076E-01  0.2076E-01  0.4704E+00  0.4704E+00
     11.627  0.2111E-01  0.2111E-01  0.4740E+00  0.4740E+00
     11.803  0.2931E-01  0.2931E-01  0.4787E+00  0.4787E+00
     11.980  0.1162E-01  0.1162E-01  0.4826E+00  0.4826E+00
     12.157  0.5707E-02  0.5707E-02  0.4842E+00  0.4842E+00
     12.333  0.1018E-02  0.1018E-02  0.4848E+00  0.4848E+00
     12.510  0.0000E+00  0.0000E+00  0.4848E+00  0.4848E+00
     12.686  0.0000E+00  0.0000E+00  0.4848E+00  0.4848E+00
     12.863  0.0000E+00  0.0000E+00  0.4848E+00  0.4848E+00
     13.039  0.0000E+00  0.0000E+00  0.4848E+00  0.4848E+00
     13.216  0.0000E+00  0.0000E+00  0.4848E+00  0.4848E+00
     13.393  0.0000E+00  0.0000E+00  0.4848E+00  0.4848E+00
     13.569  0.0000E+00  0.0000E+00  0.4848E+00  0.4848E+00
     13.746  0.0000E+00  0.0000E+00  0.4848E+00  0.4848E+00
     13.922  0.0000E+00  0.0000E+00  0.4848E+00  0.4848E+00
     14.099  0.0000E+00  0.0000E+00  0.4848E+00  0.4848E+00
     14.275  0.0000E+00  0.0000E+00  0.4848E+00  0.4848E+00
     14.452  0.0000E+00  0.0000E+00  0.4848E+00  0.4848E+00
     14.629  0.0000E+00  0.0000E+00  0.4848E+00  0.4848E+00
     14.805  0.0000E+00  0.0000E+00  0.4848E+00  0.4848E+00
     14.80516423    -38.16780212  301     -2.27861742      1.00000000
    -38.168  0.0000E+00  0.0000E+00  0.0000E+00  0.0000E+00  0.0000E+00  0.0000E+00  0.0000E+00  0.0000E+00  0.0000E+00  0.0000E+00  0.0000E+00  0.0000E+00  0.0000E+00  0.0000E+00  0.0000E+00  0.0000E+00  0.0000E+00  0.0000E+00
    -37.991  0.0000E+00  0.0000E+00  0.0000E+00  0.0000E+00  0.0000E+00  0.0000E+00  0.0000E+00  0.0000E+00  0.0000E+00  0.0000E+00  0.0000E+00  0.0000E+00  0.0000E+00  0.0000E+00  0.0000E+00  0.0000E+00  0.0000E+00  0.0000E+00
    -37.815  0.0000E+00  0.0000E+00  0.0000E+00  0.0000E+00  0.0000E+00  0.0000E+00  0.0000E+00  0.0000E+00  0.0000E+00  0.0000E+00  0.0000E+00  0.0000E+00  0.0000E+00  0.0000E+00  0.0000E+00  0.0000E+00  0.0000E+00  0.0000E+00
    -37.638  0.0000E+00  0.0000E+00  0.0000E+00  0.0000E+00  0.0000E+00  0.0000E+00  0.0000E+00  0.0000E+00  0.0000E+00  0.0000E+00  0.0000E+00  0.0000E+00  0.0000E+00  0.0000E+00  0.0000E+00  0.0000E+00  0.0000E+00  0.0000E+00
    -37.461  0.0000E+00  0.0000E+00  0.0000E+00  0.0000E+00  0.0000E+00  0.0000E+00  0.0000E+00  0.0000E+00  0.0000E+00  0.0000E+00  0.0000E+00  0.0000E+00  0.0000E+00  0.0000E+00  0.0000E+00  0.0000E+00  0.0000E+00  0.0000E+00
    -37.285  0.0000E+00  0.0000E+00  0.0000E+00  0.0000E+00  0.0000E+00  0.0000E+00  0.0000E+00  0.0000E+00  0.0000E+00  0.0000E+00  0.0000E+00  0.0000E+00  0.0000E+00  0.0000E+00  0.0000E+00  0.0000E+00  0.0000E+00  0.0000E+00
    -37.108  0.0000E+00  0.0000E+00  0.0000E+00  0.0000E+00  0.0000E+00  0.0000E+00  0.0000E+00  0.0000E+00  0.0000E+00  0.0000E+00  0.0000E+00  0.0000E+00  0.0000E+00  0.0000E+00  0.0000E+00  0.0000E+00  0.0000E+00  0.0000E+00
    -36.932  0.0000E+00  0.0000E+00  0.0000E+00  0.0000E+00  0.0000E+00  0.0000E+00  0.0000E+00  0.0000E+00  0.0000E+00  0.0000E+00  0.0000E+00  0.0000E+00  0.0000E+00  0.0000E+00  0.0000E+00  0.0000E+00  0.0000E+00  0.0000E+00
    -36.755  0.0000E+00  0.0000E+00  0.0000E+00  0.0000E+00  0.0000E+00  0.0000E+00  0.0000E+00  0.0000E+00  0.0000E+00  0.0000E+00  0.0000E+00  0.0000E+00  0.0000E+00  0.0000E+00  0.0000E+00  0.0000E+00  0.0000E+00  0.0000E+00
    -36.579  0.0000E+00  0.0000E+00  0.0000E+00  0.0000E+00  0.0000E+00  0.0000E+00  0.0000E+00  0.0000E+00  0.0000E+00  0.0000E+00  0.0000E+00  0.0000E+00  0.0000E+00  0.0000E+00  0.0000E+00  0.0000E+00  0.0000E+00  0.0000E+00
    -36.402  0.0000E+00  0.0000E+00  0.0000E+00  0.0000E+00  0.0000E+00  0.0000E+00  0.0000E+00  0.0000E+00  0.0000E+00  0.0000E+00  0.0000E+00  0.0000E+00  0.0000E+00  0.0000E+00  0.0000E+00  0.0000E+00  0.0000E+00  0.0000E+00
    -36.225  0.0000E+00  0.0000E+00  0.0000E+00  0.0000E+00  0.0000E+00  0.0000E+00  0.0000E+00  0.0000E+00  0.0000E+00  0.0000E+00  0.0000E+00  0.0000E+00  0.0000E+00  0.0000E+00  0.0000E+00  0.0000E+00  0.0000E+00  0.0000E+00
    -36.049  0.0000E+00  0.0000E+00  0.0000E+00  0.0000E+00  0.0000E+00  0.0000E+00  0.0000E+00  0.0000E+00  0.0000E+00  0.0000E+00  0.0000E+00  0.0000E+00  0.0000E+00  0.0000E+00  0.0000E+00  0.0000E+00  0.0000E+00  0.0000E+00
    -35.872  0.0000E+00  0.0000E+00  0.0000E+00  0.0000E+00  0.0000E+00  0.0000E+00  0.0000E+00  0.0000E+00  0.0000E+00  0.0000E+00  0.0000E+00  0.0000E+00  0.0000E+00  0.0000E+00  0.0000E+00  0.0000E+00  0.0000E+00  0.0000E+00
    -35.696  0.0000E+00  0.0000E+00  0.0000E+00  0.0000E+00  0.0000E+00  0.0000E+00  0.0000E+00  0.0000E+00  0.0000E+00  0.0000E+00  0.0000E+00  0.0000E+00  0.0000E+00  0.0000E+00  0.0000E+00  0.0000E+00  0.0000E+00  0.0000E+00
    -35.519  0.0000E+00  0.0000E+00  0.0000E+00  0.0000E+00  0.0000E+00  0.0000E+00  0.0000E+00  0.0000E+00  0.0000E+00  0.0000E+00  0.0000E+00  0.0000E+00  0.0000E+00  0.0000E+00  0.0000E+00  0.0000E+00  0.0000E+00  0.0000E+00
    -35.343  0.0000E+00  0.0000E+00  0.0000E+00  0.0000E+00  0.0000E+00  0.0000E+00  0.0000E+00  0.0000E+00  0.0000E+00  0.0000E+00  0.0000E+00  0.0000E+00  0.0000E+00  0.0000E+00  0.0000E+00  0.0000E+00  0.0000E+00  0.0000E+00
    -35.166  0.0000E+00  0.0000E+00  0.0000E+00  0.0000E+00  0.0000E+00  0.0000E+00  0.0000E+00  0.0000E+00  0.0000E+00  0.0000E+00  0.0000E+00  0.0000E+00  0.0000E+00  0.0000E+00  0.0000E+00  0.0000E+00  0.0000E+00  0.0000E+00
    -34.989  0.0000E+00  0.0000E+00  0.0000E+00  0.0000E+00  0.0000E+00  0.0000E+00  0.0000E+00  0.0000E+00  0.0000E+00  0.0000E+00  0.0000E+00  0.0000E+00  0.0000E+00  0.0000E+00  0.0000E+00  0.0000E+00  0.0000E+00  0.0000E+00
    -34.813  0.0000E+00  0.0000E+00  0.0000E+00  0.0000E+00  0.0000E+00  0.0000E+00  0.0000E+00  0.0000E+00  0.0000E+00  0.0000E+00  0.0000E+00  0.0000E+00  0.0000E+00  0.0000E+00  0.0000E+00  0.0000E+00  0.0000E+00  0.0000E+00
    -34.636  0.0000E+00  0.0000E+00  0.0000E+00  0.0000E+00  0.0000E+00  0.0000E+00  0.0000E+00  0.0000E+00  0.0000E+00  0.0000E+00  0.0000E+00  0.0000E+00  0.0000E+00  0.0000E+00  0.0000E+00  0.0000E+00  0.0000E+00  0.0000E+00
    -34.460  0.0000E+00  0.0000E+00  0.0000E+00  0.0000E+00  0.0000E+00  0.0000E+00  0.0000E+00  0.0000E+00  0.0000E+00  0.0000E+00  0.0000E+00  0.0000E+00  0.0000E+00  0.0000E+00  0.0000E+00  0.0000E+00  0.0000E+00  0.0000E+00
    -34.283  0.0000E+00  0.0000E+00  0.0000E+00  0.0000E+00  0.0000E+00  0.0000E+00  0.0000E+00  0.0000E+00  0.0000E+00  0.0000E+00  0.0000E+00  0.0000E+00  0.0000E+00  0.0000E+00  0.0000E+00  0.0000E+00  0.0000E+00  0.0000E+00
    -34.107  0.0000E+00  0.0000E+00  0.0000E+00  0.0000E+00  0.0000E+00  0.0000E+00  0.0000E+00  0.0000E+00  0.0000E+00  0.0000E+00  0.0000E+00  0.0000E+00  0.0000E+00  0.0000E+00  0.0000E+00  0.0000E+00  0.0000E+00  0.0000E+00
    -33.930  0.0000E+00  0.0000E+00  0.0000E+00  0.0000E+00  0.0000E+00  0.0000E+00  0.0000E+00  0.0000E+00  0.0000E+00  0.0000E+00  0.0000E+00  0.0000E+00  0.0000E+00  0.0000E+00  0.0000E+00  0.0000E+00  0.0000E+00  0.0000E+00
    -33.753  0.0000E+00  0.0000E+00  0.0000E+00  0.0000E+00  0.0000E+00  0.0000E+00  0.0000E+00  0.0000E+00  0.0000E+00  0.0000E+00  0.0000E+00  0.0000E+00  0.0000E+00  0.0000E+00  0.0000E+00  0.0000E+00  0.0000E+00  0.0000E+00
    -33.577  0.0000E+00  0.0000E+00  0.0000E+00  0.0000E+00  0.0000E+00  0.0000E+00  0.0000E+00  0.0000E+00  0.0000E+00  0.0000E+00  0.0000E+00  0.0000E+00  0.0000E+00  0.0000E+00  0.0000E+00  0.0000E+00  0.0000E+00  0.0000E+00
    -33.400  0.0000E+00  0.0000E+00  0.0000E+00  0.0000E+00  0.0000E+00  0.0000E+00  0.0000E+00  0.0000E+00  0.0000E+00  0.0000E+00  0.0000E+00  0.0000E+00  0.0000E+00  0.0000E+00  0.0000E+00  0.0000E+00  0.0000E+00  0.0000E+00
    -33.224  0.0000E+00  0.0000E+00  0.0000E+00  0.0000E+00  0.0000E+00  0.0000E+00  0.0000E+00  0.0000E+00  0.0000E+00  0.0000E+00  0.0000E+00  0.0000E+00  0.0000E+00  0.0000E+00  0.0000E+00  0.0000E+00  0.0000E+00  0.0000E+00
    -33.047  0.0000E+00  0.0000E+00  0.0000E+00  0.0000E+00  0.0000E+00  0.0000E+00  0.0000E+00  0.0000E+00  0.0000E+00  0.0000E+00  0.0000E+00  0.0000E+00  0.0000E+00  0.0000E+00  0.0000E+00  0.0000E+00  0.0000E+00  0.0000E+00
    -32.871  0.0000E+00  0.0000E+00  0.0000E+00  0.0000E+00  0.0000E+00  0.0000E+00  0.0000E+00  0.0000E+00  0.0000E+00  0.0000E+00  0.0000E+00  0.0000E+00  0.0000E+00  0.0000E+00  0.0000E+00  0.0000E+00  0.0000E+00  0.0000E+00
    -32.694  0.0000E+00  0.0000E+00  0.0000E+00  0.0000E+00  0.0000E+00  0.0000E+00  0.0000E+00  0.0000E+00  0.0000E+00  0.0000E+00  0.0000E+00  0.0000E+00  0.0000E+00  0.0000E+00  0.0000E+00  0.0000E+00  0.0000E+00  0.0000E+00
    -32.517  0.0000E+00  0.0000E+00  0.0000E+00  0.0000E+00  0.0000E+00  0.0000E+00  0.0000E+00  0.0000E+00  0.0000E+00  0.0000E+00  0.0000E+00  0.0000E+00  0.0000E+00  0.0000E+00  0.0000E+00  0.0000E+00  0.0000E+00  0.0000E+00
    -32.341  0.0000E+00  0.0000E+00  0.0000E+00  0.0000E+00  0.0000E+00  0.0000E+00  0.0000E+00  0.0000E+00  0.0000E+00  0.0000E+00  0.0000E+00  0.0000E+00  0.0000E+00  0.0000E+00  0.0000E+00  0.0000E+00  0.0000E+00  0.0000E+00
    -32.164  0.0000E+00  0.0000E+00  0.0000E+00  0.0000E+00  0.0000E+00  0.0000E+00  0.0000E+00  0.0000E+00  0.0000E+00  0.0000E+00  0.0000E+00  0.0000E+00  0.0000E+00  0.0000E+00  0.0000E+00  0.0000E+00  0.0000E+00  0.0000E+00
    -31.988  0.0000E+00  0.0000E+00  0.0000E+00  0.0000E+00  0.0000E+00  0.0000E+00  0.0000E+00  0.0000E+00  0.0000E+00  0.0000E+00  0.0000E+00  0.0000E+00  0.0000E+00  0.0000E+00  0.0000E+00  0.0000E+00  0.0000E+00  0.0000E+00
    -31.811  0.0000E+00  0.0000E+00  0.0000E+00  0.0000E+00  0.0000E+00  0.0000E+00  0.0000E+00  0.0000E+00  0.0000E+00  0.0000E+00  0.0000E+00  0.0000E+00  0.0000E+00  0.0000E+00  0.0000E+00  0.0000E+00  0.0000E+00  0.0000E+00
    -31.634  0.0000E+00  0.0000E+00  0.0000E+00  0.0000E+00  0.0000E+00  0.0000E+00  0.0000E+00  0.0000E+00  0.0000E+00  0.0000E+00  0.0000E+00  0.0000E+00  0.0000E+00  0.0000E+00  0.0000E+00  0.0000E+00  0.0000E+00  0.0000E+00
    -31.458  0.0000E+00  0.0000E+00  0.0000E+00  0.0000E+00  0.0000E+00  0.0000E+00  0.0000E+00  0.0000E+00  0.0000E+00  0.0000E+00  0.0000E+00  0.0000E+00  0.0000E+00  0.0000E+00  0.0000E+00  0.0000E+00  0.0000E+00  0.0000E+00
    -31.281  0.0000E+00  0.0000E+00  0.0000E+00  0.0000E+00  0.0000E+00  0.0000E+00  0.0000E+00  0.0000E+00  0.0000E+00  0.0000E+00  0.0000E+00  0.0000E+00  0.0000E+00  0.0000E+00  0.0000E+00  0.0000E+00  0.0000E+00  0.0000E+00
    -31.105  0.0000E+00  0.0000E+00  0.0000E+00  0.0000E+00  0.0000E+00  0.0000E+00  0.0000E+00  0.0000E+00  0.0000E+00  0.0000E+00  0.0000E+00  0.0000E+00  0.0000E+00  0.0000E+00  0.0000E+00  0.0000E+00  0.0000E+00  0.0000E+00
    -30.928  0.0000E+00  0.0000E+00  0.0000E+00  0.0000E+00  0.0000E+00  0.0000E+00  0.0000E+00  0.0000E+00  0.0000E+00  0.0000E+00  0.0000E+00  0.0000E+00  0.0000E+00  0.0000E+00  0.0000E+00  0.0000E+00  0.0000E+00  0.0000E+00
    -30.752  0.0000E+00  0.0000E+00  0.0000E+00  0.0000E+00  0.0000E+00  0.0000E+00  0.0000E+00  0.0000E+00  0.0000E+00  0.0000E+00  0.0000E+00  0.0000E+00  0.0000E+00  0.0000E+00  0.0000E+00  0.0000E+00  0.0000E+00  0.0000E+00
    -30.575  0.0000E+00  0.0000E+00  0.0000E+00  0.0000E+00  0.0000E+00  0.0000E+00  0.0000E+00  0.0000E+00  0.0000E+00  0.0000E+00  0.0000E+00  0.0000E+00  0.0000E+00  0.0000E+00  0.0000E+00  0.0000E+00  0.0000E+00  0.0000E+00
    -30.398  0.0000E+00  0.0000E+00  0.0000E+00  0.0000E+00  0.0000E+00  0.0000E+00  0.0000E+00  0.0000E+00  0.0000E+00  0.0000E+00  0.0000E+00  0.0000E+00  0.0000E+00  0.0000E+00  0.0000E+00  0.0000E+00  0.0000E+00  0.0000E+00
    -30.222  0.0000E+00  0.0000E+00  0.0000E+00  0.0000E+00  0.0000E+00  0.0000E+00  0.0000E+00  0.0000E+00  0.0000E+00  0.0000E+00  0.0000E+00  0.0000E+00  0.0000E+00  0.0000E+00  0.0000E+00  0.0000E+00  0.0000E+00  0.0000E+00
    -30.045  0.0000E+00  0.0000E+00  0.0000E+00  0.0000E+00  0.0000E+00  0.0000E+00  0.0000E+00  0.0000E+00  0.0000E+00  0.0000E+00  0.0000E+00  0.0000E+00  0.0000E+00  0.0000E+00  0.0000E+00  0.0000E+00  0.0000E+00  0.0000E+00
    -29.869  0.0000E+00  0.0000E+00  0.0000E+00  0.0000E+00  0.0000E+00  0.0000E+00  0.0000E+00  0.0000E+00  0.0000E+00  0.0000E+00  0.0000E+00  0.0000E+00  0.0000E+00  0.0000E+00  0.0000E+00  0.0000E+00  0.0000E+00  0.0000E+00
    -29.692  0.0000E+00  0.0000E+00  0.0000E+00  0.0000E+00  0.0000E+00  0.0000E+00  0.0000E+00  0.0000E+00  0.0000E+00  0.0000E+00  0.0000E+00  0.0000E+00  0.0000E+00  0.0000E+00  0.0000E+00  0.0000E+00  0.0000E+00  0.0000E+00
    -29.516  0.0000E+00  0.0000E+00  0.0000E+00  0.0000E+00  0.0000E+00  0.0000E+00  0.0000E+00  0.0000E+00  0.0000E+00  0.0000E+00  0.0000E+00  0.0000E+00  0.0000E+00  0.0000E+00  0.0000E+00  0.0000E+00  0.0000E+00  0.0000E+00
    -29.339  0.0000E+00  0.0000E+00  0.0000E+00  0.0000E+00  0.0000E+00  0.0000E+00  0.0000E+00  0.0000E+00  0.0000E+00  0.0000E+00  0.0000E+00  0.0000E+00  0.0000E+00  0.0000E+00  0.0000E+00  0.0000E+00  0.0000E+00  0.0000E+00