       N       E                     dE             d eps       ncg     rms          rms(c)
DAV:   1     0.169043182528E+03    0.16904E+03   -0.13772E+04 15096   0.699E+02
DAV:   2    -0.376272330571E+02   -0.20667E+03   -0.20061E+03 18152   0.268E+02
DAV:   3    -0.524456740461E+02   -0.14818E+02   -0.14657E+02 22792   0.544E+01
DAV:   4    -0.534202262160E+02   -0.97455E+00   -0.96952E+00 24312   0.121E+01
DAV:   5    -0.534416581667E+02   -0.21432E-01   -0.21426E-01 22216   0.166E+00    0.341E+01
DAV:   6    -0.506632384953E+02    0.27784E+01   -0.79443E+00 21616   0.128E+01    0.152E+01
DAV:   7    -0.500530387671E+02    0.61020E+00   -0.41845E+00 22168   0.732E+00    0.999E+00
DAV:   8    -0.498592299841E+02    0.19381E+00   -0.11800E+00 21944   0.512E+00    0.261E+00
DAV:   9    -0.498528037227E+02    0.64263E-02   -0.89755E-02 20224   0.142E+00    0.628E-01
DAV:  10    -0.498512509507E+02    0.15528E-02   -0.16647E-02 21744   0.589E-01    0.308E-01
DAV:  11    -0.498515611062E+02   -0.31016E-03   -0.12220E-03 20328   0.172E-01    0.969E-02
DAV:  12    -0.498516829527E+02   -0.12185E-03   -0.22185E-04 16104   0.695E-02    0.425E-02
DAV:  13    -0.498517214517E+02   -0.38499E-04   -0.53503E-05 13528   0.414E-02
   1 F= -.49851721E+02 E0= -.49852120E+02  d E =-.498517E+02
       N       E                     dE             d eps       ncg     rms          rms(c)
DAV:   1    -0.498527793018E+02   -0.10963E-02   -0.11565E-01 17104   0.215E+00    0.217E-01
DAV:   2    -0.498528304759E+02   -0.51174E-04   -0.91571E-03 18312   0.480E-01    0.110E-01
DAV:   3    -0.498526412326E+02    0.18924E-03   -0.36522E-04 20152   0.104E-01    0.493E-02
DAV:   4    -0.498526093915E+02    0.31841E-04   -0.12337E-04 13592   0.652E-02
   2 F= -.49852609E+02 E0= -.49853003E+02  d E =-.887940E-03
       N       E                     dE             d eps       ncg     rms          rms(c)
DAV:   1    -0.498528681858E+02   -0.22695E-03   -0.10865E-02 17104   0.653E-01    0.670E-02
DAV:   2    -0.498528740418E+02   -0.58560E-05   -0.84724E-04 18304   0.147E-01
   3 F= -.49852874E+02 E0= -.49853269E+02  d E =-.115259E-02
       N       E                     dE             d eps       ncg     rms          rms(c)
DAV:   1    -0.498548478990E+02   -0.19797E-02   -0.11012E-01 15352   0.214E+00    0.252E-01
DAV:   2    -0.498546327514E+02    0.21515E-03   -0.10427E-02 18288   0.514E-01    0.103E-01
DAV:   3    -0.498544347489E+02    0.19800E-03   -0.50960E-04 19624   0.111E-01    0.567E-02
DAV:   4    -0.498543857760E+02    0.48973E-04   -0.11445E-04 12368   0.659E-02
   4 F= -.49854386E+02 E0= -.49854780E+02  d E =-.151173E-02
       N       E                     dE             d eps       ncg     rms          rms(c)
DAV:   1    -0.498597811000E+02   -0.53464E-02   -0.98407E-01 15992   0.640E+00    0.773E-01
DAV:   2    -0.498568126267E+02    0.29685E-02   -0.89207E-02 18288   0.149E+00    0.320E-01
DAV:   3    -0.498548385371E+02    0.19741E-02   -0.49208E-03 21584   0.339E-01    0.175E-01
DAV:   4    -0.498544421396E+02    0.39640E-03   -0.12769E-03 22312   0.191E-01    0.106E-01
DAV:   5    -0.498544262101E+02    0.15929E-04   -0.15793E-04 13544   0.721E-02
   5 F= -.49854426E+02 E0= -.49854810E+02  d E =-.155217E-02
       N       E                     dE             d eps       ncg     rms          rms(c)
DAV:   1    -0.498561392250E+02   -0.16971E-02   -0.17465E-01 14976   0.269E+00    0.327E-01
DAV:   2    -0.498557127769E+02    0.42645E-03   -0.16928E-02 18344   0.653E-01    0.141E-01
DAV:   3    -0.498553554609E+02    0.35732E-03   -0.89262E-04 20168   0.150E-01    0.771E-02
DAV:   4    -0.498552605555E+02    0.94905E-04   -0.20215E-04 12936   0.853E-02
   6 F= -.49855261E+02 E0= -.49855652E+02  d E =-.238651E-02
       N       E                     dE             d eps       ncg     rms          rms(c)
DAV:   1    -0.498561538199E+02   -0.79836E-03   -0.31251E-02 14608   0.109E+00    0.120E-01
DAV:   2    -0.498560981721E+02    0.55648E-04   -0.22499E-03 18232   0.252E-01    0.510E-02
DAV:   3    -0.498560538326E+02    0.44339E-04   -0.95778E-05 11400   0.520E-02
   7 F= -.49856054E+02 E0= -.49856440E+02  d E =-.793277E-03
       N       E                     dE             d eps       ncg     rms          rms(c)
DAV:   1    -0.498588135593E+02   -0.27154E-02   -0.27502E-01 14592   0.324E+00    0.356E-01
DAV:   2    -0.498580273085E+02    0.78625E-03   -0.19564E-02 18232   0.730E-01    0.156E-01
DAV:   3    -0.498575527342E+02    0.47457E-03   -0.10906E-03 20792   0.165E-01    0.763E-02
DAV:   4    -0.498574690529E+02    0.83681E-04   -0.21099E-04 12984   0.894E-02
   8 F= -.49857469E+02 E0= -.49857844E+02  d E =-.220850E-02
       N       E                     dE             d eps       ncg     rms          rms(c)
DAV:   1    -0.498580888904E+02   -0.53616E-03   -0.28978E-02 16416   0.121E+00    0.103E-01
DAV:   2    -0.498583700360E+02   -0.28115E-03   -0.41117E-03 16448   0.302E-01    0.495E-02
DAV:   3    -0.498583547843E+02    0.15252E-04   -0.10808E-04 13800   0.542E-02
   9 F= -.49858355E+02 E0= -.49858729E+02  d E =-.885731E-03
       N       E                     dE             d eps       ncg     rms          rms(c)
DAV:   1    -0.498569959709E+02    0.13741E-02   -0.25997E-01 16352   0.360E+00    0.288E-01
DAV:   2    -0.498595732093E+02   -0.25772E-02   -0.37470E-02 15272   0.904E-01    0.138E-01
DAV:   3    -0.498594593281E+02    0.11388E-03   -0.10974E-03 21832   0.157E-01    0.894E-02
DAV:   4    -0.498594108215E+02    0.48507E-04   -0.14148E-04 13032   0.791E-02
  10 F= -.49859411E+02 E0= -.49859780E+02  d E =-.194177E-02
       N       E                     dE             d eps       ncg     rms          rms(c)
DAV:   1    -0.498599251363E+02   -0.46581E-03   -0.43415E-02 14912   0.142E+00    0.123E-01
DAV:   2    -0.498601741787E+02   -0.24904E-03   -0.46849E-03 17856   0.349E-01    0.673E-02
DAV:   3    -0.498601524675E+02    0.21711E-04   -0.14777E-04 14440   0.628E-02
  11 F= -.49860152E+02 E0= -.49860524E+02  d E =-.741646E-03
       N       E                     dE             d eps       ncg     rms          rms(c)
DAV:   1    -0.498595388931E+02    0.63529E-03   -0.19305E-01 15000   0.296E+00    0.245E-01
DAV:   2    -0.498607133261E+02   -0.11744E-02   -0.21090E-02 17816   0.737E-01    0.118E-01
DAV:   3    -0.498606373064E+02    0.76020E-04   -0.73558E-04 22304   0.131E-01
  12 F= -.49860637E+02 E0= -.49861012E+02  d E =-.122648E-02
       N       E                     dE             d eps       ncg     rms          rms(c)
DAV:   1    -0.498610542677E+02   -0.34094E-03   -0.20357E-02 14592   0.919E-01    0.101E-01
DAV:   2    -0.498610866975E+02   -0.32430E-04   -0.19542E-03 18320   0.245E-01    0.586E-02
DAV:   3    -0.498610661282E+02    0.20569E-04   -0.84524E-05 12152   0.492E-02
  13 F= -.49861066E+02 E0= -.49861442E+02  d E =-.428822E-03
       N       E                     dE             d eps       ncg     rms          rms(c)
DAV:   1    -0.498618200034E+02   -0.73331E-03   -0.18930E-01 14592   0.280E+00    0.283E-01
DAV:   2    -0.498622980168E+02   -0.47801E-03   -0.18630E-02 18184   0.754E-01    0.127E-01
DAV:   3    -0.498621555068E+02    0.14251E-03   -0.92051E-04 22224   0.150E-01    0.857E-02
DAV:   4    -0.498621003621E+02    0.55145E-04   -0.12744E-04 12816   0.722E-02
  14 F= -.49862100E+02 E0= -.49862480E+02  d E =-.146306E-02
       N       E                     dE             d eps       ncg     rms          rms(c)
DAV:   1    -0.498626494475E+02   -0.49394E-03   -0.12823E-02 16384   0.791E-01    0.727E-02
DAV:   2    -0.498627798526E+02   -0.13041E-03   -0.17236E-03 17328   0.189E-01    0.425E-02
DAV:   3    -0.498627753162E+02    0.45364E-05   -0.39656E-05 11064   0.333E-02
  15 F= -.49862775E+02 E0= -.49863155E+02  d E =-.674954E-03
       N       E                     dE             d eps       ncg     rms          rms(c)
DAV:   1    -0.498627429760E+02    0.36877E-04   -0.51756E-02 16376   0.159E+00    0.111E-01
DAV:   2    -0.498632769169E+02   -0.53394E-03   -0.69276E-03 16536   0.372E-01    0.568E-02
DAV:   3    -0.498632635936E+02    0.13323E-04   -0.14424E-04 16928   0.583E-02
  16 F= -.49863264E+02 E0= -.49863645E+02  d E =-.116323E-02
       N       E                     dE             d eps       ncg     rms          rms(c)
DAV:   1    -0.498637653900E+02   -0.48847E-03   -0.21396E-02 15656   0.104E+00    0.132E-01
DAV:   2    -0.498638034043E+02   -0.38014E-04   -0.35401E-03 17952   0.299E-01    0.538E-02
DAV:   3    -0.498637604697E+02    0.42935E-04   -0.17918E-04 14096   0.680E-02
  17 F= -.49863760E+02 E0= -.49864141E+02  d E =-.496876E-03
       N       E                     dE             d eps       ncg     rms          rms(c)
DAV:   1    -0.498641161800E+02   -0.31278E-03   -0.19512E-01 16016   0.313E+00    0.413E-01
DAV:   2    -0.498643716737E+02   -0.25549E-03   -0.32146E-02 17456   0.904E-01    0.156E-01
DAV:   3    -0.498639983464E+02    0.37333E-03   -0.19059E-03 21840   0.206E-01    0.104E-01
DAV:   4    -0.498639093949E+02    0.88951E-04   -0.40957E-04 19968   0.105E-01
  18 F= -.49863909E+02 E0= -.49864289E+02  d E =-.645801E-03
