       N       E                     dE             d eps       ncg     rms          rms(c)
DAV:   1     0.490746066202E+03    0.49075E+03   -0.28174E+04  8256   0.120E+03
DAV:   2    -0.492870417599E+02   -0.54003E+03   -0.50984E+03  8448   0.428E+02
DAV:   3    -0.890961746859E+02   -0.39809E+02   -0.38234E+02 14528   0.987E+01
DAV:   4    -0.904969330009E+02   -0.14008E+01   -0.13903E+01 11232   0.141E+01
DAV:   5    -0.905597627477E+02   -0.62830E-01   -0.62782E-01 14592   0.314E+00    0.509E+01
RMM:   6    -0.896710809320E+02    0.88868E+00   -0.16557E+01  9482   0.166E+01    0.211E+01
RMM:   7    -0.901707325190E+02   -0.49965E+00   -0.48712E+00  9398   0.102E+01    0.820E+00
RMM:   8    -0.901131456343E+02    0.57587E-01   -0.69439E-01  9575   0.486E+00    0.515E+00
RMM:   9    -0.900549024157E+02    0.58243E-01   -0.16841E-01  9808   0.191E+00    0.270E+00
RMM:  10    -0.900572285205E+02   -0.23261E-02   -0.54419E-02  9725   0.107E+00    0.133E+00
RMM:  11    -0.900535729819E+02    0.36555E-02   -0.22201E-02  9354   0.716E-01    0.533E-01
RMM:  12    -0.900526532972E+02    0.91968E-03   -0.42134E-03  7131   0.342E-01
   1 F= -.90052653E+02 E0= -.90052653E+02  d E =-.900527E+02  mag=     0.0004
       N       E                     dE             d eps       ncg     rms          rms(c)
DAV:   1    -0.903999190008E+02   -0.34635E+00   -0.60627E+00 11008   0.158E+01    0.614E+00
RMM:   2    -0.901674306971E+02    0.23249E+00   -0.79086E-01  9747   0.483E+00    0.126E+00
RMM:   3    -0.901395351976E+02    0.27895E-01   -0.91899E-02  9582   0.202E+00    0.793E-01
RMM:   4    -0.901338668163E+02    0.56684E-02   -0.19917E-02  9267   0.816E-01    0.711E-01
RMM:   5    -0.901309149371E+02    0.29519E-02   -0.42603E-03  6676   0.511E-01    0.663E-01
RMM:   6    -0.901305323058E+02    0.38263E-03   -0.36987E-03  6443   0.345E-01
   2 F= -.90130532E+02 E0= -.90130532E+02  d E =-.778790E-01  mag=     0.0000
       N       E                     dE             d eps       ncg     rms          rms(c)
DAV:   1    -0.902985217371E+02   -0.16761E+00   -0.35436E+00  8496   0.120E+01    0.471E+00
RMM:   2    -0.901568528474E+02    0.14167E+00   -0.45764E-01  9577   0.369E+00    0.961E-01
RMM:   3    -0.901417062237E+02    0.15147E-01   -0.58107E-02  9478   0.161E+00    0.614E-01
RMM:   4    -0.901379533576E+02    0.37529E-02   -0.12323E-02  8769   0.621E-01    0.537E-01
RMM:   5    -0.901362347817E+02    0.17186E-02   -0.26015E-03  6018   0.456E-01    0.540E-01
RMM:   6    -0.901361696366E+02    0.65145E-04   -0.13195E-03  5660   0.257E-01
   3 F= -.90136170E+02 E0= -.90136170E+02  d E =-.835163E-01  mag=     0.0000
       N       E                     dE             d eps       ncg     rms          rms(c)
DAV:   1    -0.901642140761E+02   -0.27979E-01   -0.23551E+00  9632   0.116E+01    0.158E+00
RMM:   2    -0.901646987223E+02   -0.48465E-03   -0.29553E-01  9728   0.290E+00    0.524E-01
RMM:   3    -0.901629482863E+02    0.17504E-02   -0.23758E-02  8704   0.148E+00    0.448E-01
RMM:   4    -0.901615633895E+02    0.13849E-02   -0.50733E-03  6887   0.434E-01    0.515E-01
RMM:   5    -0.901614885351E+02    0.74854E-04   -0.90966E-04  5600   0.336E-01
   4 F= -.90161489E+02 E0= -.90161489E+02  d E =-.253189E-01  mag=     0.0000
       N       E                     dE             d eps       ncg     rms          rms(c)
DAV:   1    -0.901686560280E+02   -0.70926E-02   -0.12168E+00  9760   0.833E+00    0.100E+00
RMM:   2    -0.901686739999E+02   -0.17972E-04   -0.15311E-01  9740   0.210E+00    0.461E-01
RMM:   3    -0.901674738203E+02    0.12002E-02   -0.11883E-02  7776   0.107E+00    0.475E-01
RMM:   4    -0.901669193899E+02    0.55443E-03   -0.24627E-03  6237   0.350E-01
   5 F= -.90166919E+02 E0= -.90166919E+02  d E =-.307498E-01  mag=     0.0000
       N       E                     dE             d eps       ncg     rms          rms(c)
DAV:   1    -0.901749925844E+02   -0.75188E-02   -0.14317E+00  9664   0.897E+00    0.636E-01
RMM:   2    -0.901839681787E+02   -0.89756E-02   -0.17073E-01  9768   0.212E+00    0.445E-01
RMM:   3    -0.901833835116E+02    0.58467E-03   -0.11609E-02  7576   0.115E+00    0.502E-01
RMM:   4    -0.901829923217E+02    0.39119E-03   -0.20927E-03  6039   0.324E-01
   6 F= -.90182992E+02 E0= -.90182992E+02  d E =-.160729E-01  mag=     0.0000
       N       E                     dE             d eps       ncg     rms          rms(c)
DAV:   1    -0.901832015239E+02    0.18199E-03   -0.17583E-01 12384   0.313E+00    0.266E-01
RMM:   2    -0.901842535990E+02   -0.10521E-02   -0.21353E-02  9013   0.744E-01    0.189E-01
RMM:   3    -0.901842398981E+02    0.13701E-04   -0.14991E-03  5418   0.465E-01
   7 F= -.90184240E+02 E0= -.90184240E+02  d E =-.173205E-01  mag=    -0.0000
       N       E                     dE             d eps       ncg     rms          rms(c)
DAV:   1    -0.901800504385E+02    0.42032E-02   -0.17854E+00  9632   0.101E+01    0.737E-01
RMM:   2    -0.901972520509E+02   -0.17202E-01   -0.20776E-01  9676   0.222E+00    0.485E-01
RMM:   3    -0.901969299670E+02    0.32208E-03   -0.15958E-02  7961   0.135E+00    0.398E-01
RMM:   4    -0.901961476816E+02    0.78229E-03   -0.28701E-03  6141   0.328E-01
   8 F= -.90196148E+02 E0= -.90196148E+02  d E =-.119078E-01  mag=    -0.0000
       N       E                     dE             d eps       ncg     rms          rms(c)
DAV:   1    -0.901962130617E+02    0.71691E-03   -0.36242E-03 12320   0.479E-01    0.118E-01
RMM:   2    -0.901962299274E+02   -0.16866E-04   -0.45817E-04  4291   0.121E-01
   9 F= -.90196230E+02 E0= -.90196230E+02  d E =-.119900E-01  mag=    -0.0000
       N       E                     dE             d eps       ncg     rms          rms(c)
DAV:   1    -0.901977479433E+02   -0.15349E-02   -0.23252E-01  9712   0.365E+00    0.256E-01
RMM:   2    -0.901999791843E+02   -0.22312E-02   -0.27593E-02  8958   0.824E-01    0.160E-01
RMM:   3    -0.902000001284E+02   -0.20944E-04   -0.22831E-03  6049   0.620E-01
  10 F= -.90200000E+02 E0= -.90200000E+02  d E =-.377020E-02  mag=    -0.0000
       N       E                     dE             d eps       ncg     rms          rms(c)
DAV:   1    -0.901992249574E+02    0.75423E-03   -0.22961E-01  9632   0.364E+00    0.251E-01
RMM:   2    -0.902015457467E+02   -0.23208E-02   -0.28783E-02  9018   0.834E-01    0.158E-01
RMM:   3    -0.902015215846E+02    0.24162E-04   -0.23448E-03  6183   0.625E-01
  11 F= -.90201522E+02 E0= -.90201522E+02  d E =-.529166E-02  mag=    -0.0000
