unknown system                          
           1
     4.800373    0.013498   -0.014872
     0.205459    5.439935   -0.140936
     0.523017    0.275572    5.338654
   Sr   Nb   H 
   1   1  17
Direct configuration=     1
   0.24386100  0.13908400  0.63635500
   0.73982200  0.57205300  0.82206000
   0.24309300  0.07464400  0.11514900
   0.12574900  0.17508800  0.11586700
   0.48411800  0.45020800  0.10872900
   0.36702400  0.50279700  0.01973100
   0.84891900  0.39950800  0.08940500
   0.70141600  0.13947200  0.31459200
   0.86927800  0.69889100  0.13372800
   0.85316800  0.82446800  0.04971000
   0.10979000  0.53672400  0.81804900
   0.30792300  0.81147000  0.30181500
   0.36688100  0.73417400  0.40725600
   0.72224000  0.02186000  0.39302700
   0.50662700  0.50950800  0.58176600
   0.90311300  0.82485900  0.63887600
   0.72605700  0.23817600  0.79115400
   0.48890800  0.83788000  0.85357300
   0.91563500  0.48070000  0.52838000
unknown system                          
           1
     4.851495    0.014052   -0.017269
     0.208195    5.492248   -0.141854
     0.526114    0.278895    5.393768
   Sr   Nb   H 
   1   1  17
Direct configuration=     2
   0.24384092  0.13899553  0.63666604
   0.74054723  0.57160428  0.82106283
   0.24268740  0.07485025  0.11534117
   0.12589936  0.17484036  0.11611415
   0.48410955  0.45033497  0.10812335
   0.36774981  0.50273413  0.01986676
   0.84882148  0.39994737  0.08881100
   0.70142493  0.13901729  0.31486247
   0.86921311  0.69955459  0.13330226
   0.85332782  0.82408008  0.05027891
   0.10907269  0.53691417  0.81809493
   0.30800807  0.81132414  0.30202398
   0.36681194  0.73420442  0.40721686
   0.72202764  0.02242635  0.39267039
   0.50697676  0.50936722  0.58203150
   0.90252080  0.82434689  0.63927518
   0.72616969  0.23862656  0.79104280
   0.48922968  0.83776486  0.85336861
   0.91518310  0.48063054  0.52906882
unknown system                          
           1
     4.978355    0.015425   -0.023218
     0.214984    5.622061   -0.144132
     0.533799    0.287142    5.530534
   Sr   Nb   H 
   1   1  17
Direct configuration=     3
   0.24379203  0.13877803  0.63742999
   0.74232685  0.57050144  0.81861447
   0.24169170  0.07535725  0.11581270
   0.12626893  0.17423159  0.11672139
   0.48408806  0.45064718  0.10663575
   0.36953204  0.50257939  0.02020094
   0.84858120  0.40102744  0.08735187
   0.70144733  0.13789960  0.31552688
   0.86905306  0.70118574  0.13225637
   0.85372102  0.82312645  0.05167649
   0.10731150  0.53738174  0.81820699
   0.30821723  0.81096557  0.30253738
   0.36664234  0.73427923  0.40712064
   0.72150561  0.02381851  0.39179418
   0.50783588  0.50902105  0.58268399
   0.90106746  0.82308823  0.64025511
   0.72644608  0.23973397  0.79076971
   0.49001930  0.83748184  0.85286696
   0.91407439  0.48045978  0.53076021
unknown system                          
           1
     5.010888    0.020083   -0.029133
     0.221743    5.649952   -0.142239
     0.531151    0.292167    5.569397
   Sr   Nb   H 
   1   1  17
Direct configuration=     4
   0.24354300  0.13920394  0.63852024
   0.74307897  0.56991884  0.81940973
   0.23946064  0.07711058  0.11601010
   0.12815703  0.17252758  0.11691190
   0.48373771  0.45163593  0.10411426
   0.37230999  0.50214229  0.02065701
   0.84780309  0.40248611  0.08481244
   0.70146054  0.13697270  0.31617224
   0.86856508  0.70215178  0.13037306
   0.85363033  0.82145233  0.05202188
   0.10473243  0.53728083  0.81804702
   0.30950027  0.80935497  0.30495971
   0.36541759  0.73590162  0.40509856
   0.72103245  0.02493463  0.39114250
   0.50932049  0.50881796  0.58428643
   0.90014103  0.82158353  0.64143673
   0.72686991  0.24177326  0.79050528
   0.49182030  0.83585255  0.85198483
   0.91304115  0.48046255  0.53275808
unknown system                          
           1
     5.016847    0.020937   -0.030217
     0.222981    5.655062   -0.141893
     0.530666    0.293088    5.576516
   Sr   Nb   H 
   1   1  17
Direct configuration=     5
   0.24349786  0.13928151  0.63871848
   0.74321615  0.56981245  0.81955459
   0.23905432  0.07743052  0.11604545
   0.12850102  0.17221665  0.11694705
   0.48367316  0.45181647  0.10365542
   0.37281573  0.50206213  0.02074052
   0.84766060  0.40275237  0.08435023
   0.70146329  0.13680367  0.31628972
   0.86847563  0.70232813  0.13003030
   0.85361424  0.82114714  0.05208483
   0.10426306  0.53726286  0.81801746
   0.30973465  0.80906094  0.30540073
   0.36519391  0.73619776  0.40473036
   0.72094596  0.02513822  0.39102377
   0.50959109  0.50878055  0.58457821
   0.89997301  0.82130927  0.64165164
   0.72694657  0.24214496  0.79045708
   0.49214817  0.83555536  0.85182484
   0.91285359  0.48046302  0.53312132
unknown system                          
           1
     5.032336    0.022656   -0.033409
     0.225642    5.664227   -0.144713
     0.529018    0.291746    5.602423
   Sr   Nb   H 
   1   1  17
Direct configuration=     6
   0.24309582  0.14013816  0.64045928
   0.74314481  0.56982533  0.82005821
   0.23916747  0.07720623  0.11621066
   0.12810190  0.17250213  0.11711882
   0.48503512  0.45232776  0.10168775
   0.37473197  0.50234327  0.01984872
   0.84675990  0.40435899  0.08115664
   0.70120349  0.13717739  0.31611761
   0.86800611  0.70179657  0.12848239
   0.85312903  0.82040956  0.05111648
   0.10109599  0.53679386  0.81778458
   0.30957038  0.80938980  0.30527484
   0.36534576  0.73607289  0.40530147
   0.72058942  0.02499508  0.39125634
   0.51177463  0.50843948  0.58726391
   0.89905995  0.81929545  0.64337293
   0.72763192  0.24483375  0.79018321
   0.49470960  0.83314087  0.85050821
   0.91146871  0.48051744  0.53601994
unknown system                          
           1
     5.068317    0.026650   -0.040824
     0.231825    5.685520   -0.151264
     0.525190    0.288631    5.662608
   Sr   Nb   H 
   1   1  17
Direct configuration=     7
   0.24216698  0.14212716  0.64448503
   0.74298052  0.56985580  0.82122270
   0.23943008  0.07668614  0.11659259
   0.12717758  0.17316471  0.11751582
   0.48818496  0.45351041  0.09714007
   0.37916765  0.50299291  0.01778928
   0.84466632  0.40808231  0.07377249
   0.70060112  0.13804413  0.31571970
   0.86691656  0.70056239  0.12490195
   0.85200448  0.81869821  0.04887590
   0.09376179  0.53570823  0.81724160
   0.30918934  0.81015249  0.30498388
   0.36569860  0.73578379  0.40662213
   0.71976434  0.02466361  0.39179353
   0.51683661  0.50764979  0.59347658
   0.89695102  0.81462747  0.64734987
   0.72921540  0.25106890  0.78955364
   0.50064178  0.82753773  0.84746435
   0.90826687  0.48064785  0.54272088
unknown system                          
           1
     5.084437    0.028773   -0.042602
     0.234941    5.687376   -0.157054
     0.525312    0.284208    5.698957
   Sr   Nb   H 
   1   1  17
Direct configuration=     8
   0.24154496  0.14344782  0.64760243
   0.74145486  0.57120267  0.82095327
   0.23853216  0.07731564  0.11687977
   0.12763291  0.17275326  0.11763855
   0.49225589  0.45318166  0.09584477
   0.37986598  0.50452536  0.01467356
   0.84430429  0.40882070  0.07116969
   0.70049164  0.13671493  0.31683598
   0.86633828  0.69879840  0.12318585
   0.85108666  0.81865508  0.04664780
   0.09139201  0.53461167  0.81706842
   0.30978166  0.80948360  0.30649724
   0.36505867  0.73678801  0.40604523
   0.71887826  0.02635464  0.39090202
   0.51875304  0.50683999  0.59691134
   0.89647035  0.81267563  0.64957030
   0.73023544  0.25337986  0.78910641
   0.50293288  0.82560029  0.84531615
   0.90661207  0.48041479  0.54637321
unknown system                          
           1
     5.086126    0.028996   -0.042788
     0.235268    5.687570   -0.157661
     0.525324    0.283745    5.702767
   Sr   Nb   H 
   1   1  17
Direct configuration=     9
   0.24148006  0.14358660  0.64792729
   0.74129531  0.57134384  0.82092530
   0.23843830  0.07738168  0.11690972
   0.12768053  0.17271013  0.11765130
   0.49268124  0.45314690  0.09570993
   0.37993866  0.50468556  0.01434919
   0.84426624  0.40889779  0.07089863
   0.70048036  0.13657577  0.31695212
   0.86627787  0.69861337  0.12300689
   0.85099062  0.81865034  0.04641567
   0.09114444  0.53449683  0.81705019
   0.30984370  0.80941366  0.30665483
   0.36499169  0.73689321  0.40598522
   0.71878549  0.02653179  0.39080931
   0.51895357  0.50675544  0.59726911
   0.89642040  0.81247136  0.64980138
   0.73034184  0.25362195  0.78906009
   0.50317231  0.82539693  0.84509224
   0.90643938  0.48039085  0.54675359
unknown system                          
           1
     5.090984    0.028647   -0.041627
     0.235032    5.684492   -0.163902
     0.527354    0.277929    5.728051
   Sr   Nb   H 
   1   1  17
Direct configuration=    10
   0.24106521  0.14445247  0.65045151
   0.74104166  0.57152162  0.82163145
   0.23810055  0.07760777  0.11714111
   0.12771000  0.17272643  0.11768180
   0.49447796  0.45343420  0.09381843
   0.38158719  0.50537380  0.01273447
   0.84447628  0.40839293  0.07053500
   0.70010480  0.13703084  0.31691374
   0.86568335  0.69792066  0.12128406
   0.85037819  0.81824200  0.04511955
   0.09108565  0.53357181  0.81714032
   0.30992661  0.80930735  0.30731448
   0.36481020  0.73730698  0.40619144
   0.71833554  0.02635179  0.39110768
   0.51862557  0.50592263  0.59874706
   0.89691186  0.81239775  0.65083336
   0.73096289  0.25374848  0.78869862
   0.50271516  0.82627756  0.84343097
   0.90562333  0.47997691  0.54844695
unknown system                          
           1
     5.105558    0.027602   -0.038143
     0.234324    5.675256   -0.182625
     0.533445    0.260480    5.803902
   Sr   Nb   H 
   1   1  17
Direct configuration=    11
   0.23982160  0.14706062  0.65799412
   0.74028135  0.57205776  0.82374137
   0.23708820  0.07828717  0.11783319
   0.12779830  0.17277544  0.11777292
   0.49986301  0.45428990  0.08816861
   0.38652798  0.50743392  0.00791277
   0.84510595  0.40687632  0.06944710
   0.69897905  0.13839649  0.31680087
   0.86390165  0.69583497  0.11613628
   0.84854274  0.81701143  0.04124723
   0.09090969  0.53079573  0.81740649
   0.31017514  0.80899075  0.30928438
   0.36426614  0.73854965  0.40680888
   0.71698700  0.02581256  0.39199855
   0.51764269  0.50342837  0.60315894
   0.89838488  0.81218077  0.65391520
   0.73282427  0.25412708  0.78761899
   0.50134477  0.82891450  0.83847218
   0.90317757  0.47874056  0.55350391
unknown system                          
           1
     5.100583    0.028601   -0.038031
     0.235286    5.663558   -0.179756
     0.533186    0.263403    5.817096
   Sr   Nb   H 
   1   1  17
Direct configuration=    12
   0.23975209  0.14682235  0.65919422
   0.74327403  0.57049727  0.82081434
   0.23877144  0.07688251  0.11791106
   0.12608697  0.17432102  0.11794384
   0.49835423  0.45507796  0.08625868
   0.38873588  0.50696752  0.00843303
   0.84469619  0.40676528  0.06975855
   0.69929166  0.13484684  0.31952947
   0.86348369  0.69688070  0.11506498
   0.84860226  0.81661617  0.04159664
   0.09119984  0.53082556  0.81811004
   0.30935889  0.80991835  0.30843616
   0.36485356  0.73777770  0.40840643
   0.71614954  0.02945456  0.38968500
   0.51624159  0.50319626  0.60378648
   0.89896841  0.81291193  0.65467636
   0.73290828  0.25294467  0.78774185
   0.49995281  0.83047779  0.83814397
   0.90294065  0.47837955  0.55373090
unknown system                          
           1
     5.103420    0.028031   -0.038095
     0.234737    5.670229   -0.181392
     0.533334    0.261736    5.809573
   Sr   Nb   H 
   1   1  17
Direct configuration=    13
   0.23979152  0.14695877  0.65851141
   0.74156618  0.57138857  0.82247923
   0.23781048  0.07768533  0.11786643
   0.12706394  0.17343773  0.11784696
   0.49921585  0.45462705  0.08734545
   0.38747550  0.50723437  0.00813696
   0.84493000  0.40682876  0.06958133
   0.69911226  0.13687581  0.31797625
   0.86372258  0.69628287  0.11567472
   0.84856817  0.81684211  0.04139776
   0.09103411  0.53080871  0.81770979
   0.30982506  0.80938803  0.30891895
   0.36451789  0.73821923  0.40749738
   0.71662845  0.02737287  0.39100210
   0.51704116  0.50332889  0.60342939
   0.89863531  0.81249438  0.65424351
   0.73286015  0.25362035  0.78767167
   0.50074758  0.82958430  0.83833107
   0.90307579  0.47858586  0.55360167
