unknown system                          
           1
     3.323389    0.287139    0.121189
    -0.525555    6.091241    0.279996
    -0.172505   -0.644109    6.042034
   Sr   Nb   H 
   2   1   8
Direct configuration=     1
   0.25728900  0.70168300  0.61899500
   0.25594500  0.08413900  0.22395300
   0.75727900  0.56687600  0.10154400
   0.75623900  0.00707300  0.53313800
   0.75715500  0.77612900  0.31703200
   0.75631300  0.81526700  0.91703700
   0.25739300  0.67394700  0.21132300
   0.36025700  0.09466200  0.78333200
   0.12923900  0.09193100  0.77465900
   0.75725400  0.37801300  0.34702500
   0.25801600  0.43053000  0.95551600
unknown system                          
           1
     3.349530    0.289378    0.122264
    -0.530135    6.146290    0.276812
    -0.173287   -0.655455    6.094871
   Sr   Nb   H 
   2   1   8
Direct configuration=     2
   0.25724716  0.70201863  0.61882949
   0.25596300  0.08410958  0.22419603
   0.75726202  0.56741643  0.10206946
   0.75617079  0.00708575  0.53318379
   0.75710937  0.77575982  0.31653360
   0.75627486  0.81490804  0.91694701
   0.25734474  0.67383688  0.21121940
   0.35896932  0.09448286  0.78344963
   0.13078131  0.09180706  0.77507508
   0.75724867  0.37810591  0.34662649
   0.25800774  0.43071904  0.95542401
unknown system                          
           1
     3.376626    0.291698    0.123379
    -0.534882    6.203352    0.273511
    -0.174097   -0.667216    6.149640
   Sr   Nb   H 
   2   1   8
Direct configuration=     3
   0.25720415  0.70236330  0.61865975
   0.25598149  0.08407958  0.22444572
   0.75724453  0.56797215  0.10260991
   0.75610064  0.00709889  0.53323086
   0.75706247  0.77538006  0.31602113
   0.75623565  0.81453917  0.91685419
   0.25729512  0.67372364  0.21111285
   0.35764496  0.09429892  0.78357035
   0.13236750  0.09168013  0.77550246
   0.75724323  0.37820098  0.34621711
   0.25799926  0.43091318  0.95532967
unknown system                          
           1
     3.379544    0.292013    0.123788
    -0.535877    6.215331    0.276482
    -0.174055   -0.665991    6.160124
   Sr   Nb   H 
   2   1   8
Direct configuration=     4
   0.25713806  0.70304237  0.61862325
   0.25599790  0.08423878  0.22499862
   0.75720212  0.56938809  0.10392550
   0.75598982  0.00684555  0.53293264
   0.75700902  0.77444475  0.31495275
   0.75618585  0.81265522  0.91731220
   0.25724669  0.67312475  0.21049836
   0.35879668  0.09404897  0.78391245
   0.13156889  0.09142606  0.77602012
   0.75724391  0.37890290  0.34420468
   0.25800007  0.43213255  0.95617342
unknown system                          
           1
     3.380984    0.292168    0.123989
    -0.536368    6.221242    0.277948
    -0.174035   -0.665386    6.165298
   Sr   Nb   H 
   2   1   8
Direct configuration=     5
   0.25710547  0.70337678  0.61860513
   0.25600595  0.08431708  0.22527094
   0.75718109  0.57008511  0.10457327
   0.75593521  0.00672086  0.53278580
   0.75698278  0.77398437  0.31442667
   0.75616130  0.81172740  0.91753817
   0.25722287  0.67282994  0.21019580
   0.35936443  0.09392582  0.78408099
   0.13117515  0.09130086  0.77627517
   0.75724439  0.37924892  0.34321326
   0.25800038  0.43273287  0.95658880
unknown system                          
           1
     3.380181    0.292119    0.124078
    -0.537199    6.229635    0.282044
    -0.174340   -0.662562    6.172790
   Sr   Nb   H 
   2   1   8
Direct configuration=     6
   0.25706109  0.70384430  0.61867250
   0.25601475  0.08452417  0.22564043
   0.75716607  0.57022872  0.10461181
   0.75586485  0.00654176  0.53256771
   0.75694186  0.77383397  0.31421360
   0.75612625  0.81057384  0.91771111
   0.25718157  0.67257726  0.20993547
   0.35876272  0.09373711  0.78428755
   0.13201624  0.09114377  0.77669710
   0.75724252  0.37958440  0.34195551
   0.25800108  0.43366070  0.95726121
unknown system                          
           1
     3.377774    0.291973    0.124345
    -0.539690    6.254815    0.294334
    -0.175256   -0.654090    6.195268
   Sr   Nb   H 
   2   1   8
Direct configuration=     7
   0.25692791  0.70524477  0.61887353
   0.25604109  0.08514391  0.22674723
   0.75712098  0.57065887  0.10472706
   0.75565376  0.00600559  0.53191454
   0.75681912  0.77338380  0.31357543
   0.75602110  0.80711775  0.91823140
   0.25705769  0.67182075  0.20915585
   0.35695713  0.09317142  0.78490686
   0.13454003  0.09067242  0.77796160
   0.75723715  0.38059160  0.33818613
   0.25800304  0.43643911  0.95927438
