 running on   32 total cores
 distrk:  each k-point on   32 cores,    1 groups
 distr:  one band on    8 cores,    4 groups
 using from now: INCAR     
 vasp.5.4.4.18Apr17-6-g9f103f2a35 (build Nov 01 2019 12:17:22) complex          
  
 POSCAR found type information on POSCAR  H  Nb H  Nb H  Sr
 POSCAR found :  6 types and      17 ions

 ----------------------------------------------------------------------------- 
|                                                                             |
|  ADVICE TO THIS USER RUNNING 'VASP/VAMP'   (HEAR YOUR MASTER'S VOICE ...):  |
|                                                                             |
|      You have a (more or less) 'large supercell' and for larger cells       |
|      it might be more efficient to use real space projection opertators     |
|      So try LREAL= Auto  in the INCAR   file.                               |
|      Mind:          For very  accurate calculation you might also keep the  |
|      reciprocal projection scheme          (i.e. LREAL=.FALSE.)             |
|                                                                             |
 ----------------------------------------------------------------------------- 

 LDA part: xc-table for Pade appr. of Perdew
 generate k-points for:   11    8    5
 POSCAR, INCAR and KPOINTS ok, starting setup
 FFT: planning ...
 WAVECAR not read
 entering main loop
       N       E                     dE             d eps       ncg     rms          rms(c)
DAV:   1     0.336202640679E+03    0.33620E+03   -0.20875E+04 19840   0.814E+02
DAV:   2    -0.460908813374E+02   -0.38229E+03   -0.36764E+03 24776   0.345E+02
DAV:   3    -0.731067814948E+02   -0.27016E+02   -0.26630E+02 29216   0.748E+01
DAV:   4    -0.750646157593E+02   -0.19578E+01   -0.19482E+01 35128   0.174E+01
DAV:   5    -0.751138726847E+02   -0.49257E-01   -0.49235E-01 30368   0.267E+00    0.501E+01
DAV:   6    -0.704662656287E+02    0.46476E+01   -0.14479E+01 28656   0.188E+01    0.198E+01
DAV:   7    -0.697228735025E+02    0.74339E+00   -0.30734E+00 27984   0.747E+00    0.139E+01
DAV:   8    -0.696325345977E+02    0.90339E-01   -0.11957E+00 30320   0.538E+00    0.412E+00
DAV:   9    -0.696246127874E+02    0.79218E-02   -0.20381E-01 29280   0.235E+00    0.192E+00
DAV:  10    -0.696073891467E+02    0.17224E-01   -0.12677E-01 30040   0.198E+00    0.705E-01
DAV:  11    -0.696046072192E+02    0.27819E-02   -0.14360E-02 28584   0.644E-01    0.291E-01
DAV:  12    -0.696047171897E+02   -0.10997E-03   -0.14741E-03 30472   0.189E-01    0.139E-01
DAV:  13    -0.696047206260E+02   -0.34362E-05   -0.29398E-04 21752   0.932E-02
   1 F= -.69604721E+02 E0= -.69604320E+02  d E =-.696047E+02
 curvature:   0.00 expect dE= 0.000E+00 dE for cont linesearch  0.000E+00
 trial: gam= 0.00000 g(F)=  0.280E-03 g(S)=  0.451E-03 ort = 0.000E+00 (trialstep = 0.100E+01)
 search vector abs. value=  0.731E-03
 bond charge predicted
       N       E                     dE             d eps       ncg     rms          rms(c)
DAV:   1    -0.696057660155E+02   -0.10488E-02   -0.58068E-02 21204   0.161E+00    0.375E-01
DAV:   2    -0.696053937737E+02    0.37224E-03   -0.99400E-03 25512   0.561E-01    0.124E-01
DAV:   3    -0.696051817055E+02    0.21207E-03   -0.69792E-04 26608   0.155E-01    0.816E-02
DAV:   4    -0.696051063234E+02    0.75382E-04   -0.21121E-04 16216   0.867E-02
   2 F= -.69605106E+02 E0= -.69604705E+02  d E =-.385697E-03
 trial-energy change:   -0.000386  1 .order   -0.000494   -0.000731   -0.000258
 step:   1.5458(harm=  1.5458)  dis= 0.00227  next Energy=   -69.605285 (dE=-0.565E-03)
 bond charge predicted
       N       E                     dE             d eps       ncg     rms          rms(c)
DAV:   1    -0.696052790737E+02   -0.97368E-04   -0.16847E-02 21164   0.886E-01    0.228E-01
DAV:   2    -0.696050981470E+02    0.18093E-03   -0.28248E-03 25288   0.303E-01    0.575E-02
DAV:   3    -0.696050267537E+02    0.71393E-04   -0.17721E-04 17216   0.866E-02
   3 F= -.69605027E+02 E0= -.69604614E+02  d E =-.306128E-03
 curvature:  -0.77 expect dE=-0.298E-03 dE for cont linesearch -0.341E-06
 trial: gam= 0.55130 g(F)=  0.300E-03 g(S)=  0.850E-04 ort =-0.180E-04 (trialstep = 0.111E+01)
 search vector abs. value=  0.587E-03
 reached required accuracy - stopping structural energy minimisation
