unknown system                          
           1
     3.798734   -0.337524    0.435837
     1.095238    5.764904    0.581597
     1.401115    3.060446    7.624357
   H    Nb   H    Sr   H    Sr
   5   1   8   1   3   1
Direct configuration=     1
   0.91415284  0.87525449  0.17857447
   0.89291891  0.46063288  0.01154046
   0.76592603  0.08658407  0.89756068
   0.29378545  0.46997780  0.75056086
   0.25316016  0.33508713  0.76343163
   0.99399924  0.77220459  0.98503517
   0.44906731  0.68934299  0.08836809
   0.76753797  0.17838262  0.33224175
   0.20028529  0.90557547  0.49408198
   0.76980664  0.65460397  0.62659088
   0.25916767  0.02157495  0.76299583
   0.33147445  0.64018428  0.86532139
   0.38165544  0.97435796  0.46749264
   0.86178733  0.80356762  0.78118330
   0.81574029  0.23442078  0.58065128
   0.79428792  0.70750801  0.52120090
   0.33199073  0.55524567  0.45583424
   0.38395298  0.56428908  0.35711508
   0.38516534  0.18457367  0.12876138
unknown system                          
           1
     3.799305   -0.337847    0.437036
     1.094963    5.765387    0.583135
     1.403391    3.062041    7.626303
   H    Nb   H    Sr   H    Sr
   5   1   8   1   3   1
Direct configuration=     2
   0.91396749  0.87532808  0.17866577
   0.89301903  0.46074582  0.01165006
   0.76588640  0.08684882  0.89745568
   0.29375568  0.46987277  0.75061343
   0.25313077  0.33529642  0.76347775
   0.99412757  0.77222123  0.98483346
   0.44914212  0.68944126  0.08838084
   0.76737177  0.17828852  0.33228855
   0.20028957  0.90542694  0.49415971
   0.76974632  0.65444972  0.62675826
   0.25900391  0.02148783  0.76305338
   0.33166404  0.64014923  0.86532283
   0.38167654  0.97433939  0.46747822
   0.86191789  0.80349963  0.78124817
   0.81578382  0.23438015  0.58066330
   0.79428051  0.70778614  0.52077807
   0.33185779  0.55506611  0.45597628
   0.38405733  0.56419101  0.35699777
   0.38518346  0.18454894  0.12874045
unknown system                          
           1
     3.799215   -0.337796    0.436847
     1.095006    5.765310    0.582892
     1.403031    3.061789    7.625995
   H    Nb   H    Sr   H    Sr
   5   1   8   1   3   1
Direct configuration=     3
   0.91399682  0.87531644  0.17865133
   0.89300320  0.46072795  0.01163273
   0.76589265  0.08680693  0.89747229
   0.29376039  0.46988939  0.75060511
   0.25313542  0.33526331  0.76347046
   0.99410726  0.77221859  0.98486537
   0.44913028  0.68942571  0.08837883
   0.76739806  0.17830341  0.33228114
   0.20028890  0.90545044  0.49414741
   0.76975588  0.65447413  0.62673178
   0.25902982  0.02150162  0.76304427
   0.33163405  0.64015477  0.86532260
   0.38167320  0.97434232  0.46748050
   0.86189725  0.80351039  0.78123791
   0.81577693  0.23438658  0.58066140
   0.79428164  0.70774213  0.52084495
   0.33187883  0.55509452  0.45595381
   0.38404082  0.56420652  0.35701632
   0.38518059  0.18455285  0.12874376
