       N       E                     dE             d eps       ncg     rms          rms(c)
DAV:   1     0.216520588029E+03    0.21652E+03   -0.19153E+04  6144   0.114E+03
DAV:   2    -0.316538000314E+02   -0.24817E+03   -0.24326E+03  7392   0.308E+02
DAV:   3    -0.463524451145E+02   -0.14699E+02   -0.14642E+02 12080   0.614E+01
DAV:   4    -0.465931134692E+02   -0.24067E+00   -0.24064E+00  6864   0.694E+00
DAV:   5    -0.466034515417E+02   -0.10338E-01   -0.10338E-01 10576   0.118E+00    0.380E+01
RMM:   6    -0.474873667554E+02   -0.88392E+00   -0.60269E+00  6846   0.980E+00    0.196E+01
RMM:   7    -0.467176127159E+02    0.76975E+00   -0.23966E+00  7238   0.800E+00    0.106E+01
RMM:   8    -0.467722730575E+02   -0.54660E-01   -0.51937E-01  7185   0.440E+00    0.493E+00
RMM:   9    -0.467943380511E+02   -0.22065E-01   -0.80537E-02  7278   0.186E+00    0.222E+00
RMM:  10    -0.467952714344E+02   -0.93338E-03   -0.22749E-02  7218   0.874E-01    0.901E-01
RMM:  11    -0.467962026117E+02   -0.93118E-03   -0.10198E-02  6716   0.643E-01    0.224E-01
RMM:  12    -0.467965447604E+02   -0.34215E-03   -0.19955E-03  4971   0.307E-01
   1 F= -.46796545E+02 E0= -.46796545E+02  d E =-.467965E+02  mag=    -0.0019
       N       E                     dE             d eps       ncg     rms          rms(c)
DAV:   1    -0.470364453354E+02   -0.24024E+00   -0.44303E+00  9184   0.129E+01    0.446E+00
RMM:   2    -0.468909531643E+02    0.14549E+00   -0.61251E-01  7219   0.456E+00    0.117E+00
RMM:   3    -0.468537920509E+02    0.37161E-01   -0.57076E-02  6971   0.195E+00    0.109E+00
RMM:   4    -0.468453992778E+02    0.83928E-02   -0.25454E-02  6807   0.111E+00    0.105E+00
RMM:   5    -0.468457656211E+02   -0.36634E-03   -0.11885E-02  7056   0.897E-01    0.285E-01
RMM:   6    -0.468457903408E+02   -0.24720E-04   -0.63160E-03  6934   0.404E-01    0.101E-01
RMM:   7    -0.468459539612E+02   -0.16362E-03   -0.15406E-03  5112   0.312E-01
   2 F= -.46845954E+02 E0= -.46845954E+02  d E =-.494092E-01  mag=     0.0000
       N       E                     dE             d eps       ncg     rms          rms(c)
DAV:   1    -0.469485013172E+02   -0.10271E+00   -0.22369E+00  6448   0.915E+00    0.303E+00
RMM:   2    -0.468747465586E+02    0.73755E-01   -0.29134E-01  7085   0.312E+00    0.808E-01
RMM:   3    -0.468567530012E+02    0.17994E-01   -0.27157E-02  6728   0.139E+00    0.733E-01
RMM:   4    -0.468527411899E+02    0.40118E-02   -0.14177E-02  6509   0.791E-01    0.709E-01
RMM:   5    -0.468533505890E+02   -0.60940E-03   -0.49405E-03  6208   0.688E-01    0.254E-01
RMM:   6    -0.468532983348E+02    0.52254E-04   -0.37852E-03  5587   0.307E-01
   3 F= -.46853298E+02 E0= -.46853298E+02  d E =-.567536E-01  mag=     0.0000
       N       E                     dE             d eps       ncg     rms          rms(c)
DAV:   1    -0.468865710911E+02   -0.33221E-01   -0.17158E+00  7936   0.803E+00    0.164E+00
RMM:   2    -0.468602580495E+02    0.26313E-01   -0.16000E-01  6895   0.233E+00    0.632E-01
RMM:   3    -0.468540069577E+02    0.62511E-02   -0.14235E-02  6695   0.130E+00    0.422E-01
RMM:   4    -0.468525192108E+02    0.14877E-02   -0.73625E-03  6246   0.549E-01    0.360E-01
RMM:   5    -0.468527733602E+02   -0.25415E-03   -0.21934E-03  5371   0.515E-01
   4 F= -.46852773E+02 E0= -.46852773E+02  d E =0.524975E-03  mag=     0.0000
       N       E                     dE             d eps       ncg     rms          rms(c)
DAV:   1    -0.468687869262E+02   -0.16268E-01   -0.43408E-01  8832   0.398E+00    0.825E-01
RMM:   2    -0.468622640794E+02    0.65228E-02   -0.43530E-02  6829   0.119E+00    0.330E-01
RMM:   3    -0.468605313820E+02    0.17327E-02   -0.30817E-03  5643   0.664E-01    0.198E-01
RMM:   4    -0.468599938507E+02    0.53753E-03   -0.22057E-03  5186   0.317E-01
   5 F= -.46859994E+02 E0= -.46859994E+02  d E =-.669552E-02  mag=     0.0000
       N       E                     dE             d eps       ncg     rms          rms(c)
DAV:   1    -0.468698857110E+02   -0.93543E-02   -0.65246E-01  6176   0.508E+00    0.465E-01
RMM:   2    -0.468693086083E+02    0.57710E-03   -0.36943E-02  6746   0.110E+00    0.361E-01
RMM:   3    -0.468686796921E+02    0.62892E-03   -0.26038E-03  5186   0.767E-01    0.246E-01
RMM:   4    -0.468685143584E+02    0.16533E-03   -0.70512E-04  4199   0.200E-01
   6 F= -.46868514E+02 E0= -.46868514E+02  d E =-.852051E-02  mag=     0.0000
       N       E                     dE             d eps       ncg     rms          rms(c)
DAV:   1    -0.468707560448E+02   -0.20764E-02   -0.34634E-01  6560   0.373E+00    0.358E-01
RMM:   2    -0.468705422834E+02    0.21376E-03   -0.20049E-02  6749   0.816E-01    0.266E-01
RMM:   3    -0.468702114630E+02    0.33082E-03   -0.15231E-03  4695   0.611E-01
   7 F= -.46870211E+02 E0= -.46870211E+02  d E =-.102176E-01  mag=     0.0000
       N       E                     dE             d eps       ncg     rms          rms(c)
DAV:   1    -0.468721187034E+02   -0.15764E-02   -0.14197E+00  7680   0.931E+00    0.723E-01
RMM:   2    -0.468722726681E+02   -0.15396E-03   -0.94455E-02  6696   0.165E+00    0.332E-01
RMM:   3    -0.468700511676E+02    0.22215E-02   -0.50564E-03  5816   0.863E-01    0.282E-01
RMM:   4    -0.468699301834E+02    0.12098E-03   -0.20566E-03  5133   0.269E-01
   8 F= -.46869930E+02 E0= -.46869930E+02  d E =0.281280E-03  mag=     0.0000
       N       E                     dE             d eps       ncg     rms          rms(c)
DAV:   1    -0.468725964273E+02   -0.25453E-02   -0.26349E-01  7968   0.399E+00    0.373E-01
RMM:   2    -0.468726534982E+02   -0.57071E-04   -0.17185E-02  6633   0.699E-01    0.195E-01
RMM:   3    -0.468722318209E+02    0.42168E-03   -0.66746E-04  4085   0.341E-01
   9 F= -.46872232E+02 E0= -.46872232E+02  d E =-.202036E-02  mag=     0.0000
