 running on   32 total cores
 distrk:  each k-point on   32 cores,    1 groups
 distr:  one band on    8 cores,    4 groups
 using from now: INCAR     
 vasp.5.4.4.18Apr17-6-g9f103f2a35 (build Nov 01 2019 12:17:22) complex          
  
 POSCAR found type information on POSCAR  H  Nb H  Sr
 POSCAR found :  4 types and      13 ions
 LDA part: xc-table for Pade appr. of Perdew
 generate k-points for:   11    8    8
 POSCAR, INCAR and KPOINTS ok, starting setup
 FFT: planning ...
 WAVECAR not read
 entering main loop
       N       E                     dE             d eps       ncg     rms          rms(c)
DAV:   1     0.118530680155E+03    0.11853E+03   -0.10375E+04 17232   0.718E+02
DAV:   2    -0.438496670596E+02   -0.16238E+03   -0.15543E+03 22504   0.278E+02
DAV:   3    -0.526118573755E+02   -0.87622E+01   -0.87122E+01 28088   0.520E+01
DAV:   4    -0.529612158275E+02   -0.34936E+00   -0.34886E+00 25608   0.877E+00
DAV:   5    -0.529663565224E+02   -0.51407E-02   -0.51405E-02 27112   0.883E-01    0.377E+01
DAV:   6    -0.504152619145E+02    0.25511E+01   -0.46928E+00 25488   0.180E+01    0.149E+01
DAV:   7    -0.499039310309E+02    0.51133E+00   -0.11614E+00 24392   0.623E+00    0.867E+00
DAV:   8    -0.498512135468E+02    0.52717E-01   -0.33895E-01 25336   0.370E+00    0.182E+00
DAV:   9    -0.498500465596E+02    0.11670E-02   -0.21897E-02 22600   0.108E+00    0.668E-01
DAV:  10    -0.498509736691E+02   -0.92711E-03   -0.65611E-03 25192   0.477E-01    0.219E-01
DAV:  11    -0.498510337594E+02   -0.60090E-04   -0.44423E-04 21104   0.177E-01
   1 F= -.49851034E+02 E0= -.49851050E+02  d E =-.498510E+02
 curvature:   0.00 expect dE= 0.000E+00 dE for cont linesearch  0.000E+00
 trial: gam= 0.00000 g(F)=  0.760E-03 g(S)=  0.320E-03 ort = 0.000E+00 (trialstep = 0.100E+01)
 search vector abs. value=  0.108E-02
 bond charge predicted
       N       E                     dE             d eps       ncg     rms          rms(c)
DAV:   1    -0.498517694405E+02   -0.79577E-03   -0.33184E-02 20216   0.154E+00    0.235E-01
DAV:   2    -0.498518744549E+02   -0.10501E-03   -0.32087E-03 22072   0.368E-01    0.122E-01
DAV:   3    -0.498518095252E+02    0.64930E-04   -0.14868E-04 16696   0.904E-02
   2 F= -.49851810E+02 E0= -.49851826E+02  d E =-.775766E-03
 trial-energy change:   -0.000776  1 .order   -0.000667   -0.001080   -0.000253
 step:   1.3057(harm=  1.3057)  dis= 0.00220  next Energy=   -49.851739 (dE=-0.705E-03)
 bond charge predicted
       N       E                     dE             d eps       ncg     rms          rms(c)
DAV:   1    -0.498518168084E+02    0.57647E-04   -0.29438E-03 20400   0.464E-01    0.788E-02
DAV:   2    -0.498518257520E+02   -0.89436E-05   -0.26438E-04 19120   0.106E-01
   3 F= -.49851826E+02 E0= -.49851842E+02  d E =-.791993E-03
 curvature:  -0.65 expect dE=-0.928E-03 dE for cont linesearch -0.193E-05
 trial: gam= 1.36768 g(F)=  0.126E-02 g(S)=  0.157E-03 ort =-0.565E-04 (trialstep = 0.349E+00)
 search vector abs. value=  0.329E-02
 reached required accuracy - stopping structural energy minimisation
