  17  17   1   0
  0.7915626E+01  0.5069401E-09  0.5309831E-09  0.5472706E-09  0.5000000E-15
  1.000000000000000E-004
  CAR 
 unknown system                          
      9.68315040    -37.64677272  301     -1.63658955      1.00000000
    -37.647  0.0000E+00  0.0000E+00  0.0000E+00  0.0000E+00
    -37.489  0.0000E+00  0.0000E+00  0.0000E+00  0.0000E+00
    -37.331  0.0000E+00  0.0000E+00  0.0000E+00  0.0000E+00
    -37.173  0.0000E+00  0.0000E+00  0.0000E+00  0.0000E+00
    -37.016  0.0000E+00  0.0000E+00  0.0000E+00  0.0000E+00
    -36.858  0.0000E+00  0.0000E+00  0.0000E+00  0.0000E+00
    -36.700  0.0000E+00  0.0000E+00  0.0000E+00  0.0000E+00
    -36.542  0.0000E+00  0.0000E+00  0.0000E+00  0.0000E+00
    -36.385  0.0000E+00  0.0000E+00  0.0000E+00  0.0000E+00
    -36.227  0.0000E+00  0.0000E+00  0.0000E+00  0.0000E+00
    -36.069  0.0000E+00  0.0000E+00  0.0000E+00  0.0000E+00
    -35.911  0.0000E+00  0.0000E+00  0.0000E+00  0.0000E+00
    -35.754  0.0000E+00  0.0000E+00  0.0000E+00  0.0000E+00
    -35.596  0.0000E+00  0.0000E+00  0.0000E+00  0.0000E+00
    -35.438  0.0000E+00  0.0000E+00  0.1010E-01  0.1010E-01
    -35.280  0.0000E+00  0.0000E+00  0.1010E-01  0.1010E-01
    -35.123  0.0000E+00  0.0000E+00  0.1010E-01  0.1010E-01
    -34.965  0.0000E+00  0.0000E+00  0.1010E-01  0.1010E-01
    -34.807  0.0000E+00  0.0000E+00  0.1010E-01  0.1010E-01
    -34.649  0.0000E+00  0.0000E+00  0.1010E-01  0.1010E-01
    -34.491  0.0000E+00  0.0000E+00  0.1010E-01  0.1010E-01
    -34.334  0.0000E+00  0.0000E+00  0.1010E-01  0.1010E-01
    -34.176  0.0000E+00  0.0000E+00  0.1010E-01  0.1010E-01
    -34.018  0.0000E+00  0.0000E+00  0.1010E-01  0.1010E-01
    -33.860  0.0000E+00  0.0000E+00  0.1010E-01  0.1010E-01
    -33.703  0.0000E+00  0.0000E+00  0.1010E-01  0.1010E-01
    -33.545  0.0000E+00  0.0000E+00  0.1010E-01  0.1010E-01
    -33.387  0.0000E+00  0.0000E+00  0.1010E-01  0.1010E-01
    -33.229  0.0000E+00  0.0000E+00  0.1010E-01  0.1010E-01
    -33.072  0.0000E+00  0.0000E+00  0.1010E-01  0.1010E-01
    -32.914  0.0000E+00  0.0000E+00  0.1010E-01  0.1010E-01
    -32.756  0.0000E+00  0.0000E+00  0.1010E-01  0.1010E-01
    -32.598  0.0000E+00  0.0000E+00  0.1010E-01  0.1010E-01
    -32.440  0.0000E+00  0.0000E+00  0.1010E-01  0.1010E-01
    -32.283  0.0000E+00  0.0000E+00  0.1010E-01  0.1010E-01
    -32.125  0.0000E+00  0.0000E+00  0.1010E-01  0.1010E-01
    -31.967  0.0000E+00  0.0000E+00  0.1010E-01  0.1010E-01
    -31.809  0.0000E+00  0.0000E+00  0.1010E-01  0.1010E-01
    -31.652  0.0000E+00  0.0000E+00  0.1010E-01  0.1010E-01
    -31.494  0.0000E+00  0.0000E+00  0.1010E-01  0.1010E-01
    -31.336  0.0000E+00  0.0000E+00  0.1010E-01  0.1010E-01
    -31.178  0.0000E+00  0.0000E+00  0.1010E-01  0.1010E-01
    -31.021  0.0000E+00  0.0000E+00  0.1010E-01  0.1010E-01
    -30.863  0.0000E+00  0.0000E+00  0.1010E-01  0.1010E-01
    -30.705  0.0000E+00  0.0000E+00  0.1010E-01  0.1010E-01
    -30.547  0.0000E+00  0.0000E+00  0.1010E-01  0.1010E-01
    -30.390  0.0000E+00  0.0000E+00  0.2020E-01  0.2020E-01
    -30.232  0.0000E+00  0.0000E+00  0.3030E-01  0.3030E-01
    -30.074  0.0000E+00  0.0000E+00  0.4040E-01  0.4040E-01
    -29.916  0.0000E+00  0.0000E+00  0.4040E-01  0.4040E-01
    -29.758  0.0000E+00  0.0000E+00  0.4040E-01  0.4040E-01
    -29.601  0.0000E+00  0.0000E+00  0.4040E-01  0.4040E-01
    -29.443  0.0000E+00  0.0000E+00  0.4040E-01  0.4040E-01
    -29.285  0.0000E+00  0.0000E+00  0.4040E-01  0.4040E-01
    -29.127  0.0000E+00  0.0000E+00  0.4040E-01  0.4040E-01
    -28.970  0.0000E+00  0.0000E+00  0.4040E-01  0.4040E-01
    -28.812  0.0000E+00  0.0000E+00  0.4040E-01  0.4040E-01
    -28.654  0.0000E+00  0.0000E+00  0.4040E-01  0.4040E-01
    -28.496  0.0000E+00  0.0000E+00  0.4040E-01  0.4040E-01
    -28.339  0.0000E+00  0.0000E+00  0.4040E-01  0.4040E-01
    -28.181  0.0000E+00  0.0000E+00  0.4040E-01  0.4040E-01
    -28.023  0.0000E+00  0.0000E+00  0.4040E-01  0.4040E-01
    -27.865  0.0000E+00  0.0000E+00  0.4040E-01  0.4040E-01
    -27.707  0.0000E+00  0.0000E+00  0.4040E-01  0.4040E-01
    -27.550  0.0000E+00  0.0000E+00  0.4040E-01  0.4040E-01
    -27.392  0.0000E+00  0.0000E+00  0.4040E-01  0.4040E-01
    -27.234  0.0000E+00  0.0000E+00  0.4040E-01  0.4040E-01
    -27.076  0.0000E+00  0.0000E+00  0.4040E-01  0.4040E-01
    -26.919  0.0000E+00  0.0000E+00  0.4040E-01  0.4040E-01
    -26.761  0.0000E+00  0.0000E+00  0.4040E-01  0.4040E-01
    -26.603  0.0000E+00  0.0000E+00  0.4040E-01  0.4040E-01
    -26.445  0.0000E+00  0.0000E+00  0.4040E-01  0.4040E-01
    -26.288  0.0000E+00  0.0000E+00  0.4040E-01  0.4040E-01
    -26.130  0.0000E+00  0.0000E+00  0.4040E-01  0.4040E-01
    -25.972  0.0000E+00  0.0000E+00  0.4040E-01  0.4040E-01
    -25.814  0.0000E+00  0.0000E+00  0.4040E-01  0.4040E-01
    -25.657  0.0000E+00  0.0000E+00  0.4040E-01  0.4040E-01
    -25.499  0.0000E+00  0.0000E+00  0.4040E-01  0.4040E-01
    -25.341  0.0000E+00  0.0000E+00  0.4040E-01  0.4040E-01
    -25.183  0.0000E+00  0.0000E+00  0.4040E-01  0.4040E-01
    -25.025  0.0000E+00  0.0000E+00  0.4040E-01  0.4040E-01
    -24.868  0.0000E+00  0.0000E+00  0.4040E-01  0.4040E-01
    -24.710  0.0000E+00  0.0000E+00  0.4040E-01  0.4040E-01
    -24.552  0.0000E+00  0.0000E+00  0.4040E-01  0.4040E-01
    -24.394  0.0000E+00  0.0000E+00  0.4040E-01  0.4040E-01
    -24.237  0.0000E+00  0.0000E+00  0.4040E-01  0.4040E-01
    -24.079  0.0000E+00  0.0000E+00  0.4040E-01  0.4040E-01
    -23.921  0.0000E+00  0.0000E+00  0.4040E-01  0.4040E-01
    -23.763  0.0000E+00  0.0000E+00  0.4040E-01  0.4040E-01
    -23.606  0.0000E+00  0.0000E+00  0.4040E-01  0.4040E-01
    -23.448  0.0000E+00  0.0000E+00  0.4040E-01  0.4040E-01
    -23.290  0.0000E+00  0.0000E+00  0.4040E-01  0.4040E-01
    -23.132  0.0000E+00  0.0000E+00  0.4040E-01  0.4040E-01
    -22.974  0.0000E+00  0.0000E+00  0.4040E-01  0.4040E-01
    -22.817  0.0000E+00  0.0000E+00  0.4040E-01  0.4040E-01
    -22.659  0.0000E+00  0.0000E+00  0.4040E-01  0.4040E-01
    -22.501  0.0000E+00  0.0000E+00  0.4040E-01  0.4040E-01
    -22.343  0.0000E+00  0.0000E+00  0.4040E-01  0.4040E-01
    -22.186  0.0000E+00  0.0000E+00  0.4040E-01  0.4040E-01
    -22.028  0.0000E+00  0.0000E+00  0.4040E-01  0.4040E-01
    -21.870  0.0000E+00  0.0000E+00  0.4040E-01  0.4040E-01
    -21.712  0.0000E+00  0.0000E+00  0.4040E-01  0.4040E-01
    -21.555  0.0000E+00  0.0000E+00  0.4040E-01  0.4040E-01
    -21.397  0.0000E+00  0.0000E+00  0.4040E-01  0.4040E-01
    -21.239  0.0000E+00  0.0000E+00  0.4040E-01  0.4040E-01
    -21.081  0.0000E+00  0.0000E+00  0.4040E-01  0.4040E-01
    -20.924  0.0000E+00  0.0000E+00  0.4040E-01  0.4040E-01
    -20.766  0.0000E+00  0.0000E+00  0.4040E-01  0.4040E-01
    -20.608  0.0000E+00  0.0000E+00  0.4040E-01  0.4040E-01
    -20.450  0.0000E+00  0.0000E+00  0.4040E-01  0.4040E-01
    -20.292  0.0000E+00  0.0000E+00  0.4040E-01  0.4040E-01
    -20.135  0.0000E+00  0.0000E+00  0.4040E-01  0.4040E-01
    -19.977  0.0000E+00  0.0000E+00  0.4040E-01  0.4040E-01
    -19.819  0.0000E+00  0.0000E+00  0.4040E-01  0.4040E-01
    -19.661  0.0000E+00  0.0000E+00  0.4040E-01  0.4040E-01
    -19.504  0.0000E+00  0.0000E+00  0.4040E-01  0.4040E-01
    -19.346  0.0000E+00  0.0000E+00  0.4040E-01  0.4040E-01
    -19.188  0.0000E+00  0.0000E+00  0.4040E-01  0.4040E-01
    -19.030  0.0000E+00  0.0000E+00  0.4040E-01  0.4040E-01
    -18.873  0.0000E+00  0.0000E+00  0.4040E-01  0.4040E-01
    -18.715  0.0000E+00  0.0000E+00  0.4040E-01  0.4040E-01
    -18.557  0.0000E+00  0.0000E+00  0.4040E-01  0.4040E-01
    -18.399  0.0000E+00  0.0000E+00  0.4040E-01  0.4040E-01
    -18.242  0.0000E+00  0.0000E+00  0.4040E-01  0.4040E-01
    -18.084  0.0000E+00  0.0000E+00  0.4040E-01  0.4040E-01
    -17.926  0.0000E+00  0.0000E+00  0.4040E-01  0.4040E-01
    -17.768  0.0000E+00  0.0000E+00  0.4040E-01  0.4040E-01
    -17.610  0.0000E+00  0.0000E+00  0.4040E-01  0.4040E-01
    -17.453  0.0000E+00  0.0000E+00  0.7071E-01  0.7071E-01
    -17.295  0.0000E+00  0.0000E+00  0.7071E-01  0.7071E-01
    -17.137  0.0000E+00  0.0000E+00  0.7071E-01  0.7071E-01
    -16.979  0.0000E+00  0.0000E+00  0.7071E-01  0.7071E-01
    -16.822  0.0000E+00  0.0000E+00  0.7071E-01  0.7071E-01
    -16.664  0.0000E+00  0.0000E+00  0.7071E-01  0.7071E-01
    -16.506  0.0000E+00  0.0000E+00  0.7071E-01  0.7071E-01
    -16.348  0.0000E+00  0.0000E+00  0.7071E-01  0.7071E-01
    -16.191  0.0000E+00  0.0000E+00  0.7071E-01  0.7071E-01
    -16.033  0.0000E+00  0.0000E+00  0.7071E-01  0.7071E-01
    -15.875  0.0000E+00  0.0000E+00  0.7071E-01  0.7071E-01
    -15.717  0.0000E+00  0.0000E+00  0.7071E-01  0.7071E-01
    -15.559  0.0000E+00  0.0000E+00  0.7071E-01  0.7071E-01
    -15.402  0.0000E+00  0.0000E+00  0.7071E-01  0.7071E-01
    -15.244  0.0000E+00  0.0000E+00  0.7071E-01  0.7071E-01
    -15.086  0.0000E+00  0.0000E+00  0.7071E-01  0.7071E-01
    -14.928  0.0000E+00  0.0000E+00  0.7071E-01  0.7071E-01
    -14.771  0.0000E+00  0.0000E+00  0.7071E-01  0.7071E-01
    -14.613  0.0000E+00  0.0000E+00  0.7071E-01  0.7071E-01
    -14.455  0.0000E+00  0.0000E+00  0.7071E-01  0.7071E-01
    -14.297  0.0000E+00  0.0000E+00  0.7071E-01  0.7071E-01
    -14.140  0.0000E+00  0.0000E+00  0.7071E-01  0.7071E-01
    -13.982  0.0000E+00  0.0000E+00  0.7071E-01  0.7071E-01
    -13.824  0.0000E+00  0.0000E+00  0.7071E-01  0.7071E-01
    -13.666  0.0000E+00  0.0000E+00  0.7071E-01  0.7071E-01
    -13.509  0.0000E+00  0.0000E+00  0.7071E-01  0.7071E-01
    -13.351  0.0000E+00  0.0000E+00  0.7071E-01  0.7071E-01
    -13.193  0.0000E+00  0.0000E+00  0.7071E-01  0.7071E-01
    -13.035  0.0000E+00  0.0000E+00  0.7071E-01  0.7071E-01
    -12.877  0.0000E+00  0.0000E+00  0.7071E-01  0.7071E-01
    -12.720  0.0000E+00  0.0000E+00  0.7071E-01  0.7071E-01
    -12.562  0.0000E+00  0.0000E+00  0.7071E-01  0.7071E-01
    -12.404  0.0000E+00  0.0000E+00  0.7071E-01  0.7071E-01
    -12.246  0.0000E+00  0.0000E+00  0.7071E-01  0.7071E-01
    -12.089  0.0000E+00  0.0000E+00  0.7071E-01  0.7071E-01
    -11.931  0.0000E+00  0.0000E+00  0.7071E-01  0.7071E-01
    -11.773  0.0000E+00  0.0000E+00  0.7071E-01  0.7071E-01
    -11.615  0.0000E+00  0.0000E+00  0.7071E-01  0.7071E-01
    -11.458  0.0000E+00  0.0000E+00  0.7071E-01  0.7071E-01
    -11.300  0.0000E+00  0.0000E+00  0.7071E-01  0.7071E-01
    -11.142  0.0000E+00  0.0000E+00  0.7071E-01  0.7071E-01
    -10.984  0.0000E+00  0.0000E+00  0.7071E-01  0.7071E-01
    -10.826  0.0000E+00  0.0000E+00  0.7071E-01  0.7071E-01
    -10.669  0.0000E+00  0.0000E+00  0.7071E-01  0.7071E-01
    -10.511  0.0000E+00  0.0000E+00  0.7071E-01  0.7071E-01
    -10.353  0.0000E+00  0.0000E+00  0.7071E-01  0.7071E-01
    -10.195  0.0000E+00  0.0000E+00  0.7071E-01  0.7071E-01
    -10.038  0.0000E+00  0.0000E+00  0.7071E-01  0.7071E-01
     -9.880  0.0000E+00  0.0000E+00  0.7071E-01  0.7071E-01
     -9.722  0.0000E+00  0.0000E+00  0.7071E-01  0.7071E-01
     -9.564  0.0000E+00  0.0000E+00  0.7071E-01  0.7071E-01
     -9.407  0.5856E-04  0.5856E-04  0.7071E-01  0.7071E-01
     -9.249  0.5890E-02  0.5890E-02  0.7106E-01  0.7106E-01
     -9.091  0.1503E-01  0.1503E-01  0.7264E-01  0.7264E-01
     -8.933  0.2256E-01  0.2256E-01  0.7572E-01  0.7572E-01
     -8.776  0.1791E-01  0.1791E-01  0.7919E-01  0.7919E-01
     -8.618  0.2406E-02  0.2406E-02  0.8076E-01  0.8076E-01
     -8.460  0.0000E+00  0.0000E+00  0.8081E-01  0.8081E-01
     -8.302  0.0000E+00  0.0000E+00  0.8081E-01  0.8081E-01
     -8.144  0.3801E-01  0.3801E-01  0.8257E-01  0.8257E-01
     -7.987  0.1316E-01  0.1316E-01  0.8512E-01  0.8512E-01
     -7.829  0.2338E-01  0.2338E-01  0.8768E-01  0.8768E-01
     -7.671  0.7090E-02  0.7090E-02  0.9083E-01  0.9083E-01
     -7.513  0.0000E+00  0.0000E+00  0.9091E-01  0.9091E-01
     -7.356  0.8243E-02  0.8243E-02  0.9125E-01  0.9125E-01
     -7.198  0.1997E-01  0.1997E-01  0.9357E-01  0.9357E-01
     -7.040  0.2835E-01  0.2835E-01  0.9730E-01  0.9730E-01
     -6.882  0.5880E-02  0.5880E-02  0.1009E+00  0.1009E+00
     -6.725  0.6442E-02  0.6442E-02  0.1011E+00  0.1011E+00
     -6.567  0.3537E-01  0.3537E-01  0.1056E+00  0.1056E+00
     -6.409  0.0000E+00  0.0000E+00  0.1111E+00  0.1111E+00
     -6.251  0.0000E+00  0.0000E+00  0.1111E+00  0.1111E+00
     -6.093  0.0000E+00  0.0000E+00  0.1111E+00  0.1111E+00
     -5.936  0.0000E+00  0.0000E+00  0.1111E+00  0.1111E+00
     -5.778  0.0000E+00  0.0000E+00  0.1111E+00  0.1111E+00
     -5.620  0.0000E+00  0.0000E+00  0.1111E+00  0.1111E+00
     -5.462  0.0000E+00  0.0000E+00  0.1111E+00  0.1111E+00
     -5.305  0.0000E+00  0.0000E+00  0.1111E+00  0.1111E+00
     -5.147  0.0000E+00  0.0000E+00  0.1111E+00  0.1111E+00
     -4.989  0.0000E+00  0.0000E+00  0.1111E+00  0.1111E+00
     -4.831  0.1164E-01  0.1164E-01  0.1116E+00  0.1116E+00
     -4.674  0.2553E-01  0.2553E-01  0.1150E+00  0.1150E+00
     -4.516  0.1818E-01  0.1818E-01  0.1186E+00  0.1186E+00
     -4.358  0.7537E-02  0.7537E-02  0.1209E+00  0.1209E+00
     -4.200  0.0000E+00  0.0000E+00  0.1212E+00  0.1212E+00
     -4.043  0.0000E+00  0.0000E+00  0.1212E+00  0.1212E+00
     -3.885  0.0000E+00  0.0000E+00  0.1212E+00  0.1212E+00
     -3.727  0.7204E-03  0.7204E-03  0.1212E+00  0.1212E+00
     -3.569  0.4069E-01  0.4069E-01  0.1291E+00  0.1291E+00
     -3.411  0.9685E-03  0.9685E-03  0.1313E+00  0.1313E+00
     -3.254  0.2662E-01  0.2662E-01  0.1349E+00  0.1349E+00
     -3.096  0.3932E-01  0.3932E-01  0.1406E+00  0.1406E+00
     -2.938  0.6372E-01  0.6372E-01  0.1472E+00  0.1472E+00
     -2.780  0.8771E-02  0.8771E-02  0.1512E+00  0.1512E+00
     -2.623  0.1464E-01  0.1464E-01  0.1518E+00  0.1518E+00
     -2.465  0.4542E-01  0.4542E-01  0.1606E+00  0.1606E+00
     -2.307  0.5771E-01  0.5771E-01  0.1653E+00  0.1653E+00
     -2.149  0.6403E-02  0.6403E-02  0.1716E+00  0.1716E+00
     -1.992  0.2792E-01  0.2792E-01  0.1728E+00  0.1728E+00
     -1.834  0.3139E-01  0.3139E-01  0.1787E+00  0.1787E+00
     -1.676  0.0000E+00  0.0000E+00  0.1818E+00  0.1818E+00
     -1.518  0.0000E+00  0.0000E+00  0.1818E+00  0.1818E+00
     -1.360  0.0000E+00  0.0000E+00  0.1818E+00  0.1818E+00
     -1.203  0.0000E+00  0.0000E+00  0.1818E+00  0.1818E+00
     -1.045  0.0000E+00  0.0000E+00  0.1818E+00  0.1818E+00
     -0.887  0.0000E+00  0.0000E+00  0.1818E+00  0.1818E+00
     -0.729  0.0000E+00  0.0000E+00  0.1818E+00  0.1818E+00
     -0.572  0.0000E+00  0.0000E+00  0.1818E+00  0.1818E+00
     -0.414  0.0000E+00  0.0000E+00  0.1818E+00  0.1818E+00
     -0.256  0.0000E+00  0.0000E+00  0.1818E+00  0.1818E+00
     -0.098  0.0000E+00  0.0000E+00  0.1818E+00  0.1818E+00
      0.059  0.0000E+00  0.0000E+00  0.1818E+00  0.1818E+00
      0.217  0.0000E+00  0.0000E+00  0.1818E+00  0.1818E+00
      0.375  0.0000E+00  0.0000E+00  0.1818E+00  0.1818E+00
      0.533  0.0000E+00  0.0000E+00  0.1818E+00  0.1818E+00
      0.690  0.0000E+00  0.0000E+00  0.1818E+00  0.1818E+00
      0.848  0.0000E+00  0.0000E+00  0.1818E+00  0.1818E+00
      1.006  0.0000E+00  0.0000E+00  0.1818E+00  0.1818E+00
      1.164  0.0000E+00  0.0000E+00  0.1818E+00  0.1818E+00
      1.322  0.0000E+00  0.0000E+00  0.1818E+00  0.1818E+00
      1.479  0.0000E+00  0.0000E+00  0.1818E+00  0.1818E+00
      1.637  0.0000E+00  0.0000E+00  0.1818E+00  0.1818E+00
      1.795  0.0000E+00  0.0000E+00  0.1818E+00  0.1818E+00
      1.953  0.0000E+00  0.0000E+00  0.1818E+00  0.1818E+00
      2.110  0.0000E+00  0.0000E+00  0.1818E+00  0.1818E+00
      2.268  0.1082E-01  0.1082E-01  0.1826E+00  0.1826E+00
      2.426  0.1852E-01  0.1852E-01  0.1849E+00  0.1849E+00
      2.584  0.3298E-01  0.3298E-01  0.1890E+00  0.1890E+00
      2.741  0.2164E-01  0.2164E-01  0.1932E+00  0.1932E+00
      2.899  0.4155E-01  0.4155E-01  0.1980E+00  0.1980E+00
      3.057  0.3577E-01  0.3577E-01  0.2035E+00  0.2035E+00
      3.215  0.3053E-01  0.3053E-01  0.2087E+00  0.2087E+00
      3.372  0.1807E-01  0.1807E-01  0.2129E+00  0.2129E+00
      3.530  0.4591E-01  0.4591E-01  0.2167E+00  0.2167E+00
      3.688  0.9522E-02  0.9522E-02  0.2224E+00  0.2224E+00
      3.846  0.6064E-01  0.6064E-01  0.2267E+00  0.2267E+00
      4.004  0.1917E-05  0.1917E-05  0.2323E+00  0.2323E+00
      4.161  0.1724E-01  0.1724E-01  0.2330E+00  0.2330E+00
      4.319  0.3983E-01  0.3983E-01  0.2402E+00  0.2402E+00
      4.477  0.1656E-01  0.1656E-01  0.2428E+00  0.2428E+00
      4.635  0.5552E-01  0.5552E-01  0.2485E+00  0.2485E+00
      4.792  0.1465E-01  0.1465E-01  0.2527E+00  0.2527E+00
      4.950  0.1945E-01  0.1945E-01  0.2555E+00  0.2555E+00
      5.108  0.3248E-01  0.3248E-01  0.2590E+00  0.2590E+00
      5.266  0.1072E-01  0.1072E-01  0.2636E+00  0.2636E+00
      5.423  0.3474E-01  0.3474E-01  0.2673E+00  0.2673E+00
      5.581  0.2046E-01  0.2046E-01  0.2719E+00  0.2719E+00
      5.739  0.2755E-01  0.2755E-01  0.2749E+00  0.2749E+00
      5.897  0.3449E-01  0.3449E-01  0.2809E+00  0.2809E+00
      6.055  0.2640E-01  0.2640E-01  0.2846E+00  0.2846E+00
      6.212  0.2544E-01  0.2544E-01  0.2899E+00  0.2899E+00
      6.370  0.2125E-01  0.2125E-01  0.2928E+00  0.2928E+00
      6.528  0.4664E-01  0.4664E-01  0.2986E+00  0.2986E+00
      6.686  0.6042E-02  0.6042E-02  0.3030E+00  0.3030E+00
      6.843  0.3704E-01  0.3704E-01  0.3067E+00  0.3067E+00
      7.001  0.2474E-01  0.2474E-01  0.3116E+00  0.3116E+00
      7.159  0.2625E-01  0.2625E-01  0.3151E+00  0.3151E+00
      7.317  0.3361E-01  0.3361E-01  0.3205E+00  0.3205E+00
      7.474  0.4888E-02  0.4888E-02  0.3231E+00  0.3231E+00
      7.632  0.0000E+00  0.0000E+00  0.3232E+00  0.3232E+00
      7.790  0.0000E+00  0.0000E+00  0.3232E+00  0.3232E+00
      7.948  0.0000E+00  0.0000E+00  0.3232E+00  0.3232E+00
      8.105  0.0000E+00  0.0000E+00  0.3232E+00  0.3232E+00
      8.263  0.0000E+00  0.0000E+00  0.3232E+00  0.3232E+00
      8.421  0.0000E+00  0.0000E+00  0.3232E+00  0.3232E+00
      8.579  0.0000E+00  0.0000E+00  0.3232E+00  0.3232E+00
      8.737  0.0000E+00  0.0000E+00  0.3232E+00  0.3232E+00
      8.894  0.0000E+00  0.0000E+00  0.3232E+00  0.3232E+00
      9.052  0.0000E+00  0.0000E+00  0.3232E+00  0.3232E+00
      9.210  0.0000E+00  0.0000E+00  0.3232E+00  0.3232E+00
      9.368  0.0000E+00  0.0000E+00  0.3232E+00  0.3232E+00
      9.525  0.0000E+00  0.0000E+00  0.3232E+00  0.3232E+00
      9.683  0.0000E+00  0.0000E+00  0.3232E+00  0.3232E+00
      9.68315040    -37.64677272  301     -1.63658955      1.00000000
    -37.647  0.0000E+00  0.0000E+00  0.0000E+00  0.0000E+00  0.0000E+00  0.0000E+00  0.0000E+00  0.0000E+00  0.0000E+00  0.0000E+00  0.0000E+00  0.0000E+00  0.0000E+00  0.0000E+00  0.0000E+00  0.0000E+00  0.0000E+00  0.0000E+00
    -37.489  0.0000E+00  0.0000E+00  0.0000E+00  0.0000E+00  0.0000E+00  0.0000E+00  0.0000E+00  0.0000E+00  0.0000E+00  0.0000E+00  0.0000E+00  0.0000E+00  0.0000E+00  0.0000E+00  0.0000E+00  0.0000E+00  0.0000E+00  0.0000E+00
    -37.331  0.0000E+00  0.0000E+00  0.0000E+00  0.0000E+00  0.0000E+00  0.0000E+00  0.0000E+00  0.0000E+00  0.0000E+00  0.0000E+00  0.0000E+00  0.0000E+00  0.0000E+00  0.0000E+00  0.0000E+00  0.0000E+00  0.0000E+00  0.0000E+00
    -37.173  0.0000E+00  0.0000E+00  0.0000E+00  0.0000E+00  0.0000E+00  0.0000E+00  0.0000E+00  0.0000E+00  0.0000E+00  0.0000E+00  0.0000E+00  0.0000E+00  0.0000E+00  0.0000E+00  0.0000E+00  0.0000E+00  0.0000E+00  0.0000E+00
    -37.016  0.0000E+00  0.0000E+00  0.0000E+00  0.0000E+00  0.0000E+00  0.0000E+00  0.0000E+00  0.0000E+00  0.0000E+00  0.0000E+00  0.0000E+00  0.0000E+00  0.0000E+00  0.0000E+00  0.0000E+00  0.0000E+00  0.0000E+00  0.0000E+00
    -36.858  0.0000E+00  0.0000E+00  0.0000E+00  0.0000E+00  0.0000E+00  0.0000E+00  0.0000E+00  0.0000E+00  0.0000E+00  0.0000E+00  0.0000E+00  0.0000E+00  0.0000E+00  0.0000E+00  0.0000E+00  0.0000E+00  0.0000E+00  0.0000E+00
    -36.700  0.0000E+00  0.0000E+00  0.0000E+00  0.0000E+00  0.0000E+00  0.0000E+00  0.0000E+00  0.0000E+00  0.0000E+00  0.0000E+00  0.0000E+00  0.0000E+00  0.0000E+00  0.0000E+00  0.0000E+00  0.0000E+00  0.0000E+00  0.0000E+00
    -36.542  0.0000E+00  0.0000E+00  0.0000E+00  0.0000E+00  0.0000E+00  0.0000E+00  0.0000E+00  0.0000E+00  0.0000E+00  0.0000E+00  0.0000E+00  0.0000E+00  0.0000E+00  0.0000E+00  0.0000E+00  0.0000E+00  0.0000E+00  0.0000E+00
    -36.385  0.0000E+00  0.0000E+00  0.0000E+00  0.0000E+00  0.0000E+00  0.0000E+00  0.0000E+00  0.0000E+00  0.0000E+00  0.0000E+00  0.0000E+00  0.0000E+00  0.0000E+00  0.0000E+00  0.0000E+00  0.0000E+00  0.0000E+00  0.0000E+00
    -36.227  0.0000E+00  0.0000E+00  0.0000E+00  0.0000E+00  0.0000E+00  0.0000E+00  0.0000E+00  0.0000E+00  0.0000E+00  0.0000E+00  0.0000E+00  0.0000E+00  0.0000E+00  0.0000E+00  0.0000E+00  0.0000E+00  0.0000E+00  0.0000E+00
    -36.069  0.0000E+00  0.0000E+00  0.0000E+00  0.0000E+00  0.0000E+00  0.0000E+00  0.0000E+00  0.0000E+00  0.0000E+00  0.0000E+00  0.0000E+00  0.0000E+00  0.0000E+00  0.0000E+00  0.0000E+00  0.0000E+00  0.0000E+00  0.0000E+00
    -35.911  0.0000E+00  0.0000E+00  0.0000E+00  0.0000E+00  0.0000E+00  0.0000E+00  0.0000E+00  0.0000E+00  0.0000E+00  0.0000E+00  0.0000E+00  0.0000E+00  0.0000E+00  0.0000E+00  0.0000E+00  0.0000E+00  0.0000E+00  0.0000E+00
    -35.754  0.0000E+00  0.0000E+00  0.0000E+00  0.0000E+00  0.0000E+00  0.0000E+00  0.0000E+00  0.0000E+00  0.0000E+00  0.0000E+00  0.0000E+00  0.0000E+00  0.0000E+00  0.0000E+00  0.0000E+00  0.0000E+00  0.0000E+00  0.0000E+00
    -35.596  0.0000E+00  0.0000E+00  0.0000E+00  0.0000E+00  0.0000E+00  0.0000E+00  0.0000E+00  0.0000E+00  0.0000E+00  0.0000E+00  0.0000E+00  0.0000E+00  0.0000E+00  0.0000E+00  0.0000E+00  0.0000E+00  0.0000E+00  0.0000E+00
    -35.438  0.0000E+00  0.0000E+00  0.0000E+00  0.0000E+00  0.0000E+00  0.0000E+00  0.0000E+00  0.0000E+00  0.0000E+00  0.0000E+00  0.0000E+00  0.0000E+00  0.0000E+00  0.0000E+00  0.0000E+00  0.0000E+00  0.0000E+00  0.0000E+00
    -35.280  0.0000E+00  0.0000E+00  0.0000E+00  0.0000E+00  0.0000E+00  0.0000E+00  0.0000E+00  0.0000E+00  0.0000E+00  0.0000E+00  0.0000E+00  0.0000E+00  0.0000E+00  0.0000E+00  0.0000E+00  0.0000E+00  0.0000E+00  0.0000E+00
    -35.123  0.0000E+00  0.0000E+00  0.0000E+00  0.0000E+00  0.0000E+00  0.0000E+00  0.0000E+00  0.0000E+00  0.0000E+00  0.0000E+00  0.0000E+00  0.0000E+00  0.0000E+00  0.0000E+00  0.0000E+00  0.0000E+00  0.0000E+00  0.0000E+00
    -34.965  0.0000E+00  0.0000E+00  0.0000E+00  0.0000E+00  0.0000E+00  0.0000E+00  0.0000E+00  0.0000E+00  0.0000E+00  0.0000E+00  0.0000E+00  0.0000E+00  0.0000E+00  0.0000E+00  0.0000E+00  0.0000E+00  0.0000E+00  0.0000E+00
    -34.807  0.0000E+00  0.0000E+00  0.0000E+00  0.0000E+00  0.0000E+00  0.0000E+00  0.0000E+00  0.0000E+00  0.0000E+00  0.0000E+00  0.0000E+00  0.0000E+00  0.0000E+00  0.0000E+00  0.0000E+00  0.0000E+00  0.0000E+00  0.0000E+00
    -34.649  0.0000E+00  0.0000E+00  0.0000E+00  0.0000E+00  0.0000E+00  0.0000E+00  0.0000E+00  0.0000E+00  0.0000E+00  0.0000E+00  0.0000E+00  0.0000E+00  0.0000E+00  0.0000E+00  0.0000E+00  0.0000E+00  0.0000E+00  0.0000E+00
    -34.491  0.0000E+00  0.0000E+00  0.0000E+00  0.0000E+00  0.0000E+00  0.0000E+00  0.0000E+00  0.0000E+00  0.0000E+00  0.0000E+00  0.0000E+00  0.0000E+00  0.0000E+00  0.0000E+00  0.0000E+00  0.0000E+00  0.0000E+00  0.0000E+00
    -34.334  0.0000E+00  0.0000E+00  0.0000E+00  0.0000E+00  0.0000E+00  0.0000E+00  0.0000E+00  0.0000E+00  0.0000E+00  0.0000E+00  0.0000E+00  0.0000E+00  0.0000E+00  0.0000E+00  0.0000E+00  0.0000E+00  0.0000E+00  0.0000E+00
    -34.176  0.0000E+00  0.0000E+00  0.0000E+00  0.0000E+00  0.0000E+00  0.0000E+00  0.0000E+00  0.0000E+00  0.0000E+00  0.0000E+00  0.0000E+00  0.0000E+00  0.0000E+00  0.0000E+00  0.0000E+00  0.0000E+00  0.0000E+00  0.0000E+00
    -34.018  0.0000E+00  0.0000E+00  0.0000E+00  0.0000E+00  0.0000E+00  0.0000E+00  0.0000E+00  0.0000E+00  0.0000E+00  0.0000E+00  0.0000E+00  0.0000E+00  0.0000E+00  0.0000E+00  0.0000E+00  0.0000E+00  0.0000E+00  0.0000E+00
    -33.860  0.0000E+00  0.0000E+00  0.0000E+00  0.0000E+00  0.0000E+00  0.0000E+00  0.0000E+00  0.0000E+00  0.0000E+00  0.0000E+00  0.0000E+00  0.0000E+00  0.0000E+00  0.0000E+00  0.0000E+00  0.0000E+00  0.0000E+00  0.0000E+00
    -33.703  0.0000E+00  0.0000E+00  0.0000E+00  0.0000E+00  0.0000E+00  0.0000E+00  0.0000E+00  0.0000E+00  0.0000E+00  0.0000E+00  0.0000E+00  0.0000E+00  0.0000E+00  0.0000E+00  0.0000E+00  0.0000E+00  0.0000E+00  0.0000E+00
    -33.545  0.0000E+00  0.0000E+00  0.0000E+00  0.0000E+00  0.0000E+00  0.0000E+00  0.0000E+00  0.0000E+00  0.0000E+00  0.0000E+00  0.0000E+00  0.0000E+00  0.0000E+00  0.0000E+00  0.0000E+00  0.0000E+00  0.0000E+00  0.0000E+00
    -33.387  0.0000E+00  0.0000E+00  0.0000E+00  0.0000E+00  0.0000E+00  0.0000E+00  0.0000E+00  0.0000E+00  0.0000E+00  0.0000E+00  0.0000E+00  0.0000E+00  0.0000E+00  0.0000E+00  0.0000E+00  0.0000E+00  0.0000E+00  0.0000E+00
    -33.229  0.0000E+00  0.0000E+00  0.0000E+00  0.0000E+00  0.0000E+00  0.0000E+00  0.0000E+00  0.0000E+00  0.0000E+00  0.0000E+00  0.0000E+00  0.0000E+00  0.0000E+00  0.0000E+00  0.0000E+00  0.0000E+00  0.0000E+00  0.0000E+00
    -33.072  0.0000E+00  0.0000E+00  0.0000E+00  0.0000E+00  0.0000E+00  0.0000E+00  0.0000E+00  0.0000E+00  0.0000E+00  0.0000E+00  0.0000E+00  0.0000E+00  0.0000E+00  0.0000E+00  0.0000E+00  0.0000E+00  0.0000E+00  0.0000E+00
    -32.914  0.0000E+00  0.0000E+00  0.0000E+00  0.0000E+00  0.0000E+00  0.0000E+00  0.0000E+00  0.0000E+00  0.0000E+00  0.0000E+00  0.0000E+00  0.0000E+00  0.0000E+00  0.0000E+00  0.0000E+00  0.0000E+00  0.0000E+00  0.0000E+00
    -32.756  0.0000E+00  0.0000E+00  0.0000E+00  0.0000E+00  0.0000E+00  0.0000E+00  0.0000E+00  0.0000E+00  0.0000E+00  0.0000E+00  0.0000E+00  0.0000E+00  0.0000E+00  0.0000E+00  0.0000E+00  0.0000E+00  0.0000E+00  0.0000E+00
    -32.598  0.0000E+00  0.0000E+00  0.0000E+00  0.0000E+00  0.0000E+00  0.0000E+00  0.0000E+00  0.0000E+00  0.0000E+00  0.0000E+00  0.0000E+00  0.0000E+00  0.0000E+00  0.0000E+00  0.0000E+00  0.0000E+00  0.0000E+00  0.0000E+00
    -32.440  0.0000E+00  0.0000E+00  0.0000E+00  0.0000E+00  0.0000E+00  0.0000E+00  0.0000E+00  0.0000E+00  0.0000E+00  0.0000E+00  0.0000E+00  0.0000E+00  0.0000E+00  0.0000E+00  0.0000E+00  0.0000E+00  0.0000E+00  0.0000E+00
    -32.283  0.0000E+00  0.0000E+00  0.0000E+00  0.0000E+00  0.0000E+00  0.0000E+00  0.0000E+00  0.0000E+00  0.0000E+00  0.0000E+00  0.0000E+00  0.0000E+00  0.0000E+00  0.0000E+00  0.0000E+00  0.0000E+00  0.0000E+00  0.0000E+00
    -32.125  0.0000E+00  0.0000E+00  0.0000E+00  0.0000E+00  0.0000E+00  0.0000E+00  0.0000E+00  0.0000E+00  0.0000E+00  0.0000E+00  0.0000E+00  0.0000E+00  0.0000E+00  0.0000E+00  0.0000E+00  0.0000E+00  0.0000E+00  0.0000E+00
    -31.967  0.0000E+00  0.0000E+00  0.0000E+00  0.0000E+00  0.0000E+00  0.0000E+00  0.0000E+00  0.0000E+00  0.0000E+00  0.0000E+00  0.0000E+00  0.0000E+00  0.0000E+00  0.0000E+00  0.0000E+00  0.0000E+00  0.0000E+00  0.0000E+00
    -31.809  0.0000E+00  0.0000E+00  0.0000E+00  0.0000E+00  0.0000E+00  0.0000E+00  0.0000E+00  0.0000E+00  0.0000E+00  0.0000E+00  0.0000E+00  0.0000E+00  0.0000E+00  0.0000E+00  0.0000E+00  0.0000E+00  0.0000E+00  0.0000E+00
    -31.652  0.0000E+00  0.0000E+00  0.0000E+00  0.0000E+00  0.0000E+00  0.0000E+00  0.0000E+00  0.0000E+00  0.0000E+00  0.0000E+00  0.0000E+00  0.0000E+00  0.0000E+00  0.0000E+00  0.0000E+00  0.0000E+00  0.0000E+00  0.0000E+00
    -31.494  0.0000E+00  0.0000E+00  0.0000E+00  0.0000E+00  0.0000E+00  0.0000E+00  0.0000E+00  0.0000E+00  0.0000E+00  0.0000E+00  0.0000E+00  0.0000E+00  0.0000E+00  0.0000E+00  0.0000E+00  0.0000E+00  0.0000E+00  0.0000E+00
    -31.336  0.0000E+00  0.0000E+00  0.0000E+00  0.0000E+00  0.0000E+00  0.0000E+00  0.0000E+00  0.0000E+00  0.0000E+00  0.0000E+00  0.0000E+00  0.0000E+00  0.0000E+00  0.0000E+00  0.0000E+00  0.0000E+00  0.0000E+00  0.0000E+00
    -31.178  0.0000E+00  0.0000E+00  0.0000E+00  0.0000E+00  0.0000E+00  0.0000E+00  0.0000E+00  0.0000E+00  0.0000E+00  0.0000E+00  0.0000E+00  0.0000E+00  0.0000E+00  0.0000E+00  0.0000E+00  0.0000E+00  0.0000E+00  0.0000E+00
    -31.021  0.0000E+00  0.0000E+00  0.0000E+00  0.0000E+00  0.0000E+00  0.0000E+00  0.0000E+00  0.0000E+00  0.0000E+00  0.0000E+00  0.0000E+00  0.0000E+00  0.0000E+00  0.0000E+00  0.0000E+00  0.0000E+00  0.0000E+00  0.0000E+00
    -30.863  0.0000E+00  0.0000E+00  0.0000E+00  0.0000E+00  0.0000E+00  0.0000E+00  0.0000E+00  0.0000E+00  0.0000E+00  0.0000E+00  0.0000E+00  0.0000E+00  0.0000E+00  0.0000E+00  0.0000E+00  0.0000E+00  0.0000E+00  0.0000E+00
    -30.705  0.0000E+00  0.0000E+00  0.0000E+00  0.0000E+00  0.0000E+00  0.0000E+00  0.0000E+00  0.0000E+00  0.0000E+00  0.0000E+00  0.0000E+00  0.0000E+00  0.0000E+00  0.0000E+00  0.0000E+00  0.0000E+00  0.0000E+00  0.0000E+00
    -30.547  0.0000E+00  0.0000E+00  0.0000E+00  0.0000E+00  0.0000E+00  0.0000E+00  0.0000E+00  0.0000E+00  0.0000E+00  0.0000E+00  0.0000E+00  0.0000E+00  0.0000E+00  0.0000E+00  0.0000E+00  0.0000E+00  0.0000E+00  0.0000E+00
    -30.390  0.0000E+00  0.0000E+00  0.0000E+00  0.0000E+00  0.0000E+00  0.0000E+00  0.0000E+00  0.0000E+00  0.0000E+00  0.0000E+00  0.0000E+00  0.0000E+00  0.0000E+00  0.0000E+00  0.0000E+00  0.0000E+00  0.0000E+00  0.0000E+00
    -30.232  0.0000E+00  0.0000E+00  0.0000E+00  0.0000E+00  0.0000E+00  0.0000E+00  0.0000E+00  0.0000E+00  0.0000E+00  0.0000E+00  0.0000E+00  0.0000E+00  0.0000E+00  0.0000E+00  0.0000E+00  0.0000E+00  0.0000E+00  0.0000E+00
    -30.074  0.0000E+00  0.0000E+00  0.0000E+00  0.0000E+00  0.0000E+00  0.0000E+00  0.0000E+00  0.0000E+00  0.0000E+00  0.0000E+00  0.0000E+00  0.0000E+00  0.0000E+00  0.0000E+00  0.0000E+00  0.0000E+00  0.0000E+00  0.0000E+00
    -29.916  0.0000E+00  0.0000E+00  0.0000E+00  0.0000E+00  0.0000E+00  0.0000E+00  0.0000E+00  0.0000E+00  0.0000E+00  0.0000E+00  0.0000E+00  0.0000E+00  0.0000E+00  0.0000E+00  0.0000E+00  0.0000E+00  0.0000E+00  0.0000E+00
    -29.758  0.0000E+00  0.0000E+00  0.0000E+00  0.0000E+00  0.0000E+00  0.0000E+00  0.0000E+00  0.0000E+00  0.0000E+00  0.0000E+00  0.0000E+00  0.0000E+00  0.0000E+00  0.0000E+00  0.0000E+00  0.0000E+00  0.0000E+00  0.0000E+00