   15   15   60    1
  0.7274424E+01  0.3761026E-09  0.5094827E-09  0.6140170E-09  0.5000000E-15
  1.000000000000000E-004
  CAR 
 unknown system                          
     34    309     28
 
  0.3742002E-15  0.3742002E-15  0.3742002E-15  0.1623377E-02
    1      -33.783516   1.000000
    2      -29.315796   1.000000
    3      -29.185638   1.000000
    4      -29.021861   1.000000
    5      -15.899081   1.000000
    6      -15.831719   1.000000
    7      -15.641965   1.000000
    8       -8.919944   1.000000
    9       -6.640189   1.000000
   10       -4.544313   1.000000
   11       -3.635694   1.000000
   12       -2.690625   1.000000
   13       -2.434032   1.000000
   14       -1.683851   1.000000
   15       -1.230152   1.000000
   16       -0.336752   1.000000
   17        0.347845   1.040349
   18        3.171215   0.000000
   19        3.784021   0.000000
   20        4.889699   0.000000
   21        5.514248   0.000000
   22        5.856602   0.000000
   23        6.480220   0.000000
   24        6.801871   0.000000
   25        6.869510   0.000000
   26        7.174218   0.000000
   27        7.983095   0.000000
   28        8.638343   0.000000
 
  0.9090909E-01  0.3724777E-15  0.3764350E-15  0.3246753E-02
    1      -33.781398   1.000000
    2      -29.316715   1.000000
    3      -29.190904   1.000000
    4      -29.021216   1.000000
    5      -15.893949   1.000000
    6      -15.827823   1.000000
    7      -15.676810   1.000000
    8       -8.840005   1.000000
    9       -6.608161   1.000000
   10       -4.522501   1.000000
   11       -3.699635   1.000000
   12       -2.689729   1.000000
   13       -2.381692   1.000000
   14       -1.730349   1.000000
   15       -1.198309   1.000000
   16       -0.441082   1.000000
   17        0.221647   0.997481
   18        3.285847   0.000000
   19        3.718569   0.000000
   20        4.835264   0.000000
   21        5.419227   0.000000
   22        5.745435   0.000000
   23        6.418745   0.000000
   24        6.887382   0.000000
   25        7.127248   0.000000
   26        7.345020   0.000000
   27        7.961375   0.000000
   28        8.301062   0.000000
 
  0.1818182E+00  0.3778445E-15  0.3781697E-15  0.3246753E-02
    1      -33.775710   1.000000
    2      -29.320108   1.000000
    3      -29.204293   1.000000
    4      -29.019438   1.000000
    5      -15.880763   1.000000
    6      -15.821477   1.000000
    7      -15.763933   1.000000
    8       -8.612030   1.000000
    9       -6.517473   1.000000
   10       -4.607977   1.000000
   11       -3.731759   1.000000
   12       -2.665940   1.000000
   13       -2.316411   1.000000
   14       -1.818510   1.000000
   15       -1.126803   1.000000
   16       -0.689439   1.000000
   17       -0.084254   1.000000
   18        3.458199   0.000000
   19        3.700432   0.000000
   20        4.756577   0.000000
   21        5.195614   0.000000
   22        5.665445   0.000000
   23        6.354358   0.000000
   24        6.901765   0.000000
   25        7.236994   0.000000
   26        7.546090   0.000000
   27        8.012555   0.000000
   28        8.326004   0.000000
 
  0.2727273E+00  0.3792539E-15  0.3781697E-15  0.3246753E-02
    1      -33.768255   1.000000
    2      -29.327188   1.000000
    3      -29.219630   1.000000
    4      -29.017334   1.000000
    5      -15.900194   1.000000
    6      -15.858833   1.000000
    7      -15.792600   1.000000
    8       -8.261388   1.000000
    9       -6.396048   1.000000
   10       -4.989001   1.000000
   11       -3.542449   1.000000
   12       -2.617134   1.000000
   13       -2.340113   1.000000
   14       -1.873681   1.000000
   15       -1.176452   1.000000
   16       -0.883993   1.000000
   17       -0.398058   1.000000
   18        3.345403   0.000000
   19        4.129056   0.000000
   20        4.611077   0.000000
   21        5.053415   0.000000
   22        5.597016   0.000000
   23        6.394167   0.000000
   24        6.579531   0.000000
   25        7.214589   0.000000
   26        7.655719   0.000000
   27        7.821286   0.000000
   28        8.298374   0.000000
 
  0.3636364E+00  0.3710140E-15  0.3816392E-15  0.3246753E-02
    1      -33.761372   1.000000
    2      -29.336199   1.000000
    3      -29.230442   1.000000
    4      -29.015267   1.000000
    5      -16.001514   1.000000
    6      -15.844262   1.000000
    7      -15.779853   1.000000
    8       -7.824919   1.000000
    9       -6.282765   1.000000
   10       -5.494082   1.000000
   11       -3.313386   1.000000
   12       -2.538228   1.000000
   13       -2.353874   1.000000
   14       -1.897290   1.000000
   15       -1.480753   1.000000
   16       -1.001521   1.000000
   17       -0.455793   1.000000
   18        3.366243   0.000000
   19        4.267403   0.000000
   20        4.616124   0.000000
   21        5.027653   0.000000
   22        5.471204   0.000000
   23        6.299500   0.000000
   24        6.516227   0.000000
   25        7.167800   0.000000
   26        7.547591   0.000000
   27        7.821765   0.000000
   28        8.155207   0.000000
 
  0.4545455E+00  0.3760013E-15  0.3747003E-15  0.3246753E-02
    1      -33.757278   1.000000
    2      -29.342905   1.000000
    3      -29.235763   1.000000
    4      -29.014082   1.000000
    5      -16.062440   1.000000
    6      -15.834636   1.000000
    7      -15.771423   1.000000
    8       -7.430227   1.000000
    9       -6.295555   1.000000
   10       -5.859007   1.000000
   11       -3.233335   1.000000
   12       -2.404692   1.000000
   13       -2.286987   1.000000
   14       -1.963319   1.000000
   15       -1.706952   1.000000
   16       -1.184446   1.000000
   17       -0.359977   1.000000
   18        3.535149   0.000000
   19        4.021161   0.000000
   20        4.707462   0.000000
   21        4.997362   0.000000
   22        5.466845   0.000000
   23        6.110328   0.000000
   24        6.604230   0.000000
   25        7.024706   0.000000
   26        7.537504   0.000000
   27        8.028439   0.000000
   28        8.413685   0.000000
 
  0.3760013E-15  0.1250000E+00  0.3677614E-15  0.3246753E-02
    1      -33.783424   1.000000
    2      -29.315987   1.000000
    3      -29.185653   1.000000
    4      -29.021861   1.000000
    5      -15.906283   1.000000
    6      -15.833672   1.000000
    7      -15.641754   1.000000
    8       -8.836436   1.000000
    9       -6.691597   1.000000
   10       -4.544067   1.000000
   11       -3.634272   1.000000
   12       -2.730199   1.000000
   13       -2.423935   1.000000
   14       -1.693568   1.000000
   15       -1.218618   1.000000
   16       -0.378269   1.000000
   17        0.338826   1.031948
   18        3.192277   0.000000
   19        3.845649   0.000000
   20        4.732966   0.000000
   21        5.591137   0.000000
   22        5.744357   0.000000
   23        6.398488   0.000000
   24        6.775577   0.000000
   25        7.078087   0.000000
   26        7.343099   0.000000
   27        7.771458   0.000000
   28        8.579191   0.000000
 
  0.9090909E-01  0.1250000E+00  0.3608225E-15  0.3246753E-02
    1      -33.781293   1.000000
    2      -29.317013   1.000000
    3      -29.190985   1.000000
    4      -29.021334   1.000000
    5      -15.901107   1.000000
    6      -15.829330   1.000000
    7      -15.676154   1.000000
    8       -8.775547   1.000000
    9       -6.623471   1.000000
   10       -4.557320   1.000000
   11       -3.704661   1.000000
   12       -2.694432   1.000000
   13       -2.358446   1.000000
   14       -1.781395   1.000000
   15       -1.174172   1.000000
   16       -0.490167   1.000000
   17        0.215395   0.997898
   18        3.372863   0.000000
   19        3.716241   0.000000
   20        4.762096   0.000000
   21        5.412529   0.000000
   22        5.634852   0.000000
   23        6.378763   0.000000
   24        6.822673   0.000000
   25        7.186613   0.000000
   26        7.529415   0.000000
   27        7.886441   0.000000
   28        8.298144   0.000000
 
  0.1818182E+00  0.1250000E+00  0.3747003E-15  0.3246753E-02
    1      -33.775591   1.000000
    2      -29.320383   1.000000
    3      -29.204373   1.000000
    4      -29.019542   1.000000
    5      -15.887125   1.000000
    6      -15.823339   1.000000
    7      -15.762197   1.000000
    8       -8.567499   1.000000
    9       -6.494393   1.000000
   10       -4.629897   1.000000
   11       -3.765492   1.000000
   12       -2.673764   1.000000
   13       -2.252559   1.000000
   14       -1.942203   1.000000
   15       -1.102411   1.000000
   16       -0.702020   1.000000
   17       -0.087602   1.000000
   18        3.474143   0.000000
   19        3.745632   0.000000
   20        4.722821   0.000000
   21        5.232185   0.000000
   22        5.704059   0.000000
   23        6.167224   0.000000
   24        6.892776   0.000000
   25        7.361169   0.000000
   26        7.610004   0.000000
   27        7.986881   0.000000
   28        8.185233   0.000000
 
  0.2727273E+00  0.1250000E+00  0.3677614E-15  0.3246753E-02
    1      -33.768120   1.000000
    2      -29.327223   1.000000
    3      -29.219593   1.000000
    4      -29.017380   1.000000
    5      -15.898926   1.000000
    6      -15.865899   1.000000
    7      -15.791692   1.000000
    8       -8.234263   1.000000
    9       -6.341271   1.000000
   10       -4.963240   1.000000
   11       -3.623112   1.000000
   12       -2.659363   1.000000
   13       -2.278241   1.000000
   14       -2.008819   1.000000
   15       -1.204461   1.000000
   16       -0.777172   1.000000
   17       -0.408232   1.000000
   18        3.317670   0.000000
   19        4.164999   0.000000
   20        4.635561   0.000000
   21        5.164581   0.000000
   22        5.734594   0.000000
   23        6.102103   0.000000
   24        6.701980   0.000000
   25        7.208904   0.000000
   26        7.485322   0.000000
   27        8.012953   0.000000
   28        8.321147   0.000000
 
  0.3636364E+00  0.1250000E+00  0.3764350E-15  0.3246753E-02
    1      -33.761244   1.000000
    2      -29.336357   1.000000
    3      -29.230660   1.000000
    4      -29.015365   1.000000
    5      -16.000256   1.000000
    6      -15.850326   1.000000
    7      -15.779993   1.000000
    8       -7.813204   1.000000
    9       -6.215651   1.000000
   10       -5.455839   1.000000
   11       -3.391330   1.000000
   12       -2.628314   1.000000
   13       -2.363085   1.000000
   14       -1.976868   1.000000
   15       -1.502560   1.000000
   16       -0.888052   1.000000
   17       -0.445627   1.000000
   18        3.361269   0.000000
   19        4.224061   0.000000
   20        4.715843   0.000000
   21        5.196407   0.000000
   22        5.485826   0.000000
   23        6.213415   0.000000
   24        6.526254   0.000000
   25        7.120019   0.000000
   26        7.456669   0.000000
   27        7.935517   0.000000
   28        8.130025   0.000000
 
  0.4545455E+00  0.1250000E+00  0.3790371E-15  0.3246753E-02
    1      -33.757157   1.000000
    2      -29.343104   1.000000
    3      -29.236004   1.000000
    4      -29.014208   1.000000
    5      -16.061212   1.000000
    6      -15.840241   1.000000
    7      -15.772293   1.000000
    8       -7.410789   1.000000
    9       -6.230429   1.000000
   10       -5.845217   1.000000
   11       -3.283062   1.000000
   12       -2.510894   1.000000
   13       -2.317474   1.000000
   14       -1.965973   1.000000
   15       -1.794031   1.000000
   16       -1.063672   1.000000
   17       -0.346474   1.000000
   18        3.556985   0.000000
   19        4.017640   0.000000
   20        4.695881   0.000000
   21        5.133044   0.000000
   22        5.447634   0.000000
   23        6.110892   0.000000
   24        6.646615   0.000000
   25        7.050209   0.000000
   26        7.480519   0.000000
   27        7.987100   0.000000
   28        8.394913   0.000000
 
 -0.4545455E+00  0.1250000E+00  0.3469447E-15  0.3246753E-02
    1      -33.757174   1.000000
    2      -29.343078   1.000000
    3      -29.236026   1.000000
    4      -29.014182   1.000000
    5      -16.061430   1.000000
    6      -15.840050   1.000000
    7      -15.773261   1.000000
    8       -7.356078   1.000000
    9       -6.288385   1.000000
   10       -5.878669   1.000000
   11       -3.249642   1.000000
   12       -2.459532   1.000000
   13       -2.285556   1.000000
   14       -2.025486   1.000000
   15       -1.756424   1.000000
   16       -1.115370   1.000000
   17       -0.358413   1.000000
   18        3.540407   0.000000
   19        4.082018   0.000000
   20        4.641424   0.000000
   21        4.943649   0.000000
   22        5.558967   0.000000
   23        6.087615   0.000000
   24        6.675344   0.000000
   25        7.118854   0.000000
   26        7.585636   0.000000
   27        8.101827   0.000000
   28        8.400799   0.000000
 
 -0.3636364E+00  0.1250000E+00  0.3608225E-15  0.3246753E-02
    1      -33.761279   1.000000
    2      -29.336397   1.000000
    3      -29.230836   1.000000
    4      -29.015437   1.000000
    5      -16.000767   1.000000
    6      -15.849980   1.000000
    7      -15.782595   1.000000
    8       -7.724989   1.000000
    9       -6.328751   1.000000
   10       -5.532030   1.000000
   11       -3.257763   1.000000
   12       -2.556861   1.000000
   13       -2.405674   1.000000
   14       -1.914042   1.000000
   15       -1.577571   1.000000
   16       -0.942318   1.000000
   17       -0.477308   1.000000
   18        3.422383   0.000000
   19        4.312666   0.000000
   20        4.576106   0.000000
   21        4.862314   0.000000
   22        5.553072   0.000000
   23        6.257116   0.000000
   24        6.635010   0.000000
   25        7.162685   0.000000
   26        7.682053   0.000000
   27        8.045808   0.000000
   28        8.192973   0.000000
 
 -0.2727273E+00  0.1250000E+00  0.3469447E-15  0.3246753E-02
    1      -33.768166   1.000000
    2      -29.327304   1.000000
    3      -29.219682   1.000000
    4      -29.017416   1.000000
    5      -15.900409   1.000000
    6      -15.864064   1.000000
    7      -15.795540   1.000000
    8       -8.154618   1.000000
    9       -6.469262   1.000000
   10       -5.025429   1.000000
   11       -3.425431   1.000000
   12       -2.630833   1.000000
   13       -2.446088   1.000000
   14       -1.863438   1.000000
   15       -1.287941   1.000000
   16       -0.824163   1.000000
   17       -0.415989   1.000000
   18        3.430373   0.000000
   19        4.167165   0.000000
   20        4.594150   0.000000
   21        4.966322   0.000000
   22        5.568136   0.000000
   23        6.437563   0.000000
   24        6.616708   0.000000
   25        7.122265   0.000000
   26        7.744668   0.000000
   27        7.986437   0.000000
   28        8.351521   0.000000
 
 -0.1818182E+00  0.1250000E+00  0.3677614E-15  0.3246753E-02
    1      -33.775634   1.000000
    2      -29.320495   1.000000
    3      -29.204426   1.000000
    4      -29.019574   1.000000
    5      -15.887605   1.000000
    6      -15.823660   1.000000
    7      -15.764739   1.000000
    8       -8.508892   1.000000
    9       -6.605405   1.000000
   10       -4.633671   1.000000
   11       -3.623461   1.000000
   12       -2.721342   1.000000
   13       -2.399889   1.000000
   14       -1.804594   1.000000
   15       -1.137340   1.000000
   16       -0.735025   1.000000
   17       -0.082809   1.000000
   18        3.433139   0.000000
   19        3.859930   0.000000
   20        4.675956   0.000000
   21        5.213745   0.000000
   22        5.638525   0.000000
   23        6.367243   0.000000
   24        6.905375   0.000000
   25        7.212656   0.000000
   26        7.540024   0.000000
   27        8.063040   0.000000
   28        8.275320   0.000000
 
 -0.9090909E-01  0.1250000E+00  0.3608225E-15  0.3246753E-02
    1      -33.781318   1.000000
    2      -29.317013   1.000000
    3      -29.190974   1.000000
    4      -29.021264   1.000000
    5      -15.901210   1.000000
    6      -15.830359   1.000000
    7      -15.676860   1.000000
    8       -8.744301   1.000000
    9       -6.686660   1.000000
   10       -4.515009   1.000000
   11       -3.655369   1.000000
   12       -2.757354   1.000000
   13       -2.410694   1.000000
   14       -1.723526   1.000000
   15       -1.188393   1.000000
   16       -0.485835   1.000000
   17        0.218234   0.997714
   18        3.243053   0.000000
   19        3.864996   0.000000
   20        4.674104   0.000000
   21        5.508032   0.000000
   22        5.750012   0.000000
   23        6.311337   0.000000
   24        7.066529   0.000000
   25        7.159155   0.000000
   26        7.397855   0.000000
   27        7.723795   0.000000
   28        8.386802   0.000000
 
  0.3799044E-15  0.2500000E+00  0.3330669E-15  0.3246753E-02
    1      -33.783203   1.000000
    2      -29.316531   1.000000
    3      -29.185765   1.000000
    4      -29.021995   1.000000
    5      -15.925426   1.000000
    6      -15.836540   1.000000
    7      -15.641344   1.000000
    8       -8.619444   1.000000
    9       -6.821716   1.000000
   10       -4.552556   1.000000
   11       -3.675921   1.000000
   12       -2.788516   1.000000
   13       -2.408191   1.000000
   14       -1.730637   1.000000
   15       -1.139081   1.000000
   16       -0.493975   1.000000
   17        0.323595   1.017777
   18        3.176939   0.000000
   19        3.974865   0.000000
   20        4.609794   0.000000
   21        5.367072   0.000000
   22        5.824886   0.000000
   23        6.288050   0.000000
   24        6.790173   0.000000
   25        7.148616   0.000000
   26        7.370323   0.000000
   27        7.815087   0.000000
   28        8.604943   0.000000
 
  0.9090909E-01  0.2500000E+00  0.3608225E-15  0.3246753E-02
    1      -33.781063   1.000000
    2      -29.317480   1.000000
    3      -29.191108   1.000000
    4      -29.021442   1.000000
    5      -15.919721   1.000000
    6      -15.831984   1.000000
    7      -15.675303   1.000000
    8       -8.572823   1.000000
    9       -6.734538   1.000000
   10       -4.577007   1.000000
   11       -3.708990   1.000000
   12       -2.744189   1.000000
   13       -2.366097   1.000000
   14       -1.828005   1.000000
   15       -1.130935   1.000000
   16       -0.589672   1.000000
   17        0.207860   0.998344
   18        3.364133   0.000000
   19        3.844144   0.000000
   20        4.655649   0.000000
   21        5.359180   0.000000
   22        5.667144   0.000000
   23        6.271520   0.000000
   24        6.864196   0.000000
   25        7.066915   0.000000
   26        7.516971   0.000000
   27        7.845294   0.000000
   28        8.538792   0.000000
 
  0.1818182E+00  0.2500000E+00  0.3608225E-15  0.3246753E-02
    1      -33.775350   1.000000
    2      -29.320960   1.000000
    3      -29.204630   1.000000
    4      -29.019782   1.000000
    5      -15.904680   1.000000
    6      -15.826001   1.000000
    7      -15.760631   1.000000
    8       -8.387432   1.000000
    9       -6.570569   1.000000
   10       -4.666636   1.000000
   11       -3.728790   1.000000
   12       -2.713004   1.000000
   13       -2.296214   1.000000
   14       -2.043311   1.000000
   15       -1.151895   1.000000
   16       -0.716129   1.000000
   17       -0.072673   1.000000
   18        3.505251   0.000000
   19        3.813802   0.000000
   20        4.759590   0.000000
   21        5.354584   0.000000
   22        5.567189   0.000000
   23        6.132857   0.000000
   24        6.795040   0.000000
   25        7.272841   0.000000
   26        7.696080   0.000000
   27        7.872369   0.000000
   28        8.230085   0.000000
 
  0.2727273E+00  0.2500000E+00  0.3677614E-15  0.3246753E-02
    1      -33.767854   1.000000
    2      -29.327615   1.000000
    3      -29.219761   1.000000
    4      -29.017564   1.000000
    5      -15.897523   1.000000
    6      -15.882373   1.000000
    7      -15.792507   1.000000
    8       -8.080727   1.000000
    9       -6.364099   1.000000
   10       -4.962108   1.000000
   11       -3.619798   1.000000
   12       -2.715535   1.000000
   13       -2.323547   1.000000
   14       -2.172108   1.000000
   15       -1.300868   1.000000
   16       -0.688385   1.000000
   17       -0.382407   1.000000
   18        3.369783   0.000000
   19        4.131436   0.000000
   20        4.859855   0.000000
   21        5.231863   0.000000
   22        5.740141   0.000000
   23        5.986698   0.000000
   24        6.580888   0.000000
   25        7.217299   0.000000
   26        7.560616   0.000000
   27        7.843296   0.000000
   28        8.505032   0.000000
 
  0.3636364E+00  0.2500000E+00  0.3747003E-15  0.3246753E-02
    1      -33.760965   1.000000
    2      -29.336646   1.000000
    3      -29.231122   1.000000
    4      -29.015598   1.000000
    5      -15.997686   1.000000
    6      -15.865669   1.000000
    7      -15.781284   1.000000
    8       -7.689183   1.000000
    9       -6.183682   1.000000
   10       -5.427694   1.000000
   11       -3.446885   1.000000
   12       -2.748622   1.000000
   13       -2.468562   1.000000
   14       -2.062481   1.000000
   15       -1.563672   1.000000
   16       -0.767389   1.000000
   17       -0.429480   1.000000
   18        3.397239   0.000000
   19        4.227069   0.000000
   20        4.895151   0.000000
   21        5.304372   0.000000
   22        5.508019   0.000000
   23        6.013500   0.000000
   24        6.506292   0.000000
   25        7.149547   0.000000
   26        7.482322   0.000000
   27        7.820673   0.000000
   28        8.560999   0.000000
 
  0.4545455E+00  0.2500000E+00  0.3747003E-15  0.3246753E-02
    1      -33.756871   1.000000
    2      -29.343439   1.000000
    3      -29.236395   1.000000
    4      -29.014305   1.000000
    5      -16.058243   1.000000
    6      -15.854505   1.000000
    7      -15.773861   1.000000
    8       -7.297295   1.000000
    9       -6.133753   1.000000
   10       -5.839975   1.000000
   11       -3.391223   1.000000
   12       -2.666020   1.000000
   13       -2.420163   1.000000
   14       -2.000049   1.000000
   15       -1.846783   1.000000
   16       -0.918905   1.000000
   17       -0.337377   1.000000
   18        3.567031   0.000000
   19        4.088608   0.000000
   20        4.778134   0.000000
   21        5.153275   0.000000
   22        5.529307   0.000000
   23        6.006187   0.000000
   24        6.704625   0.000000
   25        7.066750   0.000000
   26        7.519805   0.000000
   27        7.928456   0.000000
   28        8.582730   0.000000
 
 -0.4545455E+00  0.2500000E+00  0.4302114E-15  0.3246753E-02
    1      -33.756893   1.000000
    2      -29.343391   1.000000
    3      -29.236432   1.000000
    4      -29.014351   1.000000
    5      -16.058531   1.000000
    6      -15.854352   1.000000
    7      -15.775048   1.000000
    8       -7.212234   1.000000
    9       -6.225120   1.000000
   10       -5.890472   1.000000
   11       -3.340123   1.000000
   12       -2.629710   1.000000
   13       -2.347572   1.000000
   14       -2.034772   1.000000
   15       -1.856210   1.000000
   16       -0.967505   1.000000
   17       -0.357856   1.000000
   18        3.577602   0.000000
   19        4.121055   0.000000
   20        4.599652   0.000000
   21        4.992306   0.000000
   22        5.655780   0.000000
   23        6.109296   0.000000
   24        6.804583   0.000000
   25        7.082311   0.000000
   26        7.603841   0.000000
   27        8.076685   0.000000
   28        8.428930   0.000000
 
 -0.3636364E+00  0.2500000E+00  0.3469447E-15  0.3246753E-02
    1      -33.761014   1.000000
    2      -29.336690   1.000000
    3      -29.231160   1.000000
    4      -29.015600   1.000000
    5      -15.998315   1.000000
    6      -15.865021   1.000000
    7      -15.784697   1.000000
    8       -7.548913   1.000000
    9       -6.340588   1.000000
   10       -5.546543   1.000000
   11       -3.265420   1.000000
   12       -2.702846   1.000000
   13       -2.454268   1.000000
   14       -1.930007   1.000000
   15       -1.719581   1.000000
   16       -0.813037   1.000000
   17       -0.498385   1.000000
   18        3.508750   0.000000
   19        4.274452   0.000000
   20        4.565137   0.000000
   21        4.817838   0.000000
   22        5.722185   0.000000
   23        6.298642   0.000000
   24        6.727012   0.000000
   25        7.203943   0.000000
   26        7.622674   0.000000
   27        8.039195   0.000000
   28        8.354966   0.000000
 
 -0.2727273E+00  0.2500000E+00  0.4024558E-15  0.3246753E-02
    1      -33.767922   1.000000
    2      -29.327698   1.000000
    3      -29.219947   1.000000
    4      -29.017627   1.000000
    5      -15.901237   1.000000
    6      -15.878307   1.000000
    7      -15.797646   1.000000
    8       -7.954583   1.000000
    9       -6.538769   1.000000
   10       -5.062309   1.000000
   11       -3.369774   1.000000
   12       -2.717403   1.000000
   13       -2.534266   1.000000
   14       -1.844870   1.000000
   15       -1.504611   1.000000
   16       -0.690190   1.000000
   17       -0.450156   1.000000
   18        3.511883   0.000000
   19        4.252015   0.000000
   20        4.551351   0.000000
   21        4.880304   0.000000
   22        5.641282   0.000000
   23        6.434643   0.000000
   24        6.797119   0.000000
   25        7.066337   0.000000
   26        7.656930   0.000000
   27        7.965259   0.000000
   28        8.518166   0.000000
 
 -0.1818182E+00  0.2500000E+00  0.3608225E-15  0.3246753E-02
    1      -33.775409   1.000000
    2      -29.320906   1.000000
    3      -29.204660   1.000000
    4      -29.019913   1.000000
    5      -15.905205   1.000000
    6      -15.826717   1.000000
    7      -15.763751   1.000000
    8       -8.294304   1.000000
    9       -6.714524   1.000000
   10       -4.689050   1.000000
   11       -3.550705   1.000000
   12       -2.815583   1.000000
   13       -2.456007   1.000000
   14       -1.793239   1.000000
   15       -1.240921   1.000000
   16       -0.746669   1.000000
   17       -0.081311   1.000000
   18        3.410916   0.000000
   19        4.105207   0.000000
   20        4.594025   0.000000
   21        5.224396   0.000000
   22        5.497424   0.000000
   23        6.349526   0.000000
   24        7.018572   0.000000
   25        7.094594   0.000000
   26        7.572108   0.000000
   27        7.927884   0.000000
   28        8.552492   0.000000
 
 -0.9090909E-01  0.2500000E+00  0.3608225E-15  0.3246753E-02
    1      -33.781097   1.000000
    2      -29.317520   1.000000
    3      -29.191109   1.000000
    4      -29.021502   1.000000
    5      -15.920012   1.000000
    6      -15.833398   1.000000
    7      -15.676253   1.000000
    8       -8.523875   1.000000
    9       -6.815606   1.000000
   10       -4.547947   1.000000
   11       -3.644753   1.000000
   12       -2.837266   1.000000
   13       -2.423405   1.000000
   14       -1.737978   1.000000
   15       -1.139396   1.000000
   16       -0.603128   1.000000
   17        0.214701   0.997942
   18        3.213972   0.000000
   19        4.058322   0.000000
   20        4.597432   0.000000
   21        5.348254   0.000000
   22        5.713119   0.000000
   23        6.228349   0.000000
   24        7.050824   0.000000
   25        7.150449   0.000000
   26        7.427770   0.000000
   27        7.870066   0.000000
   28        8.476987   0.000000
 
  0.3694961E-15  0.3750000E+00  0.4163336E-15  0.3246753E-02
    1      -33.782986   1.000000
    2      -29.317145   1.000000
    3      -29.185933   1.000000
    4      -29.022376   1.000000
    5      -15.945791   1.000000
    6      -15.838093   1.000000
    7      -15.641073   1.000000
    8       -8.362730   1.000000
    9       -6.976573   1.000000
   10       -4.575414   1.000000
   11       -3.796776   1.000000
   12       -2.782056   1.000000
   13       -2.405212   1.000000
   14       -1.717515   1.000000
   15       -1.065485   1.000000
   16       -0.629628   1.000000
   17        0.317356   1.012700
   18        3.091740   0.000000
   19        4.052076   0.000000
   20        4.684716   0.000000
   21        5.197609   0.000000
   22        5.755352   0.000000
   23        6.101785   0.000000
   24        6.842762   0.000000
   25        7.175647   0.000000
   26        7.494934   0.000000
   27        7.844247   0.000000
   28        8.696031   0.000000
 
  0.9090909E-01  0.3750000E+00  0.3885781E-15  0.3246753E-02
    1      -33.780845   1.000000
    2      -29.318048   1.000000
    3      -29.191267   1.000000
    4      -29.021722   1.000000
    5      -15.939669   1.000000
    6      -15.833646   1.000000
    7      -15.674775   1.000000
    8       -8.318564   1.000000
    9       -6.893858   1.000000
   10       -4.595366   1.000000
   11       -3.774653   1.000000
   12       -2.774727   1.000000
   13       -2.379997   1.000000
   14       -1.820802   1.000000
   15       -1.080525   1.000000
   16       -0.715109   1.000000
   17        0.213474   0.998018
   18        3.243729   0.000000
   19        3.988010   0.000000
   20        4.713696   0.000000
   21        5.185203   0.000000
   22        5.797683   0.000000
   23        6.050696   0.000000
   24        6.940857   0.000000
   25        7.042302   0.000000
   26        7.476459   0.000000
   27        7.905691   0.000000
   28        8.749513   0.000000
 
  0.1818182E+00  0.3750000E+00  0.3747003E-15  0.3246753E-02
    1      -33.775120   1.000000
    2      -29.321431   1.000000
    3      -29.204777   1.000000
    4      -29.020014   1.000000