Automatically generated mesh
     452
Reciprocal lattice
    0.00000000000000    0.00000000000000    0.00000000000000             1
    0.07142857142857    0.00000000000000    0.00000000000000             2
    0.14285714285714    0.00000000000000    0.00000000000000             2
    0.21428571428571    0.00000000000000    0.00000000000000             2
    0.28571428571429    0.00000000000000    0.00000000000000             2
    0.35714285714286    0.00000000000000    0.00000000000000             2
    0.42857142857143    0.00000000000000    0.00000000000000             2
    0.50000000000000    0.00000000000000    0.00000000000000             1
    0.00000000000000    0.12500000000000    0.00000000000000             2
    0.07142857142857    0.12500000000000    0.00000000000000             2
    0.14285714285714    0.12500000000000    0.00000000000000             2
    0.21428571428571    0.12500000000000    0.00000000000000             2
    0.28571428571429    0.12500000000000    0.00000000000000             2
    0.35714285714286    0.12500000000000    0.00000000000000             2
    0.42857142857143    0.12500000000000    0.00000000000000             2
    0.50000000000000    0.12500000000000    0.00000000000000             2
   -0.42857142857143    0.12500000000000    0.00000000000000             2
   -0.35714285714286    0.12500000000000    0.00000000000000             2
   -0.28571428571429    0.12500000000000    0.00000000000000             2
   -0.21428571428571    0.12500000000000    0.00000000000000             2
   -0.14285714285714    0.12500000000000    0.00000000000000             2
   -0.07142857142857    0.12500000000000    0.00000000000000             2
    0.00000000000000    0.25000000000000    0.00000000000000             2
    0.07142857142857    0.25000000000000    0.00000000000000             2
    0.14285714285714    0.25000000000000    0.00000000000000             2
    0.21428571428571    0.25000000000000    0.00000000000000             2
    0.28571428571429    0.25000000000000    0.00000000000000             2
    0.35714285714286    0.25000000000000    0.00000000000000             2
    0.42857142857143    0.25000000000000    0.00000000000000             2
    0.50000000000000    0.25000000000000    0.00000000000000             2
   -0.42857142857143    0.25000000000000    0.00000000000000             2
   -0.35714285714286    0.25000000000000    0.00000000000000             2
   -0.28571428571429    0.25000000000000    0.00000000000000             2
   -0.21428571428571    0.25000000000000    0.00000000000000             2
   -0.14285714285714    0.25000000000000    0.00000000000000             2
   -0.07142857142857    0.25000000000000    0.00000000000000             2
    0.00000000000000    0.37500000000000    0.00000000000000             2
    0.07142857142857    0.37500000000000    0.00000000000000             2
    0.14285714285714    0.37500000000000    0.00000000000000             2
    0.21428571428571    0.37500000000000    0.00000000000000             2
    0.28571428571429    0.37500000000000    0.00000000000000             2
    0.35714285714286    0.37500000000000    0.00000000000000             2
    0.42857142857143    0.37500000000000    0.00000000000000             2
    0.50000000000000    0.37500000000000    0.00000000000000             2
   -0.42857142857143    0.37500000000000    0.00000000000000             2
   -0.35714285714286    0.37500000000000    0.00000000000000             2
   -0.28571428571429    0.37500000000000    0.00000000000000             2
   -0.21428571428571    0.37500000000000    0.00000000000000             2
   -0.14285714285714    0.37500000000000    0.00000000000000             2
   -0.07142857142857    0.37500000000000    0.00000000000000             2
    0.00000000000000    0.50000000000000    0.00000000000000             1
    0.07142857142857    0.50000000000000    0.00000000000000             2
    0.14285714285714    0.50000000000000    0.00000000000000             2
    0.21428571428571    0.50000000000000    0.00000000000000             2
    0.28571428571429    0.50000000000000    0.00000000000000             2
    0.35714285714286    0.50000000000000    0.00000000000000             2
    0.42857142857143    0.50000000000000    0.00000000000000             2
    0.50000000000000    0.50000000000000    0.00000000000000             1
    0.00000000000000    0.00000000000000    0.12500000000000             2
    0.07142857142857    0.00000000000000    0.12500000000000             2
    0.14285714285714    0.00000000000000    0.12500000000000             2
    0.21428571428571    0.00000000000000    0.12500000000000             2
    0.28571428571429    0.00000000000000    0.12500000000000             2
    0.35714285714286    0.00000000000000    0.12500000000000             2
    0.42857142857143    0.00000000000000    0.12500000000000             2
    0.50000000000000    0.00000000000000    0.12500000000000             2
   -0.42857142857143    0.00000000000000    0.12500000000000             2
   -0.35714285714286    0.00000000000000    0.12500000000000             2
   -0.28571428571429    0.00000000000000    0.12500000000000             2
   -0.21428571428571    0.00000000000000    0.12500000000000             2
   -0.14285714285714    0.00000000000000    0.12500000000000             2
   -0.07142857142857    0.00000000000000    0.12500000000000             2
    0.00000000000000    0.12500000000000    0.12500000000000             2
    0.07142857142857    0.12500000000000    0.12500000000000             2
    0.14285714285714    0.12500000000000    0.12500000000000             2
    0.21428571428571    0.12500000000000    0.12500000000000             2
    0.28571428571429    0.12500000000000    0.12500000000000             2
    0.35714285714286    0.12500000000000    0.12500000000000             2
    0.42857142857143    0.12500000000000    0.12500000000000             2
    0.50000000000000    0.12500000000000    0.12500000000000             2
   -0.42857142857143    0.12500000000000    0.12500000000000             2
   -0.35714285714286    0.12500000000000    0.12500000000000             2
   -0.28571428571429    0.12500000000000    0.12500000000000             2
   -0.21428571428571    0.12500000000000    0.12500000000000             2
   -0.14285714285714    0.12500000000000    0.12500000000000             2
   -0.07142857142857    0.12500000000000    0.12500000000000             2
    0.00000000000000    0.25000000000000    0.12500000000000             2
    0.07142857142857    0.25000000000000    0.12500000000000             2
    0.14285714285714    0.25000000000000    0.12500000000000             2
    0.21428571428571    0.25000000000000    0.12500000000000             2
    0.28571428571429    0.25000000000000    0.12500000000000             2
    0.35714285714286    0.25000000000000    0.12500000000000             2
    0.42857142857143    0.25000000000000    0.12500000000000             2
    0.50000000000000    0.25000000000000    0.12500000000000             2
   -0.42857142857143    0.25000000000000    0.12500000000000             2
   -0.35714285714286    0.25000000000000    0.12500000000000             2
   -0.28571428571429    0.25000000000000    0.12500000000000             2
   -0.21428571428571    0.25000000000000    0.12500000000000             2
   -0.14285714285714    0.25000000000000    0.12500000000000             2
   -0.07142857142857    0.25000000000000    0.12500000000000             2
    0.00000000000000    0.37500000000000    0.12500000000000             2
    0.07142857142857    0.37500000000000    0.12500000000000             2
    0.14285714285714    0.37500000000000    0.12500000000000             2
    0.21428571428571    0.37500000000000    0.12500000000000             2
    0.28571428571429    0.37500000000000    0.12500000000000             2
    0.35714285714286    0.37500000000000    0.12500000000000             2
    0.42857142857143    0.37500000000000    0.12500000000000             2
    0.50000000000000    0.37500000000000    0.12500000000000             2
   -0.42857142857143    0.37500000000000    0.12500000000000             2
   -0.35714285714286    0.37500000000000    0.12500000000000             2
   -0.28571428571429    0.37500000000000    0.12500000000000             2
   -0.21428571428571    0.37500000000000    0.12500000000000             2
   -0.14285714285714    0.37500000000000    0.12500000000000             2
   -0.07142857142857    0.37500000000000    0.12500000000000             2
    0.00000000000000    0.50000000000000    0.12500000000000             2
    0.07142857142857    0.50000000000000    0.12500000000000             2
    0.14285714285714    0.50000000000000    0.12500000000000             2
    0.21428571428571    0.50000000000000    0.12500000000000             2
    0.28571428571429    0.50000000000000    0.12500000000000             2
    0.35714285714286    0.50000000000000    0.12500000000000             2
    0.42857142857143    0.50000000000000    0.12500000000000             2
    0.50000000000000    0.50000000000000    0.12500000000000             2
   -0.42857142857143    0.50000000000000    0.12500000000000             2
   -0.35714285714286    0.50000000000000    0.12500000000000             2
   -0.28571428571429    0.50000000000000    0.12500000000000             2
   -0.21428571428571    0.50000000000000    0.12500000000000             2
   -0.14285714285714    0.50000000000000    0.12500000000000             2
   -0.07142857142857    0.50000000000000    0.12500000000000             2
    0.00000000000000   -0.37500000000000    0.12500000000000             2
    0.07142857142857   -0.37500000000000    0.12500000000000             2
    0.14285714285714   -0.37500000000000    0.12500000000000             2
    0.21428571428571   -0.37500000000000    0.12500000000000             2
    0.28571428571429   -0.37500000000000    0.12500000000000             2
    0.35714285714286   -0.37500000000000    0.12500000000000             2
    0.42857142857143   -0.37500000000000    0.12500000000000             2
    0.50000000000000   -0.37500000000000    0.12500000000000             2
   -0.42857142857143   -0.37500000000000    0.12500000000000             2
   -0.35714285714286   -0.37500000000000    0.12500000000000             2
   -0.28571428571429   -0.37500000000000    0.12500000000000             2
   -0.21428571428571   -0.37500000000000    0.12500000000000             2
   -0.14285714285714   -0.37500000000000    0.12500000000000             2
   -0.07142857142857   -0.37500000000000    0.12500000000000             2
    0.00000000000000   -0.25000000000000    0.12500000000000             2
    0.07142857142857   -0.25000000000000    0.12500000000000             2
    0.14285714285714   -0.25000000000000    0.12500000000000             2
    0.21428571428571   -0.25000000000000    0.12500000000000             2
    0.28571428571429   -0.25000000000000    0.12500000000000             2
    0.35714285714286   -0.25000000000000    0.12500000000000             2
    0.42857142857143   -0.25000000000000    0.12500000000000             2
    0.50000000000000   -0.25000000000000    0.12500000000000             2
   -0.42857142857143   -0.25000000000000    0.12500000000000             2
   -0.35714285714286   -0.25000000000000    0.12500000000000             2
   -0.28571428571429   -0.25000000000000    0.12500000000000             2
   -0.21428571428571   -0.25000000000000    0.12500000000000             2
   -0.14285714285714   -0.25000000000000    0.12500000000000             2
   -0.07142857142857   -0.25000000000000    0.12500000000000             2
    0.00000000000000   -0.12500000000000    0.12500000000000             2
    0.07142857142857   -0.12500000000000    0.12500000000000             2
    0.14285714285714   -0.12500000000000    0.12500000000000             2
    0.21428571428571   -0.12500000000000    0.12500000000000             2
    0.28571428571429   -0.12500000000000    0.12500000000000             2
    0.35714285714286   -0.12500000000000    0.12500000000000             2
    0.42857142857143   -0.12500000000000    0.12500000000000             2
    0.50000000000000   -0.12500000000000    0.12500000000000             2
   -0.42857142857143   -0.12500000000000    0.12500000000000             2
   -0.35714285714286   -0.12500000000000    0.12500000000000             2
   -0.28571428571429   -0.12500000000000    0.12500000000000             2
   -0.21428571428571   -0.12500000000000    0.12500000000000             2
   -0.14285714285714   -0.12500000000000    0.12500000000000             2
   -0.07142857142857   -0.12500000000000    0.12500000000000             2
    0.00000000000000    0.00000000000000    0.25000000000000             2
    0.07142857142857    0.00000000000000    0.25000000000000             2
    0.14285714285714    0.00000000000000    0.25000000000000             2
    0.21428571428571    0.00000000000000    0.25000000000000             2
    0.28571428571429    0.00000000000000    0.25000000000000             2
    0.35714285714286    0.00000000000000    0.25000000000000             2
    0.42857142857143    0.00000000000000    0.25000000000000             2
    0.50000000000000    0.00000000000000    0.25000000000000             2
   -0.42857142857143    0.00000000000000    0.25000000000000             2
   -0.35714285714286    0.00000000000000    0.25000000000000             2
   -0.28571428571429    0.00000000000000    0.25000000000000             2
   -0.21428571428571    0.00000000000000    0.25000000000000             2
   -0.14285714285714    0.00000000000000    0.25000000000000             2
   -0.07142857142857    0.00000000000000    0.25000000000000             2
    0.00000000000000    0.12500000000000    0.25000000000000             2
    0.07142857142857    0.12500000000000    0.25000000000000             2
    0.14285714285714    0.12500000000000    0.25000000000000             2
    0.21428571428571    0.12500000000000    0.25000000000000             2
    0.28571428571429    0.12500000000000    0.25000000000000             2
    0.35714285714286    0.12500000000000    0.25000000000000             2
    0.42857142857143    0.12500000000000    0.25000000000000             2
    0.50000000000000    0.12500000000000    0.25000000000000             2
   -0.42857142857143    0.12500000000000    0.25000000000000             2
   -0.35714285714286    0.12500000000000    0.25000000000000             2
   -0.28571428571429    0.12500000000000    0.25000000000000             2
   -0.21428571428571    0.12500000000000    0.25000000000000             2
   -0.14285714285714    0.12500000000000    0.25000000000000             2
   -0.07142857142857    0.12500000000000    0.25000000000000             2
    0.00000000000000    0.25000000000000    0.25000000000000             2
    0.07142857142857    0.25000000000000    0.25000000000000             2
    0.14285714285714    0.25000000000000    0.25000000000000             2
    0.21428571428571    0.25000000000000    0.25000000000000             2
    0.28571428571429    0.25000000000000    0.25000000000000             2
    0.35714285714286    0.25000000000000    0.25000000000000             2
    0.42857142857143    0.25000000000000    0.25000000000000             2
    0.50000000000000    0.25000000000000    0.25000000000000             2
   -0.42857142857143    0.25000000000000    0.25000000000000             2
   -0.35714285714286    0.25000000000000    0.25000000000000             2
   -0.28571428571429    0.25000000000000    0.25000000000000             2
   -0.21428571428571    0.25000000000000    0.25000000000000             2
   -0.14285714285714    0.25000000000000    0.25000000000000             2
   -0.07142857142857    0.25000000000000    0.25000000000000             2
    0.00000000000000    0.37500000000000    0.25000000000000             2
    0.07142857142857    0.37500000000000    0.25000000000000             2
    0.14285714285714    0.37500000000000    0.25000000000000             2
    0.21428571428571    0.37500000000000    0.25000000000000             2
    0.28571428571429    0.37500000000000    0.25000000000000             2
    0.35714285714286    0.37500000000000    0.25000000000000             2
    0.42857142857143    0.37500000000000    0.25000000000000             2
    0.50000000000000    0.37500000000000    0.25000000000000             2
   -0.42857142857143    0.37500000000000    0.25000000000000             2
   -0.35714285714286    0.37500000000000    0.25000000000000             2
   -0.28571428571429    0.37500000000000    0.25000000000000             2
   -0.21428571428571    0.37500000000000    0.25000000000000             2
   -0.14285714285714    0.37500000000000    0.25000000000000             2
   -0.07142857142857    0.37500000000000    0.25000000000000             2
    0.00000000000000    0.50000000000000    0.25000000000000             2
    0.07142857142857    0.50000000000000    0.25000000000000             2
    0.14285714285714    0.50000000000000    0.25000000000000             2
    0.21428571428571    0.50000000000000    0.25000000000000             2
    0.28571428571429    0.50000000000000    0.25000000000000             2
    0.35714285714286    0.50000000000000    0.25000000000000             2
    0.42857142857143    0.50000000000000    0.25000000000000             2
    0.50000000000000    0.50000000000000    0.25000000000000             2
   -0.42857142857143    0.50000000000000    0.25000000000000             2
   -0.35714285714286    0.50000000000000    0.25000000000000             2
   -0.28571428571429    0.50000000000000    0.25000000000000             2
   -0.21428571428571    0.50000000000000    0.25000000000000             2
   -0.14285714285714    0.50000000000000    0.25000000000000             2
   -0.07142857142857    0.50000000000000    0.25000000000000             2
    0.00000000000000   -0.37500000000000    0.25000000000000             2
    0.07142857142857   -0.37500000000000    0.25000000000000             2
    0.14285714285714   -0.37500000000000    0.25000000000000             2
    0.21428571428571   -0.37500000000000    0.25000000000000             2
    0.28571428571429   -0.37500000000000    0.25000000000000             2
    0.35714285714286   -0.37500000000000    0.25000000000000             2
    0.42857142857143   -0.37500000000000    0.25000000000000             2
    0.50000000000000   -0.37500000000000    0.25000000000000             2
   -0.42857142857143   -0.37500000000000    0.25000000000000             2
   -0.35714285714286   -0.37500000000000    0.25000000000000             2
   -0.28571428571429   -0.37500000000000    0.25000000000000             2
   -0.21428571428571   -0.37500000000000    0.25000000000000             2
   -0.14285714285714   -0.37500000000000    0.25000000000000             2
   -0.07142857142857   -0.37500000000000    0.25000000000000             2
    0.00000000000000   -0.25000000000000    0.25000000000000             2
    0.07142857142857   -0.25000000000000    0.25000000000000             2
    0.14285714285714   -0.25000000000000    0.25000000000000             2
    0.21428571428571   -0.25000000000000    0.25000000000000             2
    0.28571428571429   -0.25000000000000    0.25000000000000             2
    0.35714285714286   -0.25000000000000    0.25000000000000             2
    0.42857142857143   -0.25000000000000    0.25000000000000             2
    0.50000000000000   -0.25000000000000    0.25000000000000             2
   -0.42857142857143   -0.25000000000000    0.25000000000000             2
   -0.35714285714286   -0.25000000000000    0.25000000000000             2
   -0.28571428571429   -0.25000000000000    0.25000000000000             2
   -0.21428571428571   -0.25000000000000    0.25000000000000             2
   -0.14285714285714   -0.25000000000000    0.25000000000000             2
   -0.07142857142857   -0.25000000000000    0.25000000000000             2
    0.00000000000000   -0.12500000000000    0.25000000000000             2
    0.07142857142857   -0.12500000000000    0.25000000000000             2
    0.14285714285714   -0.12500000000000    0.25000000000000             2
    0.21428571428571   -0.12500000000000    0.25000000000000             2
    0.28571428571429   -0.12500000000000    0.25000000000000             2
    0.35714285714286   -0.12500000000000    0.25000000000000             2
    0.42857142857143   -0.12500000000000    0.25000000000000             2
    0.50000000000000   -0.12500000000000    0.25000000000000             2
   -0.42857142857143   -0.12500000000000    0.25000000000000             2
   -0.35714285714286   -0.12500000000000    0.25000000000000             2
   -0.28571428571429   -0.12500000000000    0.25000000000000             2
   -0.21428571428571   -0.12500000000000    0.25000000000000             2
   -0.14285714285714   -0.12500000000000    0.25000000000000             2
   -0.07142857142857   -0.12500000000000    0.25000000000000             2
    0.00000000000000    0.00000000000000    0.37500000000000             2
    0.07142857142857    0.00000000000000    0.37500000000000             2
    0.14285714285714    0.00000000000000    0.37500000000000             2
    0.21428571428571    0.00000000000000    0.37500000000000             2
    0.28571428571429    0.00000000000000    0.37500000000000             2
    0.35714285714286    0.00000000000000    0.37500000000000             2
    0.42857142857143    0.00000000000000    0.37500000000000             2
    0.50000000000000    0.00000000000000    0.37500000000000             2
   -0.42857142857143    0.00000000000000    0.37500000000000             2
   -0.35714285714286    0.00000000000000    0.37500000000000             2
   -0.28571428571429    0.00000000000000    0.37500000000000             2
   -0.21428571428571    0.00000000000000    0.37500000000000             2
   -0.14285714285714    0.00000000000000    0.37500000000000             2
   -0.07142857142857    0.00000000000000    0.37500000000000             2
    0.00000000000000    0.12500000000000    0.37500000000000             2
    0.07142857142857    0.12500000000000    0.37500000000000             2
    0.14285714285714    0.12500000000000    0.37500000000000             2
    0.21428571428571    0.12500000000000    0.37500000000000             2
    0.28571428571429    0.12500000000000    0.37500000000000             2
    0.35714285714286    0.12500000000000    0.37500000000000             2
    0.42857142857143    0.12500000000000    0.37500000000000             2
    0.50000000000000    0.12500000000000    0.37500000000000             2
   -0.42857142857143    0.12500000000000    0.37500000000000             2
   -0.35714285714286    0.12500000000000    0.37500000000000             2
   -0.28571428571429    0.12500000000000    0.37500000000000             2
   -0.21428571428571    0.12500000000000    0.37500000000000             2
   -0.14285714285714    0.12500000000000    0.37500000000000             2
   -0.07142857142857    0.12500000000000    0.37500000000000             2
    0.00000000000000    0.25000000000000    0.37500000000000             2
    0.07142857142857    0.25000000000000    0.37500000000000             2
    0.14285714285714    0.25000000000000    0.37500000000000             2
    0.21428571428571    0.25000000000000    0.37500000000000             2
    0.28571428571429    0.25000000000000    0.37500000000000             2
    0.35714285714286    0.25000000000000    0.37500000000000             2
    0.42857142857143    0.25000000000000    0.37500000000000             2
    0.50000000000000    0.25000000000000    0.37500000000000             2
   -0.42857142857143    0.25000000000000    0.37500000000000             2
   -0.35714285714286    0.25000000000000    0.37500000000000             2
   -0.28571428571429    0.25000000000000    0.37500000000000             2
   -0.21428571428571    0.25000000000000    0.37500000000000             2
   -0.14285714285714    0.25000000000000    0.37500000000000             2
   -0.07142857142857    0.25000000000000    0.37500000000000             2
    0.00000000000000    0.37500000000000    0.37500000000000             2
    0.07142857142857    0.37500000000000    0.37500000000000             2
    0.14285714285714    0.37500000000000    0.37500000000000             2
    0.21428571428571    0.37500000000000    0.37500000000000             2
    0.28571428571429    0.37500000000000    0.37500000000000             2
    0.35714285714286    0.37500000000000    0.37500000000000             2
    0.42857142857143    0.37500000000000    0.37500000000000             2
    0.50000000000000    0.37500000000000    0.37500000000000             2
   -0.42857142857143    0.37500000000000    0.37500000000000             2
   -0.35714285714286    0.37500000000000    0.37500000000000             2
   -0.28571428571429    0.37500000000000    0.37500000000000             2
   -0.21428571428571    0.37500000000000    0.37500000000000             2
   -0.14285714285714    0.37500000000000    0.37500000000000             2
   -0.07142857142857    0.37500000000000    0.37500000000000             2
    0.00000000000000    0.50000000000000    0.37500000000000             2
    0.07142857142857    0.50000000000000    0.37500000000000             2
    0.14285714285714    0.50000000000000    0.37500000000000             2
    0.21428571428571    0.50000000000000    0.37500000000000             2
    0.28571428571429    0.50000000000000    0.37500000000000             2
    0.35714285714286    0.50000000000000    0.37500000000000             2
    0.42857142857143    0.50000000000000    0.37500000000000             2
    0.50000000000000    0.50000000000000    0.37500000000000             2
   -0.42857142857143    0.50000000000000    0.37500000000000             2
   -0.35714285714286    0.50000000000000    0.37500000000000             2
   -0.28571428571429    0.50000000000000    0.37500000000000             2
   -0.21428571428571    0.50000000000000    0.37500000000000             2
   -0.14285714285714    0.50000000000000    0.37500000000000             2
   -0.07142857142857    0.50000000000000    0.37500000000000             2
    0.00000000000000   -0.37500000000000    0.37500000000000             2
    0.07142857142857   -0.37500000000000    0.37500000000000             2
    0.14285714285714   -0.37500000000000    0.37500000000000             2
    0.21428571428571   -0.37500000000000    0.37500000000000             2
    0.28571428571429   -0.37500000000000    0.37500000000000             2
    0.35714285714286   -0.37500000000000    0.37500000000000             2
    0.42857142857143   -0.37500000000000    0.37500000000000             2
    0.50000000000000   -0.37500000000000    0.37500000000000             2
   -0.42857142857143   -0.37500000000000    0.37500000000000             2
   -0.35714285714286   -0.37500000000000    0.37500000000000             2
   -0.28571428571429   -0.37500000000000    0.37500000000000             2
   -0.21428571428571   -0.37500000000000    0.37500000000000             2
   -0.14285714285714   -0.37500000000000    0.37500000000000             2
   -0.07142857142857   -0.37500000000000    0.37500000000000             2
    0.00000000000000   -0.25000000000000    0.37500000000000             2
    0.07142857142857   -0.25000000000000    0.37500000000000             2
    0.14285714285714   -0.25000000000000    0.37500000000000             2
    0.21428571428571   -0.25000000000000    0.37500000000000             2
    0.28571428571429   -0.25000000000000    0.37500000000000             2
    0.35714285714286   -0.25000000000000    0.37500000000000             2
    0.42857142857143   -0.25000000000000    0.37500000000000             2
    0.50000000000000   -0.25000000000000    0.37500000000000             2
   -0.42857142857143   -0.25000000000000    0.37500000000000             2
   -0.35714285714286   -0.25000000000000    0.37500000000000             2
   -0.28571428571429   -0.25000000000000    0.37500000000000             2
   -0.21428571428571   -0.25000000000000    0.37500000000000             2
   -0.14285714285714   -0.25000000000000    0.37500000000000             2
   -0.07142857142857   -0.25000000000000    0.37500000000000             2
    0.00000000000000   -0.12500000000000    0.37500000000000             2
    0.07142857142857   -0.12500000000000    0.37500000000000             2
    0.14285714285714   -0.12500000000000    0.37500000000000             2
    0.21428571428571   -0.12500000000000    0.37500000000000             2
    0.28571428571429   -0.12500000000000    0.37500000000000             2
    0.35714285714286   -0.12500000000000    0.37500000000000             2
    0.42857142857143   -0.12500000000000    0.37500000000000             2
    0.50000000000000   -0.12500000000000    0.37500000000000             2
   -0.42857142857143   -0.12500000000000    0.37500000000000             2
   -0.35714285714286   -0.12500000000000    0.37500000000000             2
   -0.28571428571429   -0.12500000000000    0.37500000000000             2
   -0.21428571428571   -0.12500000000000    0.37500000000000             2
   -0.14285714285714   -0.12500000000000    0.37500000000000             2
   -0.07142857142857   -0.12500000000000    0.37500000000000             2
    0.00000000000000    0.00000000000000    0.50000000000000             1
    0.07142857142857    0.00000000000000    0.50000000000000             2
    0.14285714285714    0.00000000000000    0.50000000000000             2
    0.21428571428571    0.00000000000000    0.50000000000000             2
    0.28571428571429    0.00000000000000    0.50000000000000             2