   21   21   99    2
  0.7889525E+01  0.3244443E-09  0.6344118E-09  0.8193241E-09  0.5000000E-15
  1.000000000000000E-004
  CAR 
 unknown system                          
     70     32     64
 
  0.3742002E-15  0.3742002E-15  0.3742002E-15  0.1587302E-01
    1      -32.786409    -32.786405   1.000000   1.000000
    2      -28.859344    -28.859188   1.000000   1.000000
    3      -28.695698    -28.695644   1.000000   1.000000
    4      -28.662219    -28.662057   1.000000   1.000000
    5      -28.611147    -28.611084   1.000000   1.000000
    6      -28.570315    -28.570193   1.000000   1.000000
    7      -28.542810    -28.542651   1.000000   1.000000
    8      -28.482388    -28.482331   1.000000   1.000000
    9      -28.431170    -28.431073   1.000000   1.000000
   10      -28.309437    -28.309419   1.000000   1.000000
   11      -28.020191    -28.020192   1.000000   1.000000
   12      -27.880553    -27.880532   1.000000   1.000000
   13      -27.700034    -27.700044   1.000000   1.000000
   14      -14.891231    -14.891227   1.000000   1.000000
   15      -14.797370    -14.797363   1.000000   1.000000
   16      -14.464808    -14.464802   1.000000   1.000000
   17       -7.022409     -7.022381   1.000000   1.000000
   18       -5.713188     -5.713142   1.000000   1.000000
   19       -4.516577     -4.516558   1.000000   1.000000
   20       -3.644931     -3.644897   1.000000   1.000000
   21       -3.458615     -3.458574   1.000000   1.000000
   22       -3.071654     -3.071626   1.000000   1.000000
   23       -2.828485     -2.828444   1.000000   1.000000
   24       -2.091801     -2.091776   1.000000   1.000000
   25       -1.563536     -1.563474   1.000000   1.000000
   26       -1.265319     -1.265299   1.000000   1.000000
   27       -0.537273     -0.537213   1.000000   1.000000
   28       -0.404945     -0.404903   1.000000   1.000000
   29        0.093916      0.093961   1.000000   1.000000
   30        0.798889      0.798911   1.000000   1.000000
   31        1.445033      1.445108   1.000000   1.000000
   32        1.643171      1.643237   1.000000   1.000000
   33        2.157375      2.157485   1.000000   1.000000
   34        2.585724      2.585812   1.000000   1.000000
   35        2.999353      2.999483  -0.078057  -0.077962
   36        3.241801      3.241912   0.000000   0.000000
   37        3.641959      3.642055   0.000000   0.000000
   38        3.699402      3.699489   0.000000   0.000000
   39        3.815300      3.815378   0.000000   0.000000
   40        3.948395      3.948451   0.000000   0.000000
   41        4.388060      4.388263   0.000000   0.000000
   42        4.733319      4.733388   0.000000   0.000000
   43        5.153760      5.153774   0.000000   0.000000
   44        5.599601      5.599640   0.000000   0.000000
   45        5.663738      5.663780   0.000000   0.000000
   46        6.034480      6.034520   0.000000   0.000000
   47        6.281653      6.281722   0.000000   0.000000
   48        6.532589      6.532722   0.000000   0.000000
   49        7.463751      7.463787   0.000000   0.000000
   50        7.626385      7.626431   0.000000   0.000000
   51        8.158739      8.158781   0.000000   0.000000
   52        8.216963      8.217006   0.000000   0.000000
   53        8.533171      8.533194   0.000000   0.000000
   54        8.605970      8.605987   0.000000   0.000000
   55        9.110385      9.110436   0.000000   0.000000
   56        9.654153      9.654189   0.000000   0.000000
   57        9.899896      9.899923   0.000000   0.000000
   58       10.229878     10.229901   0.000000   0.000000
   59       10.840136     10.840177   0.000000   0.000000
   60       11.091435     11.091472   0.000000   0.000000
   61       11.338746     11.338787   0.000000   0.000000
   62       12.345606     12.345669   0.000000   0.000000
   63       12.455203     12.455262   0.000000   0.000000
   64       12.718128     12.718185   0.000000   0.000000
 
  0.1428571E+00  0.3746732E-15  0.3608225E-15  0.3174603E-01
    1      -32.764332    -32.764327   1.000000   1.000000
    2      -28.849775    -28.849619   1.000000   1.000000
    3      -28.688882    -28.688823   1.000000   1.000000
    4      -28.668042    -28.667880   1.000000   1.000000
    5      -28.619904    -28.619812   1.000000   1.000000
    6      -28.602299    -28.602192   1.000000   1.000000
    7      -28.574608    -28.574472   1.000000   1.000000
    8      -28.491606    -28.491548   1.000000   1.000000
    9      -28.436101    -28.436010   1.000000   1.000000
   10      -28.373097    -28.373069   1.000000   1.000000
   11      -28.018078    -28.018080   1.000000   1.000000
   12      -27.882446    -27.882428   1.000000   1.000000
   13      -27.739856    -27.739863   1.000000   1.000000
   14      -14.860660    -14.860656   1.000000   1.000000
   15      -14.763685    -14.763678   1.000000   1.000000
   16      -14.691946    -14.691939   1.000000   1.000000
   17       -6.765064     -6.765039   1.000000   1.000000
   18       -5.466330     -5.466284   1.000000   1.000000
   19       -4.300467     -4.300446   1.000000   1.000000
   20       -3.397626     -3.397606   1.000000   1.000000
   21       -3.260936     -3.260897   1.000000   1.000000
   22       -2.896991     -2.896957   1.000000   1.000000
   23       -2.726011     -2.725962   1.000000   1.000000
   24       -2.046726     -2.046700   1.000000   1.000000
   25       -1.519335     -1.519280   1.000000   1.000000
   26       -1.180596     -1.180574   1.000000   1.000000
   27       -0.716757     -0.716702   1.000000   1.000000
   28       -0.647748     -0.647706   1.000000   1.000000
   29       -0.100528     -0.100474   1.000000   1.000000
   30        0.519911      0.519939   1.000000   1.000000
   31        0.806017      0.806052   1.000000   1.000000
   32        1.592236      1.592317   1.000000   1.000000
   33        1.934824      1.934940   1.000000   1.000000
   34        2.284337      2.284436   1.000000   1.000000
   35        2.825469      2.825565   0.564434   0.564000
   36        3.194869      3.194949  -0.031997  -0.031980
   37        3.436267      3.436385   0.000000   0.000000
   38        3.955528      3.955688   0.000000   0.000000
   39        4.093058      4.093206   0.000000   0.000000
   40        4.256855      4.256945   0.000000   0.000000
   41        4.527062      4.527102   0.000000   0.000000
   42        4.750622      4.750690   0.000000   0.000000
   43        5.456245      5.456274   0.000000   0.000000
   44        5.722551      5.722618   0.000000   0.000000
   45        5.812516      5.812575   0.000000   0.000000
   46        6.209619      6.209654   0.000000   0.000000
   47        6.458433      6.458549   0.000000   0.000000
   48        6.764185      6.764240   0.000000   0.000000
   49        7.124255      7.124293   0.000000   0.000000
   50        7.757099      7.757148   0.000000   0.000000
   51        7.935723      7.935770   0.000000   0.000000
   52        8.297108      8.297149   0.000000   0.000000
   53        8.515238      8.515258   0.000000   0.000000
   54        8.774071      8.774100   0.000000   0.000000
   55        9.095892      9.095928   0.000000   0.000000
   56        9.542120      9.542159   0.000000   0.000000
   57        9.797864      9.797898   0.000000   0.000000
   58       10.065183     10.065212   0.000000   0.000000
   59       10.751047     10.751085   0.000000   0.000000
   60       10.915987     10.916019   0.000000   0.000000
   61       11.761274     11.761341   0.000000   0.000000
   62       12.239895     12.239956   0.000000   0.000000
   63       12.528200     12.528272   0.000000   0.000000
   64       12.847065     12.847136   0.000000   0.000000
 
  0.2857143E+00  0.3743750E-15  0.3330669E-15  0.3174603E-01
    1      -32.714136    -32.714131   1.000000   1.000000
    2      -28.836589    -28.836443   1.000000   1.000000
    3      -28.778750    -28.778567   1.000000   1.000000
    4      -28.713688    -28.713614   1.000000   1.000000
    5      -28.671217    -28.671148   1.000000   1.000000
    6      -28.617197    -28.617136   1.000000   1.000000
    7      -28.574615    -28.574443   1.000000   1.000000
    8      -28.510751    -28.510706   1.000000   1.000000
    9      -28.462008    -28.461979   1.000000   1.000000
   10      -28.435332    -28.435218   1.000000   1.000000
   11      -28.018407    -28.018411   1.000000   1.000000
   12      -27.901363    -27.901353   1.000000   1.000000
   13      -27.818893    -27.818890   1.000000   1.000000
   14      -15.173190    -15.173182   1.000000   1.000000
   15      -14.785326    -14.785322   1.000000   1.000000
   16      -14.685763    -14.685756   1.000000   1.000000
   17       -6.176835     -6.176815   1.000000   1.000000
   18       -4.814168     -4.814123   1.000000   1.000000
   19       -3.872812     -3.872781   1.000000   1.000000
   20       -3.125032     -3.125004   1.000000   1.000000
   21       -2.859744     -2.859719   1.000000   1.000000
   22       -2.588590     -2.588561   1.000000   1.000000
   23       -2.177734     -2.177690   1.000000   1.000000
   24       -2.067323     -2.067283   1.000000   1.000000
   25       -1.589045     -1.589001   1.000000   1.000000
   26       -1.256330     -1.256277   1.000000   1.000000
   27       -1.053442     -1.053416   1.000000   1.000000
   28       -0.967939     -0.967907   1.000000   1.000000
   29       -0.326216     -0.326175   1.000000   1.000000
   30        0.015453      0.015498   1.000000   1.000000
   31        0.377699      0.377735   1.000000   1.000000
   32        1.283525      1.283580   1.000000   1.000000
   33        1.538598      1.538654   1.000000   1.000000
   34        1.844692      1.844787   1.000000   1.000000
   35        2.424437      2.424589   1.002028   1.002046
   36        3.041243      3.041374  -0.045609  -0.045667
   37        3.469959      3.470103   0.000000   0.000000
   38        3.876552      3.876697   0.000000   0.000000
   39        4.111886      4.112032   0.000000   0.000000
   40        4.750829      4.750876   0.000000   0.000000
   41        5.126505      5.126534   0.000000   0.000000
   42        5.361579      5.361650   0.000000   0.000000
   43        5.543534      5.543585   0.000000   0.000000
   44        5.831771      5.831875   0.000000   0.000000
   45        6.034340      6.034416   0.000000   0.000000
   46        6.283497      6.283555   0.000000   0.000000
   47        6.532930      6.532968   0.000000   0.000000
   48        6.839186      6.839248   0.000000   0.000000
   49        7.522750      7.522795   0.000000   0.000000
   50        7.687988      7.688042   0.000000   0.000000
   51        8.088613      8.088652   0.000000   0.000000
   52        8.387730      8.387774   0.000000   0.000000
   53        8.455225      8.455267   0.000000   0.000000
   54        8.985050      8.985080   0.000000   0.000000
   55        9.233161      9.233188   0.000000   0.000000
   56        9.563941      9.563974   0.000000   0.000000
   57        9.702289      9.702325   0.000000   0.000000
   58       10.156660     10.156694   0.000000   0.000000
   59       10.535003     10.535051   0.000000   0.000000
   60       10.721692     10.721738   0.000000   0.000000
   61       11.174752     11.174839   0.000000   0.000000
   62       11.566356     11.566410   0.000000   0.000000
   63       12.149649     12.149718   0.000000   0.000000
   64       12.421169     12.421224   0.000000   0.000000
 
  0.4285714E+00  0.3784950E-15  0.3053113E-15  0.3174603E-01
    1      -32.673272    -32.673268   1.000000   1.000000
    2      -28.896901    -28.896743   1.000000   1.000000
    3      -28.829173    -28.829062   1.000000   1.000000
    4      -28.786295    -28.786155   1.000000   1.000000
    5      -28.685622    -28.685585   1.000000   1.000000
    6      -28.647933    -28.647868   1.000000   1.000000
    7      -28.565477    -28.565328   1.000000   1.000000
    8      -28.552109    -28.552037   1.000000   1.000000
    9      -28.439880    -28.439833   1.000000   1.000000
   10      -28.419427    -28.419310   1.000000   1.000000
   11      -28.022173    -28.022178   1.000000   1.000000
   12      -27.929487    -27.929488   1.000000   1.000000
   13      -27.871802    -27.871791   1.000000   1.000000
   14      -15.527276    -15.527267   1.000000   1.000000
   15      -14.726466    -14.726463   1.000000   1.000000
   16      -14.621812    -14.621806   1.000000   1.000000
   17       -5.701659     -5.701644   1.000000   1.000000
   18       -3.998433     -3.998394   1.000000   1.000000
   19       -3.678294     -3.678247   1.000000   1.000000
   20       -3.042123     -3.042093   1.000000   1.000000
   21       -2.827169     -2.827136   1.000000   1.000000
   22       -2.324982     -2.324956   1.000000   1.000000
   23       -2.226446     -2.226393   1.000000   1.000000
   24       -1.963272     -1.963249   1.000000   1.000000
   25       -1.740101     -1.740059   1.000000   1.000000
   26       -1.377666     -1.377639   1.000000   1.000000
   27       -1.087907     -1.087880   1.000000   1.000000
   28       -0.865711     -0.865679   1.000000   1.000000
   29       -0.445651     -0.445620   1.000000   1.000000
   30       -0.183737     -0.183695   1.000000   1.000000
   31        0.280180      0.280223   1.000000   1.000000
   32        0.728833      0.728876   1.000000   1.000000
   33        1.339835      1.339915   1.000000   1.000000
   34        1.921034      1.921104   1.000000   1.000000
   35        2.390328      2.390526   1.000000   1.000000
   36        2.881703      2.881836   0.002549   0.002447
   37        3.557875      3.558038   0.000000   0.000000
   38        3.950111      3.950255   0.000000   0.000000
   39        4.134273      4.134382   0.000000   0.000000
   40        4.776529      4.776574   0.000000   0.000000
   41        5.253486      5.253520   0.000000   0.000000
   42        5.579222      5.579314   0.000000   0.000000
   43        5.791066      5.791159   0.000000   0.000000
   44        5.954254      5.954320   0.000000   0.000000
   45        6.160853      6.160930   0.000000   0.000000
   46        6.416391      6.416412   0.000000   0.000000
   47        6.639248      6.639294   0.000000   0.000000
   48        7.172160      7.172206   0.000000   0.000000
   49        7.559468      7.559522   0.000000   0.000000
   50        7.868311      7.868353   0.000000   0.000000
   51        7.944117      7.944157   0.000000   0.000000
   52        8.218345      8.218390   0.000000   0.000000
   53        8.756052      8.756091   0.000000   0.000000
   54        8.931452      8.931485   0.000000   0.000000
   55        9.189862      9.189930   0.000000   0.000000
   56        9.642845      9.642909   0.000000   0.000000
   57        9.748082      9.748146   0.000000   0.000000
   58       10.106065     10.106125   0.000000   0.000000
   59       10.469913     10.469961   0.000000   0.000000
   60       10.620050     10.620096   0.000000   0.000000
   61       10.875439     10.875487   0.000000   0.000000
   62       11.463288     11.463342   0.000000   0.000000
   63       11.848572     11.848636   0.000000   0.000000
   64       12.007330     12.007387   0.000000   0.000000
 
  0.3731824E-15  0.3333333E+00  0.3469447E-15  0.3174603E-01
    1      -32.786440    -32.786435   1.000000   1.000000
    2      -28.787867    -28.787697   1.000000   1.000000
    3      -28.700770    -28.700703   1.000000   1.000000
    4      -28.653928    -28.653770   1.000000   1.000000
    5      -28.624996    -28.624936   1.000000   1.000000
    6      -28.595088    -28.595008   1.000000   1.000000
    7      -28.554564    -28.554365   1.000000   1.000000
    8      -28.490291    -28.490231   1.000000   1.000000
    9      -28.456217    -28.456141   1.000000   1.000000
   10      -28.309419    -28.309401   1.000000   1.000000
   11      -28.013404    -28.013404   1.000000   1.000000
   12      -27.882084    -27.882063   1.000000   1.000000
   13      -27.700069    -27.700079   1.000000   1.000000
   14      -14.897572    -14.897567   1.000000   1.000000
   15      -14.796459    -14.796453   1.000000   1.000000
   16      -14.464784    -14.464778   1.000000   1.000000
   17       -6.754871     -6.754849   1.000000   1.000000
   18       -5.491431     -5.491382   1.000000   1.000000
   19       -4.721844     -4.721800   1.000000   1.000000
   20       -4.290444     -4.290418   1.000000   1.000000
   21       -3.460122     -3.460103   1.000000   1.000000
   22       -3.089766     -3.089739   1.000000   1.000000
   23       -2.644128     -2.644090   1.000000   1.000000
   24       -2.161382     -2.161346   1.000000   1.000000
   25       -1.545355     -1.545317   1.000000   1.000000
   26       -1.277034     -1.276988   1.000000   1.000000
   27       -0.443705     -0.443653   1.000000   1.000000
   28       -0.383132     -0.383092   1.000000   1.000000
   29        0.196656      0.196696   1.000000   1.000000
   30        0.820275      0.820319   1.000000   1.000000
   31        1.274526      1.274623   1.000000   1.000000
   32        1.807747      1.807799   1.000000   1.000000
   33        2.201425      2.201519   1.000000   1.000000
   34        2.614046      2.614142   1.000000   1.000000
   35        2.883458      2.883564  -0.014386  -0.014530
   36        3.273344      3.273450   0.000000   0.000000
   37        3.547784      3.547856   0.000000   0.000000
   38        3.671984      3.672065   0.000000   0.000000
   39        3.836779      3.836878   0.000000   0.000000
   40        3.990756      3.990909   0.000000   0.000000
   41        4.289480      4.289620   0.000000   0.000000
   42        4.784204      4.784265   0.000000   0.000000
   43        5.239721      5.239742   0.000000   0.000000
   44        5.545238      5.545332   0.000000   0.000000
   45        5.878250      5.878303   0.000000   0.000000
   46        6.149823      6.149874   0.000000   0.000000
   47        6.470618      6.470690   0.000000   0.000000
   48        6.785941      6.785980   0.000000   0.000000
   49        7.117192      7.117232   0.000000   0.000000
   50        7.672219      7.672250   0.000000   0.000000
   51        7.943191      7.943238   0.000000   0.000000
   52        8.140689      8.140722   0.000000   0.000000
   53        8.475323      8.475342   0.000000   0.000000
   54        8.723907      8.723934   0.000000   0.000000
   55        8.955340      8.955398   0.000000   0.000000
   56        9.563663      9.563696   0.000000   0.000000
   57        9.876688      9.876722   0.000000   0.000000
   58       10.241403     10.241439   0.000000   0.000000
   59       10.647549     10.647586   0.000000   0.000000
   60       11.422051     11.422089   0.000000   0.000000
   61       11.728044     11.728090   0.000000   0.000000
   62       12.293848     12.293898   0.000000   0.000000
   63       12.499664     12.499751   0.000000   0.000000
   64       12.850382     12.850448   0.000000   0.000000
 
  0.1428571E+00  0.3333333E+00  0.3053113E-15  0.3174603E-01
    1      -32.764360    -32.764356   1.000000   1.000000
    2      -28.779356    -28.779187   1.000000   1.000000
    3      -28.693263    -28.693185   1.000000   1.000000
    4      -28.663863    -28.663715   1.000000   1.000000
    5      -28.633800    -28.633715   1.000000   1.000000
    6      -28.607342    -28.607256   1.000000   1.000000
    7      -28.578935    -28.578760   1.000000   1.000000
    8      -28.522888    -28.522823   1.000000   1.000000
    9      -28.458878    -28.458819   1.000000   1.000000
   10      -28.373698    -28.373674   1.000000   1.000000
   11      -28.013515    -28.013516   1.000000   1.000000
   12      -27.883941    -27.883923   1.000000   1.000000
   13      -27.738564    -27.738570   1.000000   1.000000
   14      -14.866616    -14.866611   1.000000   1.000000
   15      -14.762874    -14.762867   1.000000   1.000000
   16      -14.691628    -14.691621   1.000000   1.000000
   17       -6.511768     -6.511747   1.000000   1.000000
   18       -5.212918     -5.212870   1.000000   1.000000
   19       -4.496821     -4.496777   1.000000   1.000000
   20       -4.046629     -4.046605   1.000000   1.000000
   21       -3.223083     -3.223064   1.000000   1.000000
   22       -3.029611     -3.029584   1.000000   1.000000
   23       -2.592877     -2.592845   1.000000   1.000000
   24       -1.953873     -1.953833   1.000000   1.000000
   25       -1.587739     -1.587697   1.000000   1.000000
   26       -1.226540     -1.226498   1.000000   1.000000
   27       -0.658331     -0.658281   1.000000   1.000000
   28       -0.514595     -0.514562   1.000000   1.000000
   29        0.069643      0.069689   1.000000   1.000000
   30        0.600713      0.600756   1.000000   1.000000
   31        0.761981      0.762034   1.000000   1.000000
   32        1.452112      1.452201   1.000000   1.000000
   33        1.834822      1.834876   1.000000   1.000000
   34        2.339841      2.340004   1.000000   1.000000
   35        2.758485      2.758590   0.794875   0.794193
   36        3.059277      3.059346  -0.003409  -0.003375
   37        3.417675      3.417779   0.000000   0.000000
   38        3.827769      3.827978   0.000000   0.000000
   39        4.186630      4.186712   0.000000   0.000000
   40        4.278609      4.278702   0.000000   0.000000
   41        4.577741      4.577818   0.000000   0.000000
   42        4.838926      4.838972   0.000000   0.000000
   43        5.498444      5.498475   0.000000   0.000000
   44        5.764957      5.765033   0.000000   0.000000
   45        6.069606      6.069691   0.000000   0.000000
   46        6.247892      6.247937   0.000000   0.000000
   47        6.635299      6.635355   0.000000   0.000000
   48        6.938771      6.938809   0.000000   0.000000
   49        7.158953      7.159002   0.000000   0.000000
   50        7.507668      7.507702   0.000000   0.000000
   51        7.939668      7.939709   0.000000   0.000000
   52        8.114886      8.114923   0.000000   0.000000
   53        8.578856      8.578902   0.000000   0.000000
   54        8.669130      8.669155   0.000000   0.000000
   55        9.366651      9.366694   0.000000   0.000000
   56        9.697434      9.697460   0.000000   0.000000
   57       10.018086     10.018126   0.000000   0.000000
   58       10.053901     10.053942   0.000000   0.000000
   59       10.355448     10.355486   0.000000   0.000000
   60       11.188178     11.188223   0.000000   0.000000
   61       11.466256     11.466307   0.000000   0.000000
   62       12.022934     12.022991   0.000000   0.000000
   63       12.285411     12.285473   0.000000   0.000000
   64       12.765826     12.765887   0.000000   0.000000
 
  0.2857143E+00  0.3333333E+00  0.3330669E-15  0.3174603E-01
    1      -32.714145    -32.714141   1.000000   1.000000
    2      -28.797004    -28.796855   1.000000   1.000000
    3      -28.754491    -28.754323   1.000000   1.000000
    4      -28.717095    -28.716981   1.000000   1.000000
    5      -28.667999    -28.667938   1.000000   1.000000
    6      -28.616488    -28.616431   1.000000   1.000000
    7      -28.578101    -28.577948   1.000000   1.000000
    8      -28.533091    -28.533019   1.000000   1.000000
    9      -28.487685    -28.487583   1.000000   1.000000
   10      -28.455401    -28.455386   1.000000   1.000000
   11      -28.016874    -28.016877   1.000000   1.000000
   12      -27.902617    -27.902608   1.000000   1.000000
   13      -27.815171    -27.815167   1.000000   1.000000
   14      -15.172691    -15.172683   1.000000   1.000000
   15      -14.789163    -14.789159   1.000000   1.000000
   16      -14.685282    -14.685276   1.000000   1.000000
   17       -6.024339     -6.024321   1.000000   1.000000
   18       -4.486890     -4.486845   1.000000   1.000000
   19       -3.954086     -3.954043   1.000000   1.000000
   20       -3.459386     -3.459360   1.000000   1.000000
   21       -2.936112     -2.936094   1.000000   1.000000
   22       -2.762866     -2.762834   1.000000   1.000000
   23       -2.549405     -2.549386   1.000000   1.000000
   24       -1.759856     -1.759804   1.000000   1.000000
   25       -1.529926     -1.529894   1.000000   1.000000
   26       -1.227422     -1.227380   1.000000   1.000000
   27       -0.982482     -0.982434   1.000000   1.000000
   28       -0.811179     -0.811147   1.000000   1.000000
   29       -0.314930     -0.314896   1.000000   1.000000
   30        0.018444      0.018501   1.000000   1.000000
   31        0.529798      0.529831   1.000000   1.000000
   32        1.092958      1.093032   1.000000   1.000000
   33        1.313089      1.313140   1.000000   1.000000
   34        1.859360      1.859435   1.000000   1.000000
   35        2.409606      2.409727   1.000000   1.000000
   36        2.759808      2.760047   0.327236   0.325735
   37        3.236035      3.236162   0.000000   0.000000
   38        3.859846      3.859978   0.000000   0.000000
   39        4.250959      4.251078   0.000000   0.000000
   40        4.883273      4.883329   0.000000   0.000000
   41        5.036459      5.036497   0.000000   0.000000
   42        5.344005      5.344085   0.000000   0.000000
   43        5.536068      5.536111   0.000000   0.000000
   44        5.757755      5.757817   0.000000   0.000000
   45        6.201028      6.201090   0.000000   0.000000
   46        6.586240      6.586306   0.000000   0.000000
   47        6.951908      6.951969   0.000000   0.000000
   48        7.029207      7.029259   0.000000   0.000000
   49        7.298968      7.299020   0.000000   0.000000
   50        7.531930      7.531970   0.000000   0.000000
   51        7.991557      7.991587   0.000000   0.000000
   52        8.564854      8.564888   0.000000   0.000000
   53        8.815993      8.816036   0.000000   0.000000
   54        8.987710      8.987755   0.000000   0.000000
   55        9.345375      9.345413   0.000000   0.000000
   56        9.569755      9.569794   0.000000   0.000000
   57        9.826000      9.826035   0.000000   0.000000
   58       10.183880     10.183930   0.000000   0.000000
   59       10.461574     10.461604   0.000000   0.000000
   60       10.703951     10.704020   0.000000   0.000000
   61       11.284745     11.284785   0.000000   0.000000
   62       11.631842     11.631924   0.000000   0.000000
   63       12.064975     12.065038   0.000000   0.000000
   64       12.437507     12.437513   0.000000   0.000000
 
  0.4285714E+00  0.3333333E+00  0.2775558E-15  0.3174603E-01
    1      -32.673261    -32.673257   1.000000   1.000000
    2      -28.887922    -28.887750   1.000000   1.000000
    3      -28.830754    -28.830682   1.000000   1.000000
    4      -28.730935    -28.730748   1.000000   1.000000
    5      -28.684129    -28.684095   1.000000   1.000000
    6      -28.643970    -28.643908   1.000000   1.000000
    7      -28.576018    -28.575870   1.000000   1.000000
    8      -28.555155    -28.555122   1.000000   1.000000
    9      -28.497483    -28.497339   1.000000   1.000000
   10      -28.423979    -28.423936   1.000000   1.000000
   11      -28.022083    -28.022088   1.000000   1.000000
   12      -27.929956    -27.929956   1.000000   1.000000
   13      -27.866994    -27.866981   1.000000   1.000000
   14      -15.526509    -15.526500   1.000000   1.000000
   15      -14.728487    -14.728483   1.000000   1.000000
   16      -14.621709    -14.621703   1.000000   1.000000
   17       -5.650518     -5.650503   1.000000   1.000000
   18       -3.771546     -3.771503   1.000000   1.000000
   19       -3.439254     -3.439212   1.000000   1.000000
   20       -3.204039     -3.204011   1.000000   1.000000
   21       -2.708499     -2.708472   1.000000   1.000000
   22       -2.604559     -2.604526   1.000000   1.000000
   23       -2.315870     -2.315846   1.000000   1.000000
   24       -1.991737     -1.991694   1.000000   1.000000
   25       -1.761463     -1.761426   1.000000   1.000000
   26       -1.410750     -1.410717   1.000000   1.000000
   27       -1.102351     -1.102331   1.000000   1.000000
   28       -0.815041     -0.815002   1.000000   1.000000
   29       -0.560621     -0.560579   1.000000   1.000000
   30       -0.107753     -0.107703   1.000000   1.000000
   31        0.331052      0.331088   1.000000   1.000000
   32        0.761864      0.761907   1.000000   1.000000
   33        1.247087      1.247158   1.000000   1.000000
   34        1.563965      1.564031   1.000000   1.000000
   35        2.303358      2.303496   1.000000   1.000000
   36        2.897587      2.897870   0.068353   0.066948
   37        3.257170      3.257291   0.000000   0.000000
   38        3.932573      3.932698   0.000000   0.000000
   39        4.237439      4.237514   0.000000   0.000000
   40        4.781816      4.781865   0.000000   0.000000
   41        5.306342      5.306399   0.000000   0.000000
   42        5.591986      5.592098   0.000000   0.000000
   43        5.897991      5.898085   0.000000   0.000000
   44        6.060540      6.060580   0.000000   0.000000
   45        6.335661      6.335707   0.000000   0.000000
   46        6.508321      6.508373   0.000000   0.000000
   47        6.889931      6.889979   0.000000   0.000000
   48        6.922854      6.922903   0.000000   0.000000
   49        7.440461      7.440518   0.000000   0.000000
   50        7.650407      7.650447   0.000000   0.000000
   51        7.990630      7.990662   0.000000   0.000000
   52        8.338735      8.338782   0.000000   0.000000
   53        8.636755      8.636786   0.000000   0.000000
   54        8.783568      8.783615   0.000000   0.000000
   55        9.496359      9.496418   0.000000   0.000000
   56        9.878848      9.878908   0.000000   0.000000
   57       10.094212     10.094244   0.000000   0.000000