unknown system                          
           1
     6.869332   -0.389161    0.386024
     0.937879    6.316977    0.532883
     2.594199    0.766770    6.023206
   Sr   Nb   H 
   3   3  19
Direct configuration=     1
   0.91146100  0.13219300  0.64470700
   0.28381400  0.97871900  0.09019400
   0.94654800  0.49927300  0.06215400
   0.39274500  0.83097400  0.60752200
   0.42545100  0.43991800  0.50732300
   0.49251400  0.48903100  0.98671800
   0.17216500  0.86146400  0.50407200
   0.24485300  0.32293500  0.17480300
   0.58178300  0.75698000  0.76643300
   0.64865700  0.96943800  0.50114800
   0.10649100  0.88248200  0.85282700
   0.58708100  0.99506000  0.32550300
   0.52381500  0.90670300  0.28411700
   0.95483900  0.13156400  0.25907500
   0.31877100  0.13715800  0.57299800
   0.13485500  0.40074600  0.70729000
   0.58260800  0.20599900  0.98984500
   0.62507800  0.65275500  0.45010400
   0.38974300  0.33497200  0.81521200
   0.78800500  0.47917200  0.79874100
   0.58629400  0.35820900  0.21955900
   0.62329000  0.70280800  0.03371400
   0.68724800  0.33511400  0.48680600
   0.27041900  0.65385400  0.96174900
   0.31431500  0.56447600  0.26684500
unknown system                          
           1
     6.933229   -0.392336    0.390699
     0.947041    6.376736    0.539830
     2.619473    0.775970    6.078777
   Sr   Nb   H 
   3   3  19
Direct configuration=     2
   0.91164413  0.13235041  0.64447833
   0.28379374  0.97887368  0.09031254
   0.94663355  0.49901046  0.06192152
   0.39314141  0.83134379  0.60741843
   0.42529860  0.43957018  0.50768211
   0.49278446  0.48881774  0.98670656
   0.17219694  0.86147871  0.50424125
   0.24509036  0.32309037  0.17465687
   0.58165285  0.75688219  0.76639903
   0.64816749  0.96940726  0.50135423
   0.10664156  0.88239612  0.85283673
   0.58656522  0.99435856  0.32518997
   0.52428950  0.90741506  0.28452370
   0.95493558  0.13156416  0.25910556
   0.31874650  0.13722422  0.57282586
   0.13531677  0.40062277  0.70715353
   0.58239628  0.20643986  0.98979094
   0.62482232  0.65277795  0.45008803
   0.38975876  0.33493584  0.81506377
   0.78761999  0.47925611  0.79899820
   0.58612875  0.35839836  0.21954274
   0.62312811  0.70256824  0.03365069
   0.68704979  0.33524836  0.48694973
   0.27058792  0.65370204  0.96176203
   0.31445242  0.56426455  0.26680662
unknown system                          
           1
     6.980947   -0.394707    0.394191
     0.953883    6.421363    0.545017
     2.638348    0.782840    6.120277
   Sr   Nb   H 
   3   3  19
Direct configuration=     3
   0.91177968  0.13246692  0.64430905
   0.28377874  0.97898808  0.09040022
   0.94669687  0.49881629  0.06174954
   0.39343476  0.83161738  0.60734165
   0.42518577  0.43931276  0.50794796
   0.49298458  0.48865996  0.98669811
   0.17222056  0.86148955  0.50436649
   0.24526602  0.32320535  0.17454866
   0.58155654  0.75680985  0.76637394
   0.64780524  0.96938448  0.50150692
   0.10675297  0.88233257  0.85284393
   0.58618355  0.99383971  0.32495856
   0.52464061  0.90794174  0.28482442
   0.95500704  0.13156426  0.25912816
   0.31872839  0.13727325  0.57269847
   0.13565847  0.40053163  0.70705252
   0.58223964  0.20676605  0.98975086
   0.62463314  0.65279493  0.45007625
   0.38977043  0.33490913  0.81495409
   0.78733506  0.47931828  0.79918856
   0.58600647  0.35853846  0.21953068
   0.62300832  0.70239088  0.03360392
   0.68690312  0.33534774  0.48705608
   0.27071290  0.65358961  0.96177169
   0.31455410  0.56410813  0.26677825
unknown system                          
           1
     6.995132   -0.392872    0.399923
     0.958906    6.440354    0.547211
     2.647872    0.786019    6.142378
   Sr   Nb   H 
   3   3  19
Direct configuration=     4
   0.91235868  0.13288237  0.64349802
   0.28374322  0.97942046  0.09065159
   0.94695508  0.49806141  0.06115776
   0.39412442  0.83025112  0.60628648
   0.42673390  0.44064015  0.50859055
   0.49172406  0.49002777  0.98809978
   0.17340891  0.86183073  0.50471299
   0.24703585  0.32409764  0.17304795
   0.58028262  0.75563522  0.76687952
   0.64600962  0.96867860  0.50242575
   0.10789207  0.88206658  0.85213948
   0.58509060  0.99263603  0.32527521
   0.52476337  0.90870120  0.28599677
   0.95575308  0.13173643  0.25906599
   0.31924718  0.13729395  0.57236135
   0.13733002  0.40056966  0.70627187
   0.58152696  0.20822568  0.98953720
   0.62222446  0.65225466  0.45087035
   0.39023058  0.33557828  0.81388862
   0.78558077  0.47920562  0.80060191
   0.58499881  0.35972297  0.21974842
   0.62218729  0.70072876  0.03328302
   0.68538805  0.33600531  0.48732325
   0.27218533  0.65259064  0.96168895
   0.31606807  0.56315575  0.26605623
unknown system                          
           1
     7.000745   -0.392146    0.402192
     0.960894    6.447869    0.548078
     2.651641    0.787276    6.151124
   Sr   Nb   H 
   3   3  19
Direct configuration=     5
   0.91258736  0.13304623  0.64317804
   0.28372914  0.97959104  0.09075071
   0.94705717  0.49776356  0.06092436
   0.39439701  0.82971202  0.60587027
   0.42734533  0.44116366  0.50884338
   0.49122596  0.49056753  0.98865279
   0.17387833  0.86196520  0.50484922
   0.24773489  0.32444951  0.17245565
   0.57977950  0.75517193  0.76707930
   0.64530036  0.96840029  0.50278863
   0.10834208  0.88196152  0.85186138
   0.58465897  0.99216125  0.32540044
   0.52481178  0.90900079  0.28645895
   0.95604778  0.13180428  0.25904124
   0.31945212  0.13730206  0.57222826
   0.13799034  0.40058449  0.70596354
   0.58124526  0.20880165  0.98945313
   0.62127300  0.65204177  0.45118423
   0.39041227  0.33584226  0.81346836
   0.78488778  0.47916134  0.80115974
   0.58460061  0.36019041  0.21983455
   0.62186314  0.70007310  0.03315680
   0.68478947  0.33626492  0.48742904
   0.27276711  0.65219634  0.96165589
   0.31666626  0.56277985  0.26577109
unknown system                          
           1
     7.007621   -0.386056    0.406256
     0.968222    6.457692    0.549710
     2.657894    0.790914    6.165242
   Sr   Nb   H 
   3   3  19
Direct configuration=     6
   0.91337290  0.13374241  0.64215906
   0.28390329  0.97996156  0.09063427
   0.94750867  0.49697385  0.06004409
   0.39389611  0.82934773  0.60681841
   0.42645234  0.44155759  0.50901332
   0.49237697  0.48975027  0.98810872
   0.17533210  0.86244044  0.50501757
   0.24935610  0.32538610  0.17102809
   0.57816106  0.75372092  0.76775314
   0.64349929  0.96748505  0.50395306
   0.10979288  0.88154125  0.85086386
   0.58418452  0.99192989  0.32601057
   0.52432575  0.90900502  0.28681300
   0.95697703  0.13208853  0.25902126
   0.32034586  0.13716473  0.57180211
   0.13997766  0.40075270  0.70518311
   0.58026028  0.21082064  0.98927925
   0.61936168  0.65196939  0.45183267
   0.39105118  0.33666793  0.81255826
   0.78268376  0.47912067  0.80302622
   0.58341311  0.36179309  0.22023082
   0.62100432  0.69862983  0.03303230
   0.68406036  0.33671919  0.48773658
   0.27346924  0.65151585  0.96181760
   0.31807656  0.56191239  0.26572163
unknown system                          
           1
     7.010685   -0.383342    0.408067
     0.971487    6.462068    0.550436
     2.660680    0.792534    6.171533
   Sr   Nb   H 
   3   3  19
Direct configuration=     7
   0.91372243  0.13405194  0.64170586
   0.28398071  0.98012634  0.09058245
   0.94770999  0.49662246  0.05965267
   0.39367320  0.82918574  0.60724004
   0.42605458  0.44173318  0.50908907
   0.49288978  0.48938629  0.98786661
   0.17597926  0.86265124  0.50509206
   0.25007765  0.32580229  0.17039304
   0.57744093  0.75307597  0.76805314
   0.64269765  0.96707847  0.50447119
   0.11043904  0.88135381  0.85042008
   0.58397334  0.99182708  0.32628193
   0.52410933  0.90900705  0.28697051
   0.95739070  0.13221461  0.25901215
   0.32074387  0.13710333  0.57161245
   0.14086250  0.40082682  0.70483569
   0.57982096  0.21171927  0.98920212
   0.61851064  0.65193789  0.45212140
   0.39133538  0.33703510  0.81215349
   0.78170237  0.47910324  0.80385651
   0.58288377  0.36250651  0.22040721
   0.62062242  0.69798813  0.03297720
   0.68373554  0.33692154  0.48787345
   0.27378212  0.65121280  0.96188935
   0.31870485  0.56152591  0.26569934
unknown system                          
           1
     7.012409   -0.376593    0.403630
     0.977403    6.457848    0.549843
     2.658665    0.794707    6.165442
   Sr   Nb   H 
   3   3  19
Direct configuration=     8
   0.91435212  0.13473189  0.64083870
   0.28447718  0.98011052  0.09017067
   0.94815857  0.49612859  0.05893314
   0.39315218  0.82975157  0.60736208
   0.42597218  0.44147257  0.50838775
   0.49153175  0.48990561  0.98818488
   0.17678742  0.86310190  0.50499581
   0.25079206  0.32597007  0.16968342
   0.57647679  0.75182844  0.76854159
   0.64192352  0.96647506  0.50540996
   0.11128347  0.88101626  0.84980213
   0.58366017  0.99195505  0.32705352
   0.52329035  0.90858213  0.28723548
   0.95807605  0.13250687  0.25907413
   0.32156945  0.13678861  0.57135110
   0.14128449  0.40085004  0.70507852
   0.57943227  0.21228698  0.98906393
   0.61778984  0.65214616  0.45239491
   0.39182844  0.33759257  0.81182008
   0.78135775  0.47886964  0.80449081
   0.58232234  0.36358886  0.22063817
   0.62031768  0.69738142  0.03301191
   0.68380897  0.33704769  0.48804513
   0.27367589  0.65087499  0.96220363
   0.31952206  0.56103349  0.26568755
unknown system                          
           1
     7.013445   -0.372539    0.400965
     0.980956    6.455313    0.549487
     2.657454    0.796012    6.161784
   Sr   Nb   H 
   3   3  19
Direct configuration=     9
   0.91472978  0.13514030  0.64031772
   0.28477525  0.98010078  0.08992335
   0.94842818  0.49583168  0.05850075
   0.39283905  0.83009193  0.60743522
   0.42592289  0.44131621  0.50796604
   0.49071615  0.49021856  0.98837558
   0.17727233  0.86337217  0.50493839
   0.25122088  0.32607059  0.16925716
   0.57589868  0.75107930  0.76883468
   0.64145910  0.96611273  0.50597393
   0.11179064  0.88081299  0.84943103
   0.58347206  0.99203197  0.32751725
   0.52279892  0.90832728  0.28739433
   0.95848733  0.13268200  0.25911176
   0.32206528  0.13659897  0.57119438
   0.14153781  0.40086363  0.70522473
   0.57919859  0.21262845  0.98898069
   0.61735699  0.65227176  0.45255900
   0.39212414  0.33792733  0.81161993
   0.78115097  0.47872933  0.80487197
   0.58198465  0.36423962  0.22077680
   0.62013508  0.69701702  0.03303259
   0.68385298  0.33712340  0.48814838
   0.27361230  0.65067197  0.96239250
   0.32001297  0.56073701  0.26568085
