       N       E                     dE             d eps       ncg     rms          rms(c)
DAV:   1    -0.224195513173E+02   -0.22420E+02   -0.46633E+03 13600   0.416E+02
DAV:   2    -0.626718950793E+02   -0.40252E+02   -0.39483E+02 16468   0.102E+02
DAV:   3    -0.641216875450E+02   -0.14498E+01   -0.14458E+01 17008   0.193E+01
DAV:   4    -0.641252205980E+02   -0.35331E-02   -0.35327E-02 15812   0.112E+00
DAV:   5    -0.641252348873E+02   -0.14289E-04   -0.14289E-04 15488   0.649E-02    0.127E+01
DAV:   6    -0.620787659731E+02    0.20465E+01   -0.59665E-01 14652   0.386E+00    0.723E+00
DAV:   7    -0.610812599915E+02    0.99751E+00   -0.15565E+00 15156   0.651E+00    0.652E-01
DAV:   8    -0.611047056431E+02   -0.23446E-01   -0.70853E-02 14712   0.147E+00    0.405E-01
DAV:   9    -0.611014678158E+02    0.32378E-02   -0.50558E-03 16808   0.413E-01    0.468E-02
DAV:  10    -0.611015511883E+02   -0.83373E-04   -0.28978E-04 15572   0.966E-02
   1 F= -.61101551E+02 E0= -.61101670E+02  d E =-.611016E+02
       N       E                     dE             d eps       ncg     rms          rms(c)
DAV:   1    -0.610984657336E+02    0.30021E-02   -0.25128E-01 15236   0.313E+00    0.228E-01
DAV:   2    -0.610991223869E+02   -0.65665E-03   -0.13673E-02 15744   0.708E-01    0.177E-01
DAV:   3    -0.610986265290E+02    0.49586E-03   -0.71681E-04 16720   0.262E-01    0.288E-02
DAV:   4    -0.610986863408E+02   -0.59812E-04   -0.61745E-04 15088   0.133E-01
   2 F= -.61098686E+02 E0= -.61098806E+02  d E =0.286485E-02
       N       E                     dE             d eps       ncg     rms          rms(c)
DAV:   1    -0.611045339491E+02   -0.59074E-02   -0.84139E-02 15120   0.179E+00    0.134E-01
DAV:   2    -0.611046935308E+02   -0.15958E-03   -0.42374E-03 15764   0.397E-01    0.103E-01
DAV:   3    -0.611045122351E+02    0.18130E-03   -0.27997E-04 16656   0.166E-01    0.108E-02
DAV:   4    -0.611045345668E+02   -0.22332E-04   -0.22024E-04 11328   0.784E-02
   3 F= -.61104535E+02 E0= -.61104653E+02  d E =-.298338E-02
       N       E                     dE             d eps       ncg     rms          rms(c)
DAV:   1    -0.611091827840E+02   -0.46705E-02   -0.46210E-02 14256   0.121E+00    0.730E-02
DAV:   2    -0.611092796920E+02   -0.96908E-04   -0.85187E-04 16128   0.158E-01
   4 F= -.61109280E+02 E0= -.61109401E+02  d E =-.474513E-02
       N       E                     dE             d eps       ncg     rms          rms(c)
DAV:   1    -0.611177761595E+02   -0.85934E-02   -0.42013E-01 14348   0.367E+00    0.224E-01
DAV:   2    -0.611186607068E+02   -0.88455E-03   -0.69543E-03 16184   0.455E-01    0.151E-01
DAV:   3    -0.611188823244E+02   -0.22162E-03   -0.64547E-04 15728   0.187E-01    0.198E-02
DAV:   4    -0.611189008822E+02   -0.18558E-04   -0.23207E-04 12828   0.738E-02
   5 F= -.61118901E+02 E0= -.61119031E+02  d E =-.143663E-01
       N       E                     dE             d eps       ncg     rms          rms(c)
DAV:   1    -0.611102429622E+02    0.86394E-02   -0.16914E+00 14480   0.740E+00    0.459E-01
DAV:   2    -0.611141765158E+02   -0.39336E-02   -0.33400E-02 16196   0.980E-01    0.313E-01
DAV:   3    -0.611149244924E+02   -0.74798E-03   -0.26873E-03 15868   0.386E-01    0.392E-02
DAV:   4    -0.611150101605E+02   -0.85668E-04   -0.10013E-03 15744   0.152E-01    0.346E-02
DAV:   5    -0.611149986851E+02    0.11475E-04   -0.26144E-05  8532   0.399E-02
   6 F= -.61114999E+02 E0= -.61115148E+02  d E =-.104641E-01
       N       E                     dE             d eps       ncg     rms          rms(c)
DAV:   1    -0.611193533658E+02   -0.43432E-02   -0.69589E-01 14508   0.474E+00    0.292E-01
DAV:   2    -0.611209921883E+02   -0.16388E-02   -0.14074E-02 16100   0.641E-01    0.202E-01
DAV:   3    -0.611212598448E+02   -0.26766E-03   -0.11876E-03 15828   0.258E-01    0.282E-02
DAV:   4    -0.611212924198E+02   -0.32575E-04   -0.44113E-04 14908   0.102E-01
   7 F= -.61121292E+02 E0= -.61121429E+02  d E =-.167579E-01
       N       E                     dE             d eps       ncg     rms          rms(c)
DAV:   1    -0.611247999436E+02   -0.35401E-02   -0.45554E-02 14144   0.124E+00    0.696E-02
DAV:   2    -0.611249247882E+02   -0.12484E-03   -0.13908E-03 16024   0.200E-01    0.507E-02
DAV:   3    -0.611249154398E+02    0.93485E-05   -0.49996E-05 11124   0.621E-02
   8 F= -.61124915E+02 E0= -.61125054E+02  d E =-.362302E-02
       N       E                     dE             d eps       ncg     rms          rms(c)
DAV:   1    -0.611271669138E+02   -0.22421E-02   -0.17795E-01 14252   0.246E+00    0.137E-01
DAV:   2    -0.611277020787E+02   -0.53516E-03   -0.53250E-03 16064   0.391E-01    0.100E-01
DAV:   3    -0.611277026797E+02   -0.60100E-06   -0.20431E-04 15368   0.120E-01
   9 F= -.61127703E+02 E0= -.61127847E+02  d E =-.641026E-02
       N       E                     dE             d eps       ncg     rms          rms(c)
DAV:   1    -0.611299651231E+02   -0.22630E-02   -0.85311E-02 14448   0.174E+00    0.992E-02
DAV:   2    -0.611302633346E+02   -0.29821E-03   -0.31794E-03 16128   0.311E-01    0.764E-02
DAV:   3    -0.611302393490E+02    0.23986E-04   -0.90553E-05 13512   0.974E-02
  10 F= -.61130239E+02 E0= -.61130385E+02  d E =-.253667E-02
       N       E                     dE             d eps       ncg     rms          rms(c)
DAV:   1    -0.611302931251E+02   -0.29791E-04   -0.43320E-03 14852   0.396E-01    0.207E-02
DAV:   2    -0.611303117068E+02   -0.18582E-04   -0.14521E-04 12856   0.646E-02
  11 F= -.61130312E+02 E0= -.61130458E+02  d E =-.260903E-02
       N       E                     dE             d eps       ncg     rms          rms(c)
DAV:   1    -0.611316771118E+02   -0.13840E-02   -0.16800E-02 14012   0.753E-01    0.418E-02
DAV:   2    -0.611316982845E+02   -0.21173E-04   -0.24494E-04 16096   0.873E-02
  12 F= -.61131698E+02 E0= -.61131846E+02  d E =-.138658E-02
       N       E                     dE             d eps       ncg     rms          rms(c)
DAV:   1    -0.611346462227E+02   -0.29691E-02   -0.14987E-01 13884   0.225E+00    0.117E-01
DAV:   2    -0.611348190213E+02   -0.17280E-03   -0.20972E-03 16380   0.256E-01    0.789E-02
DAV:   3    -0.611348172468E+02    0.17745E-05   -0.15117E-04 12404   0.737E-02
  13 F= -.61134817E+02 E0= -.61134970E+02  d E =-.450554E-02
       N       E                     dE             d eps       ncg     rms          rms(c)
DAV:   1    -0.611356141462E+02   -0.79512E-03   -0.60045E-01 13868   0.450E+00    0.232E-01
DAV:   2    -0.611363809382E+02   -0.76679E-03   -0.90773E-03 16328   0.532E-01    0.158E-01
DAV:   3    -0.611363681696E+02    0.12769E-04   -0.62922E-04 16092   0.147E-01
  14 F= -.61136368E+02 E0= -.61136530E+02  d E =-.605646E-02
       N       E                     dE             d eps       ncg     rms          rms(c)
DAV:   1    -0.611368342697E+02   -0.45333E-03   -0.25219E-03 14888   0.292E-01    0.209E-02
DAV:   2    -0.611368405711E+02   -0.63013E-05   -0.37091E-05  8572   0.356E-02
  15 F= -.61136841E+02 E0= -.61137003E+02  d E =-.472401E-03
       N       E                     dE             d eps       ncg     rms          rms(c)
DAV:   1    -0.611380648466E+02   -0.12306E-02   -0.21403E-02 14048   0.850E-01    0.452E-02
DAV:   2    -0.611380872611E+02   -0.22415E-04   -0.26183E-04 16204   0.915E-02
  16 F= -.61138087E+02 E0= -.61138252E+02  d E =-.171909E-02
       N       E                     dE             d eps       ncg     rms          rms(c)
DAV:   1    -0.611386533834E+02   -0.58854E-03   -0.58922E-04 14604   0.148E-01    0.106E-02
DAV:   2    -0.611386536466E+02   -0.26322E-06   -0.22266E-05  7044   0.269E-02
  17 F= -.61138654E+02 E0= -.61138818E+02  d E =-.566385E-03
       N       E                     dE             d eps       ncg     rms          rms(c)
DAV:   1    -0.611399170804E+02   -0.12637E-02   -0.51412E-03 15064   0.446E-01    0.288E-02
DAV:   2    -0.611399312783E+02   -0.14198E-04   -0.25803E-04 11972   0.962E-02
  18 F= -.61139931E+02 E0= -.61140095E+02  d E =-.184402E-02
       N       E                     dE             d eps       ncg     rms          rms(c)
DAV:   1    -0.611401520021E+02   -0.23492E-03   -0.15459E-04 11088   0.799E-02    0.878E-03
DAV:   2    -0.611401520387E+02   -0.36643E-07   -0.88506E-06  6948   0.193E-02
  19 F= -.61140152E+02 E0= -.61140316E+02  d E =-.220760E-03
       N       E                     dE             d eps       ncg     rms          rms(c)
DAV:   1    -0.611407114325E+02   -0.55943E-03   -0.17756E-03 15388   0.265E-01    0.165E-02
DAV:   2    -0.611407169003E+02   -0.54678E-05   -0.89746E-05  8620   0.552E-02
  20 F= -.61140717E+02 E0= -.61140881E+02  d E =-.785622E-03
