  12  12   1   0
  0.9273785E+01  0.3983824E-09  0.5866787E-09  0.5918729E-09  0.5000000E-15
  1.000000000000000E-004
  CAR 
 unknown system                          
     10.47232628    -35.39110350  301      2.50269056      1.00000000
    -35.391  0.0000E+00  0.0000E+00  0.0000E+00  0.0000E+00
    -35.238  0.0000E+00  0.0000E+00  0.0000E+00  0.0000E+00
    -35.085  0.0000E+00  0.0000E+00  0.0000E+00  0.0000E+00
    -34.932  0.0000E+00  0.0000E+00  0.0000E+00  0.0000E+00
    -34.780  0.0000E+00  0.0000E+00  0.0000E+00  0.0000E+00
    -34.627  0.0000E+00  0.0000E+00  0.0000E+00  0.0000E+00
    -34.474  0.0000E+00  0.0000E+00  0.0000E+00  0.0000E+00
    -34.321  0.0000E+00  0.0000E+00  0.0000E+00  0.0000E+00
    -34.168  0.0000E+00  0.0000E+00  0.0000E+00  0.0000E+00
    -34.015  0.0000E+00  0.0000E+00  0.0000E+00  0.0000E+00
    -33.862  0.0000E+00  0.0000E+00  0.0000E+00  0.0000E+00
    -33.709  0.0000E+00  0.0000E+00  0.0000E+00  0.0000E+00
    -33.557  0.0000E+00  0.0000E+00  0.0000E+00  0.0000E+00
    -33.404  0.0000E+00  0.0000E+00  0.0000E+00  0.0000E+00
    -33.251  0.0000E+00  0.0000E+00  0.1010E-01  0.1010E-01
    -33.098  0.0000E+00  0.0000E+00  0.1010E-01  0.1010E-01
    -32.945  0.0000E+00  0.0000E+00  0.1010E-01  0.1010E-01
    -32.792  0.0000E+00  0.0000E+00  0.1010E-01  0.1010E-01
    -32.639  0.0000E+00  0.0000E+00  0.1010E-01  0.1010E-01
    -32.486  0.0000E+00  0.0000E+00  0.1010E-01  0.1010E-01
    -32.334  0.0000E+00  0.0000E+00  0.1010E-01  0.1010E-01
    -32.181  0.0000E+00  0.0000E+00  0.1010E-01  0.1010E-01
    -32.028  0.0000E+00  0.0000E+00  0.1010E-01  0.1010E-01
    -31.875  0.0000E+00  0.0000E+00  0.1010E-01  0.1010E-01
    -31.722  0.0000E+00  0.0000E+00  0.1010E-01  0.1010E-01
    -31.569  0.0000E+00  0.0000E+00  0.1010E-01  0.1010E-01
    -31.416  0.0000E+00  0.0000E+00  0.1010E-01  0.1010E-01
    -31.263  0.0000E+00  0.0000E+00  0.1010E-01  0.1010E-01
    -31.111  0.0000E+00  0.0000E+00  0.1010E-01  0.1010E-01
    -30.958  0.0000E+00  0.0000E+00  0.1010E-01  0.1010E-01
    -30.805  0.0000E+00  0.0000E+00  0.1010E-01  0.1010E-01
    -30.652  0.0000E+00  0.0000E+00  0.1010E-01  0.1010E-01
    -30.499  0.0000E+00  0.0000E+00  0.1010E-01  0.1010E-01
    -30.346  0.0000E+00  0.0000E+00  0.1010E-01  0.1010E-01
    -30.193  0.0000E+00  0.0000E+00  0.1010E-01  0.1010E-01
    -30.040  0.0000E+00  0.0000E+00  0.1010E-01  0.1010E-01
    -29.887  0.0000E+00  0.0000E+00  0.1010E-01  0.1010E-01
    -29.735  0.0000E+00  0.0000E+00  0.1010E-01  0.1010E-01
    -29.582  0.0000E+00  0.0000E+00  0.1010E-01  0.1010E-01
    -29.429  0.1019E+00  0.1019E+00  0.1951E-01  0.1951E-01
    -29.276  0.0000E+00  0.0000E+00  0.3030E-01  0.3030E-01
    -29.123  0.0000E+00  0.0000E+00  0.4040E-01  0.4040E-01
    -28.970  0.0000E+00  0.0000E+00  0.4040E-01  0.4040E-01
    -28.817  0.3552E-04  0.7049E-04  0.6061E-01  0.6061E-01
    -28.664  0.0000E+00  0.0000E+00  0.7071E-01  0.7071E-01
    -28.512  0.0000E+00  0.0000E+00  0.7071E-01  0.7071E-01
    -28.359  0.0000E+00  0.0000E+00  0.7071E-01  0.7071E-01
    -28.206  0.0000E+00  0.0000E+00  0.7071E-01  0.7071E-01
    -28.053  0.0000E+00  0.0000E+00  0.7071E-01  0.7071E-01
    -27.900  0.0000E+00  0.0000E+00  0.7071E-01  0.7071E-01
    -27.747  0.0000E+00  0.0000E+00  0.7071E-01  0.7071E-01
    -27.594  0.0000E+00  0.0000E+00  0.7071E-01  0.7071E-01
    -27.441  0.0000E+00  0.0000E+00  0.7071E-01  0.7071E-01
    -27.289  0.0000E+00  0.0000E+00  0.7071E-01  0.7071E-01
    -27.136  0.0000E+00  0.0000E+00  0.7071E-01  0.7071E-01
    -26.983  0.0000E+00  0.0000E+00  0.7071E-01  0.7071E-01
    -26.830  0.0000E+00  0.0000E+00  0.7071E-01  0.7071E-01
    -26.677  0.0000E+00  0.0000E+00  0.7071E-01  0.7071E-01
    -26.524  0.0000E+00  0.0000E+00  0.7071E-01  0.7071E-01
    -26.371  0.0000E+00  0.0000E+00  0.7071E-01  0.7071E-01
    -26.218  0.0000E+00  0.0000E+00  0.7071E-01  0.7071E-01
    -26.066  0.0000E+00  0.0000E+00  0.7071E-01  0.7071E-01
    -25.913  0.0000E+00  0.0000E+00  0.7071E-01  0.7071E-01
    -25.760  0.0000E+00  0.0000E+00  0.7071E-01  0.7071E-01
    -25.607  0.0000E+00  0.0000E+00  0.7071E-01  0.7071E-01
    -25.454  0.0000E+00  0.0000E+00  0.7071E-01  0.7071E-01
    -25.301  0.0000E+00  0.0000E+00  0.7071E-01  0.7071E-01
    -25.148  0.0000E+00  0.0000E+00  0.7071E-01  0.7071E-01
    -24.995  0.0000E+00  0.0000E+00  0.7071E-01  0.7071E-01
    -24.843  0.0000E+00  0.0000E+00  0.7071E-01  0.7071E-01
    -24.690  0.0000E+00  0.0000E+00  0.7071E-01  0.7071E-01
    -24.537  0.0000E+00  0.0000E+00  0.7071E-01  0.7071E-01
    -24.384  0.0000E+00  0.0000E+00  0.7071E-01  0.7071E-01
    -24.231  0.0000E+00  0.0000E+00  0.7071E-01  0.7071E-01
    -24.078  0.0000E+00  0.0000E+00  0.7071E-01  0.7071E-01
    -23.925  0.0000E+00  0.0000E+00  0.7071E-01  0.7071E-01
    -23.772  0.0000E+00  0.0000E+00  0.7071E-01  0.7071E-01
    -23.619  0.0000E+00  0.0000E+00  0.7071E-01  0.7071E-01
    -23.467  0.0000E+00  0.0000E+00  0.7071E-01  0.7071E-01
    -23.314  0.0000E+00  0.0000E+00  0.7071E-01  0.7071E-01
    -23.161  0.0000E+00  0.0000E+00  0.7071E-01  0.7071E-01
    -23.008  0.0000E+00  0.0000E+00  0.7071E-01  0.7071E-01
    -22.855  0.0000E+00  0.0000E+00  0.7071E-01  0.7071E-01
    -22.702  0.0000E+00  0.0000E+00  0.7071E-01  0.7071E-01
    -22.549  0.0000E+00  0.0000E+00  0.7071E-01  0.7071E-01
    -22.396  0.0000E+00  0.0000E+00  0.7071E-01  0.7071E-01
    -22.244  0.0000E+00  0.0000E+00  0.7071E-01  0.7071E-01
    -22.091  0.0000E+00  0.0000E+00  0.7071E-01  0.7071E-01
    -21.938  0.0000E+00  0.0000E+00  0.7071E-01  0.7071E-01
    -21.785  0.0000E+00  0.0000E+00  0.7071E-01  0.7071E-01
    -21.632  0.0000E+00  0.0000E+00  0.7071E-01  0.7071E-01
    -21.479  0.0000E+00  0.0000E+00  0.7071E-01  0.7071E-01
    -21.326  0.0000E+00  0.0000E+00  0.7071E-01  0.7071E-01
    -21.173  0.0000E+00  0.0000E+00  0.7071E-01  0.7071E-01
    -21.021  0.0000E+00  0.0000E+00  0.7071E-01  0.7071E-01
    -20.868  0.0000E+00  0.0000E+00  0.7071E-01  0.7071E-01
    -20.715  0.0000E+00  0.0000E+00  0.7071E-01  0.7071E-01
    -20.562  0.0000E+00  0.0000E+00  0.7071E-01  0.7071E-01
    -20.409  0.0000E+00  0.0000E+00  0.7071E-01  0.7071E-01
    -20.256  0.0000E+00  0.0000E+00  0.7071E-01  0.7071E-01
    -20.103  0.0000E+00  0.0000E+00  0.7071E-01  0.7071E-01
    -19.950  0.0000E+00  0.0000E+00  0.7071E-01  0.7071E-01
    -19.798  0.0000E+00  0.0000E+00  0.7071E-01  0.7071E-01
    -19.645  0.0000E+00  0.0000E+00  0.7071E-01  0.7071E-01
    -19.492  0.0000E+00  0.0000E+00  0.7071E-01  0.7071E-01
    -19.339  0.0000E+00  0.0000E+00  0.7071E-01  0.7071E-01
    -19.186  0.0000E+00  0.0000E+00  0.7071E-01  0.7071E-01
    -19.033  0.0000E+00  0.0000E+00  0.7071E-01  0.7071E-01
    -18.880  0.0000E+00  0.0000E+00  0.7071E-01  0.7071E-01
    -18.727  0.0000E+00  0.0000E+00  0.7071E-01  0.7071E-01
    -18.575  0.0000E+00  0.0000E+00  0.7071E-01  0.7071E-01
    -18.422  0.0000E+00  0.0000E+00  0.7071E-01  0.7071E-01
    -18.269  0.0000E+00  0.0000E+00  0.7071E-01  0.7071E-01
    -18.116  0.0000E+00  0.0000E+00  0.7071E-01  0.7071E-01
    -17.963  0.0000E+00  0.0000E+00  0.7071E-01  0.7071E-01
    -17.810  0.0000E+00  0.0000E+00  0.7071E-01  0.7071E-01
    -17.657  0.0000E+00  0.0000E+00  0.7071E-01  0.7071E-01
    -17.504  0.0000E+00  0.0000E+00  0.7071E-01  0.7071E-01
    -17.351  0.0000E+00  0.0000E+00  0.7071E-01  0.7071E-01
    -17.199  0.0000E+00  0.0000E+00  0.7071E-01  0.7071E-01
    -17.046  0.0000E+00  0.0000E+00  0.7071E-01  0.7071E-01
    -16.893  0.0000E+00  0.0000E+00  0.7071E-01  0.7071E-01
    -16.740  0.0000E+00  0.0000E+00  0.7071E-01  0.7071E-01
    -16.587  0.0000E+00  0.0000E+00  0.7071E-01  0.7071E-01
    -16.434  0.0000E+00  0.0000E+00  0.7071E-01  0.7071E-01
    -16.281  0.0000E+00  0.0000E+00  0.7071E-01  0.7071E-01
    -16.128  0.0000E+00  0.0000E+00  0.7071E-01  0.7071E-01
    -15.976  0.0000E+00  0.0000E+00  0.7071E-01  0.7071E-01
    -15.823  0.0000E+00  0.0000E+00  0.7071E-01  0.7071E-01
    -15.670  0.0000E+00  0.0000E+00  0.7071E-01  0.7071E-01
    -15.517  0.0000E+00  0.0000E+00  0.7071E-01  0.7071E-01
    -15.364  0.1140E+00  0.1140E+00  0.7913E-01  0.7913E-01
    -15.211  0.0000E+00  0.0000E+00  0.1010E+00  0.1010E+00
    -15.058  0.0000E+00  0.0000E+00  0.1010E+00  0.1010E+00
    -14.905  0.0000E+00  0.0000E+00  0.1010E+00  0.1010E+00
    -14.753  0.0000E+00  0.0000E+00  0.1010E+00  0.1010E+00
    -14.600  0.0000E+00  0.0000E+00  0.1010E+00  0.1010E+00
    -14.447  0.0000E+00  0.0000E+00  0.1010E+00  0.1010E+00
    -14.294  0.0000E+00  0.0000E+00  0.1010E+00  0.1010E+00
    -14.141  0.0000E+00  0.0000E+00  0.1010E+00  0.1010E+00
    -13.988  0.0000E+00  0.0000E+00  0.1010E+00  0.1010E+00
    -13.835  0.0000E+00  0.0000E+00  0.1010E+00  0.1010E+00
    -13.682  0.0000E+00  0.0000E+00  0.1010E+00  0.1010E+00
    -13.530  0.0000E+00  0.0000E+00  0.1010E+00  0.1010E+00
    -13.377  0.0000E+00  0.0000E+00  0.1010E+00  0.1010E+00
    -13.224  0.0000E+00  0.0000E+00  0.1010E+00  0.1010E+00
    -13.071  0.0000E+00  0.0000E+00  0.1010E+00  0.1010E+00
    -12.918  0.0000E+00  0.0000E+00  0.1010E+00  0.1010E+00
    -12.765  0.0000E+00  0.0000E+00  0.1010E+00  0.1010E+00
    -12.612  0.0000E+00  0.0000E+00  0.1010E+00  0.1010E+00
    -12.459  0.0000E+00  0.0000E+00  0.1010E+00  0.1010E+00
    -12.307  0.0000E+00  0.0000E+00  0.1010E+00  0.1010E+00
    -12.154  0.0000E+00  0.0000E+00  0.1010E+00  0.1010E+00
    -12.001  0.0000E+00  0.0000E+00  0.1010E+00  0.1010E+00
    -11.848  0.0000E+00  0.0000E+00  0.1010E+00  0.1010E+00
    -11.695  0.0000E+00  0.0000E+00  0.1010E+00  0.1010E+00
    -11.542  0.0000E+00  0.0000E+00  0.1010E+00  0.1010E+00
    -11.389  0.0000E+00  0.0000E+00  0.1010E+00  0.1010E+00
    -11.236  0.0000E+00  0.0000E+00  0.1010E+00  0.1010E+00
    -11.083  0.0000E+00  0.0000E+00  0.1010E+00  0.1010E+00
    -10.931  0.0000E+00  0.0000E+00  0.1010E+00  0.1010E+00
    -10.778  0.0000E+00  0.0000E+00  0.1010E+00  0.1010E+00
    -10.625  0.0000E+00  0.0000E+00  0.1010E+00  0.1010E+00
    -10.472  0.0000E+00  0.0000E+00  0.1010E+00  0.1010E+00
    -10.319  0.0000E+00  0.0000E+00  0.1010E+00  0.1010E+00
    -10.166  0.0000E+00  0.0000E+00  0.1010E+00  0.1010E+00
    -10.013  0.0000E+00  0.0000E+00  0.1010E+00  0.1010E+00
     -9.860  0.0000E+00  0.0000E+00  0.1010E+00  0.1010E+00
     -9.708  0.0000E+00  0.0000E+00  0.1010E+00  0.1010E+00
     -9.555  0.0000E+00  0.0000E+00  0.1010E+00  0.1010E+00
     -9.402  0.0000E+00  0.0000E+00  0.1010E+00  0.1010E+00
     -9.249  0.0000E+00  0.0000E+00  0.1010E+00  0.1010E+00
     -9.096  0.0000E+00  0.0000E+00  0.1010E+00  0.1010E+00
     -8.943  0.0000E+00  0.0000E+00  0.1010E+00  0.1010E+00
     -8.790  0.0000E+00  0.0000E+00  0.1010E+00  0.1010E+00
     -8.637  0.0000E+00  0.0000E+00  0.1010E+00  0.1010E+00
     -8.485  0.0000E+00  0.0000E+00  0.1010E+00  0.1010E+00
     -8.332  0.0000E+00  0.0000E+00  0.1010E+00  0.1010E+00
     -8.179  0.0000E+00  0.0000E+00  0.1010E+00  0.1010E+00
     -8.026  0.0000E+00  0.0000E+00  0.1010E+00  0.1010E+00
     -7.873  0.0000E+00  0.0000E+00  0.1010E+00  0.1010E+00
     -7.720  0.0000E+00  0.0000E+00  0.1010E+00  0.1010E+00
     -7.567  0.0000E+00  0.0000E+00  0.1010E+00  0.1010E+00
     -7.414  0.0000E+00  0.0000E+00  0.1010E+00  0.1010E+00
     -7.262  0.0000E+00  0.0000E+00  0.1010E+00  0.1010E+00
     -7.109  0.0000E+00  0.0000E+00  0.1010E+00  0.1010E+00
     -6.956  0.0000E+00  0.0000E+00  0.1010E+00  0.1010E+00
     -6.803  0.0000E+00  0.0000E+00  0.1010E+00  0.1010E+00
     -6.650  0.0000E+00  0.0000E+00  0.1010E+00  0.1010E+00
     -6.497  0.0000E+00  0.0000E+00  0.1010E+00  0.1010E+00
     -6.344  0.0000E+00  0.0000E+00  0.1010E+00  0.1010E+00
     -6.191  0.1772E-02  0.1772E-02  0.1012E+00  0.1012E+00
     -6.039  0.2875E-02  0.2875E-02  0.1016E+00  0.1016E+00
     -5.886  0.4220E-02  0.4220E-02  0.1022E+00  0.1022E+00
     -5.733  0.4489E-02  0.4489E-02  0.1028E+00  0.1028E+00
     -5.580  0.4684E-02  0.4684E-02  0.1035E+00  0.1035E+00
     -5.427  0.5111E-02  0.5111E-02  0.1043E+00  0.1043E+00
     -5.274  0.5707E-02  0.5707E-02  0.1051E+00  0.1051E+00
     -5.121  0.6791E-02  0.6791E-02  0.1060E+00  0.1060E+00
     -4.968  0.7285E-02  0.7285E-02  0.1071E+00  0.1071E+00
     -4.815  0.7907E-02  0.7907E-02  0.1083E+00  0.1083E+00
     -4.663  0.7573E-02  0.7573E-02  0.1095E+00  0.1095E+00
     -4.510  0.8008E-02  0.8008E-02  0.1107E+00  0.1107E+00
     -4.357  0.0000E+00  0.0000E+00  0.1111E+00  0.1111E+00
     -4.204  0.4982E-04  0.4981E-04  0.1111E+00  0.1111E+00
     -4.051  0.3402E-02  0.3401E-02  0.1113E+00  0.1113E+00
     -3.898  0.9361E-02  0.9361E-02  0.1124E+00  0.1124E+00
     -3.745  0.1479E-01  0.1479E-01  0.1142E+00  0.1142E+00
     -3.592  0.1905E-01  0.1905E-01  0.1168E+00  0.1168E+00
     -3.440  0.2007E-01  0.2007E-01  0.1195E+00  0.1195E+00
     -3.287  0.2189E-01  0.2189E-01  0.1226E+00  0.1226E+00
     -3.134  0.1414E-01  0.1414E-01  0.1272E+00  0.1272E+00
     -2.981  0.1436E-01  0.1436E-01  0.1291E+00  0.1291E+00
     -2.828  0.2659E-01  0.2658E-01  0.1327E+00  0.1327E+00
     -2.675  0.2173E-01  0.2173E-01  0.1412E+00  0.1412E+00
     -2.522  0.2132E-01  0.2132E-01  0.1417E+00  0.1417E+00
     -2.369  0.3721E-01  0.3721E-01  0.1481E+00  0.1481E+00
     -2.217  0.7969E-02  0.7969E-02  0.1505E+00  0.1505E+00
     -2.064  0.1460E-01  0.1460E-01  0.1520E+00  0.1520E+00
     -1.911  0.2632E-01  0.2632E-01  0.1551E+00  0.1551E+00
     -1.758  0.2552E-01  0.2552E-01  0.1590E+00  0.1590E+00
     -1.605  0.1463E-01  0.1463E-01  0.1624E+00  0.1624E+00
     -1.452  0.3290E-01  0.3290E-01  0.1659E+00  0.1659E+00
     -1.299  0.3720E-01  0.3720E-01  0.1708E+00  0.1708E+00
     -1.146  0.2960E-01  0.2960E-01  0.1761E+00  0.1761E+00
     -0.994  0.2917E-01  0.2917E-01  0.1801E+00  0.1801E+00
     -0.841  0.1582E-01  0.1582E-01  0.1838E+00  0.1838E+00
     -0.688  0.1882E-01  0.1882E-01  0.1862E+00  0.1862E+00
     -0.535  0.2310E-01  0.2310E-01  0.1892E+00  0.1892E+00
     -0.382  0.2226E-02  0.2226E-02  0.1919E+00  0.1919E+00
     -0.229  0.0000E+00  0.0000E+00  0.1919E+00  0.1919E+00
     -0.076  0.0000E+00  0.0000E+00  0.1919E+00  0.1919E+00
      0.077  0.0000E+00  0.0000E+00  0.1919E+00  0.1919E+00
      0.229  0.0000E+00  0.0000E+00  0.1919E+00  0.1919E+00
      0.382  0.0000E+00  0.0000E+00  0.1919E+00  0.1919E+00
      0.535  0.0000E+00  0.0000E+00  0.1919E+00  0.1919E+00
      0.688  0.0000E+00  0.0000E+00  0.1919E+00  0.1919E+00
      0.841  0.0000E+00  0.0000E+00  0.1919E+00  0.1919E+00
      0.994  0.0000E+00  0.0000E+00  0.1919E+00  0.1919E+00
      1.147  0.0000E+00  0.0000E+00  0.1919E+00  0.1919E+00
      1.300  0.0000E+00  0.0000E+00  0.1919E+00  0.1919E+00
      1.453  0.2027E-01  0.2027E-01  0.1929E+00  0.1929E+00
      1.605  0.1048E-01  0.1048E-01  0.1952E+00  0.1952E+00
      1.758  0.1190E-01  0.1190E-01  0.1969E+00  0.1969E+00
      1.911  0.1502E-01  0.1502E-01  0.1991E+00  0.1991E+00
      2.064  0.2189E-01  0.2189E-01  0.2017E+00  0.2017E+00
      2.217  0.9162E-02  0.9162E-02  0.2043E+00  0.2043E+00
      2.370  0.9369E-02  0.9369E-02  0.2057E+00  0.2057E+00
      2.523  0.1501E-01  0.1501E-01  0.2073E+00  0.2073E+00
      2.676  0.3058E-01  0.3058E-01  0.2112E+00  0.2112E+00
      2.828  0.2404E-02  0.2404E-02  0.2122E+00  0.2122E+00
      2.981  0.2959E-01  0.2959E-01  0.2140E+00  0.2140E+00
      3.134  0.2728E-01  0.2728E-01  0.2205E+00  0.2205E+00
      3.287  0.1116E-04  0.1116E-04  0.2222E+00  0.2222E+00
      3.440  0.3745E-01  0.3745E-01  0.2248E+00  0.2248E+00
      3.593  0.2545E-01  0.2545E-01  0.2291E+00  0.2291E+00
      3.746  0.1189E-01  0.1189E-01  0.2329E+00  0.2329E+00
      3.899  0.2590E-01  0.2590E-01  0.2356E+00  0.2356E+00
      4.051  0.2203E-01  0.2203E-01  0.2394E+00  0.2394E+00
      4.204  0.5547E-02  0.5547E-02  0.2423E+00  0.2423E+00
      4.357  0.1644E-01  0.1644E-01  0.2432E+00  0.2432E+00
      4.510  0.2109E-01  0.2109E-01  0.2461E+00  0.2461E+00
      4.663  0.1474E-01  0.1474E-01  0.2490E+00  0.2490E+00
      4.816  0.1733E-01  0.1733E-01  0.2511E+00  0.2511E+00
      4.969  0.1127E-01  0.1127E-01  0.2539E+00  0.2539E+00
      5.122  0.1752E-01  0.1752E-01  0.2558E+00  0.2558E+00
      5.274  0.2672E-01  0.2672E-01  0.2600E+00  0.2600E+00
      5.427  0.6296E-02  0.6296E-02  0.2622E+00  0.2622E+00
      5.580  0.7613E-02  0.7613E-02  0.2628E+00  0.2628E+00
      5.733  0.2913E-01  0.2913E-01  0.2661E+00  0.2661E+00
      5.886  0.2476E-01  0.2476E-01  0.2702E+00  0.2702E+00
      6.039  0.5811E-02  0.5811E-02  0.2730E+00  0.2730E+00
      6.192  0.1583E-01  0.1583E-01  0.2743E+00  0.2743E+00
      6.345  0.2556E-01  0.2556E-01  0.2787E+00  0.2787E+00
      6.497  0.1970E-01  0.1969E-01  0.2819E+00  0.2819E+00
      6.650  0.2641E-01  0.2641E-01  0.2845E+00  0.2845E+00
      6.803  0.3060E-01  0.3060E-01  0.2891E+00  0.2891E+00
      6.956  0.1090E-01  0.1090E-01  0.2924E+00  0.2924E+00
      7.109  0.1429E-01  0.1429E-01  0.2941E+00  0.2941E+00
      7.262  0.4000E-01  0.4000E-01  0.2986E+00  0.2986E+00
      7.415  0.6706E-02  0.6706E-02  0.3031E+00  0.3031E+00
      7.568  0.1468E-01  0.1468E-01  0.3045E+00  0.3045E+00
      7.721  0.4911E-01  0.4911E-01  0.3093E+00  0.3093E+00
      7.873  0.1245E-01  0.1246E-01  0.3127E+00  0.3127E+00
      8.026  0.2698E-01  0.2697E-01  0.3154E+00  0.3154E+00
      8.179  0.4081E-01  0.4071E-01  0.3199E+00  0.3199E+00
      8.332  0.5903E-02  0.5902E-02  0.3230E+00  0.3230E+00
      8.485  0.0000E+00  0.0000E+00  0.3232E+00  0.3232E+00
      8.638  0.0000E+00  0.0000E+00  0.3232E+00  0.3232E+00
      8.791  0.0000E+00  0.0000E+00  0.3232E+00  0.3232E+00
      8.944  0.0000E+00  0.0000E+00  0.3232E+00  0.3232E+00
      9.096  0.0000E+00  0.0000E+00  0.3232E+00  0.3232E+00
      9.249  0.0000E+00  0.0000E+00  0.3232E+00  0.3232E+00
      9.402  0.0000E+00  0.0000E+00  0.3232E+00  0.3232E+00
      9.555  0.0000E+00  0.0000E+00  0.3232E+00  0.3232E+00
      9.708  0.0000E+00  0.0000E+00  0.3232E+00  0.3232E+00
      9.861  0.0000E+00  0.0000E+00  0.3232E+00  0.3232E+00
     10.014  0.0000E+00  0.0000E+00  0.3232E+00  0.3232E+00
     10.167  0.0000E+00  0.0000E+00  0.3232E+00  0.3232E+00
     10.319  0.0000E+00  0.0000E+00  0.3232E+00  0.3232E+00
     10.472  0.0000E+00  0.0000E+00  0.3232E+00  0.3232E+00
     10.47232628    -35.39110350  301      2.50269056      1.00000000
    -35.391  0.0000E+00  0.0000E+00  0.0000E+00  0.0000E+00  0.0000E+00  0.0000E+00  0.0000E+00  0.0000E+00  0.0000E+00  0.0000E+00  0.0000E+00  0.0000E+00  0.0000E+00  0.0000E+00  0.0000E+00  0.0000E+00  0.0000E+00  0.0000E+00
    -35.238  0.0000E+00  0.0000E+00  0.0000E+00  0.0000E+00  0.0000E+00  0.0000E+00  0.0000E+00  0.0000E+00  0.0000E+00  0.0000E+00  0.0000E+00  0.0000E+00  0.0000E+00  0.0000E+00  0.0000E+00  0.0000E+00  0.0000E+00  0.0000E+00
    -35.085  0.0000E+00  0.0000E+00  0.0000E+00  0.0000E+00  0.0000E+00  0.0000E+00  0.0000E+00  0.0000E+00  0.0000E+00  0.0000E+00  0.0000E+00  0.0000E+00  0.0000E+00  0.0000E+00  0.0000E+00  0.0000E+00  0.0000E+00  0.0000E+00
    -34.932  0.0000E+00  0.0000E+00  0.0000E+00  0.0000E+00  0.0000E+00  0.0000E+00  0.0000E+00  0.0000E+00  0.0000E+00  0.0000E+00  0.0000E+00  0.0000E+00  0.0000E+00  0.0000E+00  0.0000E+00  0.0000E+00  0.0000E+00  0.0000E+00
    -34.780  0.0000E+00  0.0000E+00  0.0000E+00  0.0000E+00  0.0000E+00  0.0000E+00  0.0000E+00  0.0000E+00  0.0000E+00  0.0000E+00  0.0000E+00  0.0000E+00  0.0000E+00  0.0000E+00  0.0000E+00  0.0000E+00  0.0000E+00  0.0000E+00
    -34.627  0.0000E+00  0.0000E+00  0.0000E+00  0.0000E+00  0.0000E+00  0.0000E+00  0.0000E+00  0.0000E+00  0.0000E+00  0.0000E+00  0.0000E+00  0.0000E+00  0.0000E+00  0.0000E+00  0.0000E+00  0.0000E+00  0.0000E+00  0.0000E+00
    -34.474  0.0000E+00  0.0000E+00  0.0000E+00  0.0000E+00  0.0000E+00  0.0000E+00  0.0000E+00  0.0000E+00  0.0000E+00  0.0000E+00  0.0000E+00  0.0000E+00  0.0000E+00  0.0000E+00  0.0000E+00  0.0000E+00  0.0000E+00  0.0000E+00
    -34.321  0.0000E+00  0.0000E+00  0.0000E+00  0.0000E+00  0.0000E+00  0.0000E+00  0.0000E+00  0.0000E+00  0.0000E+00  0.0000E+00  0.0000E+00  0.0000E+00  0.0000E+00  0.0000E+00  0.0000E+00  0.0000E+00  0.0000E+00  0.0000E+00
    -34.168  0.0000E+00  0.0000E+00  0.0000E+00  0.0000E+00  0.0000E+00  0.0000E+00  0.0000E+00  0.0000E+00  0.0000E+00  0.0000E+00  0.0000E+00  0.0000E+00  0.0000E+00  0.0000E+00  0.0000E+00  0.0000E+00  0.0000E+00  0.0000E+00
    -34.015  0.0000E+00  0.0000E+00  0.0000E+00  0.0000E+00  0.0000E+00  0.0000E+00  0.0000E+00  0.0000E+00  0.0000E+00  0.0000E+00  0.0000E+00  0.0000E+00  0.0000E+00  0.0000E+00  0.0000E+00  0.0000E+00  0.0000E+00  0.0000E+00
    -33.862  0.0000E+00  0.0000E+00  0.0000E+00  0.0000E+00  0.0000E+00  0.0000E+00  0.0000E+00  0.0000E+00  0.0000E+00  0.0000E+00  0.0000E+00  0.0000E+00  0.0000E+00  0.0000E+00  0.0000E+00  0.0000E+00  0.0000E+00  0.0000E+00
    -33.709  0.0000E+00  0.0000E+00  0.0000E+00  0.0000E+00  0.0000E+00  0.0000E+00  0.0000E+00  0.0000E+00  0.0000E+00  0.0000E+00  0.0000E+00  0.0000E+00  0.0000E+00  0.0000E+00  0.0000E+00  0.0000E+00  0.0000E+00  0.0000E+00
    -33.557  0.0000E+00  0.0000E+00  0.0000E+00  0.0000E+00  0.0000E+00  0.0000E+00  0.0000E+00  0.0000E+00  0.0000E+00  0.0000E+00  0.0000E+00  0.0000E+00  0.0000E+00  0.0000E+00  0.0000E+00  0.0000E+00  0.0000E+00  0.0000E+00
    -33.404  0.0000E+00  0.0000E+00  0.0000E+00  0.0000E+00  0.0000E+00  0.0000E+00  0.0000E+00  0.0000E+00  0.0000E+00  0.0000E+00  0.0000E+00  0.0000E+00  0.0000E+00  0.0000E+00  0.0000E+00  0.0000E+00  0.0000E+00  0.0000E+00
    -33.251  0.0000E+00  0.0000E+00  0.0000E+00  0.0000E+00  0.0000E+00  0.0000E+00  0.0000E+00  0.0000E+00  0.0000E+00  0.0000E+00  0.0000E+00  0.0000E+00  0.0000E+00  0.0000E+00  0.0000E+00  0.0000E+00  0.0000E+00  0.0000E+00
    -33.098  0.0000E+00  0.0000E+00  0.0000E+00  0.0000E+00  0.0000E+00  0.0000E+00  0.0000E+00  0.0000E+00  0.0000E+00  0.0000E+00  0.0000E+00  0.0000E+00  0.0000E+00  0.0000E+00  0.0000E+00  0.0000E+00  0.0000E+00  0.0000E+00
    -32.945  0.0000E+00  0.0000E+00  0.0000E+00  0.0000E+00  0.0000E+00  0.0000E+00  0.0000E+00  0.0000E+00  0.0000E+00  0.0000E+00  0.0000E+00  0.0000E+00  0.0000E+00  0.0000E+00  0.0000E+00  0.0000E+00  0.0000E+00  0.0000E+00
    -32.792  0.0000E+00  0.0000E+00  0.0000E+00  0.0000E+00  0.0000E+00  0.0000E+00  0.0000E+00  0.0000E+00  0.0000E+00  0.0000E+00  0.0000E+00  0.0000E+00  0.0000E+00  0.0000E+00  0.0000E+00  0.0000E+00  0.0000E+00  0.0000E+00
    -32.639  0.0000E+00  0.0000E+00  0.0000E+00  0.0000E+00  0.0000E+00  0.0000E+00  0.0000E+00  0.0000E+00  0.0000E+00  0.0000E+00  0.0000E+00  0.0000E+00  0.0000E+00  0.0000E+00  0.0000E+00  0.0000E+00  0.0000E+00  0.0000E+00
    -32.486  0.0000E+00  0.0000E+00  0.0000E+00  0.0000E+00  0.0000E+00  0.0000E+00  0.0000E+00  0.0000E+00  0.0000E+00  0.0000E+00  0.0000E+00  0.0000E+00  0.0000E+00  0.0000E+00  0.0000E+00  0.0000E+00  0.0000E+00  0.0000E+00
    -32.334  0.0000E+00  0.0000E+00  0.0000E+00  0.0000E+00  0.0000E+00  0.0000E+00  0.0000E+00  0.0000E+00  0.0000E+00  0.0000E+00  0.0000E+00  0.0000E+00  0.0000E+00  0.0000E+00  0.0000E+00  0.0000E+00  0.0000E+00  0.0000E+00
    -32.181  0.0000E+00  0.0000E+00  0.0000E+00  0.0000E+00  0.0000E+00  0.0000E+00  0.0000E+00  0.0000E+00  0.0000E+00  0.0000E+00  0.0000E+00  0.0000E+00  0.0000E+00  0.0000E+00  0.0000E+00  0.0000E+00  0.0000E+00  0.0000E+00
    -32.028  0.0000E+00  0.0000E+00  0.0000E+00  0.0000E+00  0.0000E+00  0.0000E+00  0.0000E+00  0.0000E+00  0.0000E+00  0.0000E+00  0.0000E+00  0.0000E+00  0.0000E+00  0.0000E+00  0.0000E+00  0.0000E+00  0.0000E+00  0.0000E+00
    -31.875  0.0000E+00  0.0000E+00  0.0000E+00  0.0000E+00  0.0000E+00  0.0000E+00  0.0000E+00  0.0000E+00  0.0000E+00  0.0000E+00  0.0000E+00  0.0000E+00  0.0000E+00  0.0000E+00  0.0000E+00  0.0000E+00  0.0000E+00  0.0000E+00
    -31.722  0.0000E+00  0.0000E+00  0.0000E+00  0.0000E+00  0.0000E+00  0.0000E+00  0.0000E+00  0.0000E+00  0.0000E+00  0.0000E+00  0.0000E+00  0.0000E+00  0.0000E+00  0.0000E+00  0.0000E+00  0.0000E+00  0.0000E+00  0.0000E+00
    -31.569  0.0000E+00  0.0000E+00  0.0000E+00  0.0000E+00  0.0000E+00  0.0000E+00  0.0000E+00  0.0000E+00  0.0000E+00  0.0000E+00  0.0000E+00  0.0000E+00  0.0000E+00  0.0000E+00  0.0000E+00  0.0000E+00  0.0000E+00  0.0000E+00
    -31.416  0.0000E+00  0.0000E+00  0.0000E+00  0.0000E+00  0.0000E+00  0.0000E+00  0.0000E+00  0.0000E+00  0.0000E+00  0.0000E+00  0.0000E+00  0.0000E+00  0.0000E+00  0.0000E+00  0.0000E+00  0.0000E+00  0.0000E+00  0.0000E+00
    -31.263  0.0000E+00  0.0000E+00  0.0000E+00  0.0000E+00  0.0000E+00  0.0000E+00  0.0000E+00  0.0000E+00  0.0000E+00  0.0000E+00  0.0000E+00  0.0000E+00  0.0000E+00  0.0000E+00  0.0000E+00  0.0000E+00  0.0000E+00  0.0000E+00
    -31.111  0.0000E+00  0.0000E+00  0.0000E+00  0.0000E+00  0.0000E+00  0.0000E+00  0.0000E+00  0.0000E+00  0.0000E+00  0.0000E+00  0.0000E+00  0.0000E+00  0.0000E+00  0.0000E+00  0.0000E+00  0.0000E+00  0.0000E+00  0.0000E+00
    -30.958  0.0000E+00  0.0000E+00  0.0000E+00  0.0000E+00  0.0000E+00  0.0000E+00  0.0000E+00  0.0000E+00  0.0000E+00  0.0000E+00  0.0000E+00  0.0000E+00  0.0000E+00  0.0000E+00  0.0000E+00  0.0000E+00  0.0000E+00  0.0000E+00
    -30.805  0.0000E+00  0.0000E+00  0.0000E+00  0.0000E+00  0.0000E+00  0.0000E+00  0.0000E+00  0.0000E+00  0.0000E+00  0.0000E+00  0.0000E+00  0.0000E+00  0.0000E+00  0.0000E+00  0.0000E+00  0.0000E+00  0.0000E+00  0.0000E+00
    -30.652  0.0000E+00  0.0000E+00  0.0000E+00  0.0000E+00  0.0000E+00  0.0000E+00  0.0000E+00  0.0000E+00  0.0000E+00  0.0000E+00  0.0000E+00  0.0000E+00  0.0000E+00  0.0000E+00  0.0000E+00  0.0000E+00  0.0000E+00  0.0000E+00
    -30.499  0.0000E+00  0.0000E+00  0.0000E+00  0.0000E+00  0.0000E+00  0.0000E+00  0.0000E+00  0.0000E+00  0.0000E+00  0.0000E+00  0.0000E+00  0.0000E+00  0.0000E+00  0.0000E+00  0.0000E+00  0.0000E+00  0.0000E+00  0.0000E+00
    -30.346  0.0000E+00  0.0000E+00  0.0000E+00  0.0000E+00  0.0000E+00  0.0000E+00  0.0000E+00  0.0000E+00  0.0000E+00  0.0000E+00  0.0000E+00  0.0000E+00  0.0000E+00  0.0000E+00  0.0000E+00  0.0000E+00  0.0000E+00  0.0000E+00
    -30.193  0.0000E+00  0.0000E+00  0.0000E+00  0.0000E+00  0.0000E+00  0.0000E+00  0.0000E+00  0.0000E+00  0.0000E+00  0.0000E+00  0.0000E+00  0.0000E+00  0.0000E+00  0.0000E+00  0.0000E+00  0.0000E+00  0.0000E+00  0.0000E+00
    -30.040  0.0000E+00  0.0000E+00  0.0000E+00  0.0000E+00  0.0000E+00  0.0000E+00  0.0000E+00  0.0000E+00  0.0000E+00  0.0000E+00  0.0000E+00  0.0000E+00  0.0000E+00  0.0000E+00  0.0000E+00  0.0000E+00  0.0000E+00  0.0000E+00
    -29.887  0.0000E+00  0.0000E+00  0.0000E+00  0.0000E+00  0.0000E+00  0.0000E+00  0.0000E+00  0.0000E+00  0.0000E+00  0.0000E+00  0.0000E+00  0.0000E+00  0.0000E+00  0.0000E+00  0.0000E+00  0.0000E+00  0.0000E+00  0.0000E+00
    -29.735  0.0000E+00  0.0000E+00  0.0000E+00  0.0000E+00  0.0000E+00  0.0000E+00  0.0000E+00  0.0000E+00  0.0000E+00  0.0000E+00  0.0000E+00  0.0000E+00  0.0000E+00  0.0000E+00  0.0000E+00  0.0000E+00  0.0000E+00  0.0000E+00
    -29.582  0.0000E+00  0.0000E+00  0.0000E+00  0.0000E+00  0.0000E+00  0.0000E+00  0.0000E+00  0.0000E+00  0.0000E+00  0.0000E+00  0.0000E+00  0.0000E+00  0.0000E+00  0.0000E+00  0.0000E+00  0.0000E+00  0.0000E+00  0.0000E+00
    -29.429  0.2431E-03  0.2431E-03  0.2299E-05  0.2298E-05  0.4735E-04  0.4734E-04  0.1065E-04  0.1065E-04  0.5824E-06  0.5823E-06  0.1186E-05  0.1186E-05  0.5101E-05  0.5101E-05  0.6349E-05  0.6348E-05  0.9811E-06  0.9810E-06
    -29.276  0.0000E+00  0.0000E+00  0.0000E+00  0.0000E+00  0.0000E+00  0.0000E+00  0.0000E+00  0.0000E+00  0.0000E+00  0.0000E+00  0.0000E+00  0.0000E+00  0.0000E+00  0.0000E+00  0.0000E+00  0.0000E+00  0.0000E+00  0.0000E+00
    -29.123  0.0000E+00  0.0000E+00  0.0000E+00  0.0000E+00  0.0000E+00  0.0000E+00  0.0000E+00  0.0000E+00  0.0000E+00  0.0000E+00  0.0000E+00  0.0000E+00  0.0000E+00  0.0000E+00  0.0000E+00  0.0000E+00  0.0000E+00  0.0000E+00
    -28.970  0.0000E+00  0.0000E+00  0.0000E+00  0.0000E+00  0.0000E+00  0.0000E+00  0.0000E+00  0.0000E+00  0.0000E+00  0.0000E+00  0.0000E+00  0.0000E+00  0.0000E+00  0.0000E+00  0.0000E+00  0.0000E+00  0.0000E+00  0.0000E+00
    -28.817  0.3662E-07  0.7268E-07  0.6446E-08  0.1279E-07  0.2950E-07  0.5853E-07  0.4066E-09  0.8069E-09  0.1151E-09  0.2284E-09  0.1774E-08  0.3521E-08  0.1295E-08  0.2570E-08  0.3562E-09  0.7069E-09  0.9040E-09  0.1794E-08
    -28.664  0.0000E+00  0.0000E+00  0.0000E+00  0.0000E+00  0.0000E+00  0.0000E+00  0.0000E+00  0.0000E+00  0.0000E+00  0.0000E+00  0.0000E+00  0.0000E+00  0.0000E+00  0.0000E+00  0.0000E+00  0.0000E+00  0.0000E+00  0.0000E+00
    -28.512  0.0000E+00  0.0000E+00  0.0000E+00  0.0000E+00  0.0000E+00  0.0000E+00  0.0000E+00  0.0000E+00  0.0000E+00  0.0000E+00  0.0000E+00  0.0000E+00  0.0000E+00  0.0000E+00  0.0000E+00  0.0000E+00  0.0000E+00  0.0000E+00
    -28.359  0.0000E+00  0.0000E+00  0.0000E+00  0.0000E+00  0.0000E+00  0.0000E+00  0.0000E+00  0.0000E+00  0.0000E+00  0.0000E+00  0.0000E+00  0.0000E+00  0.0000E+00  0.0000E+00  0.0000E+00  0.0000E+00  0.0000E+00  0.0000E+00
    -28.206  0.0000E+00  0.0000E+00  0.0000E+00  0.0000E+00  0.0000E+00  0.0000E+00  0.0000E+00  0.0000E+00  0.0000E+00  0.0000E+00  0.0000E+00  0.0000E+00  0.0000E+00  0.0000E+00  0.0000E+00  0.0000E+00  0.0000E+00  0.0000E+00
    -28.053  0.0000E+00  0.0000E+00  0.0000E+00  0.0000E+00  0.0000E+00  0.0000E+00  0.0000E+00  0.0000E+00  0.0000E+00  0.0000E+00  0.0000E+00  0.0000E+00  0.0000E+00  0.0000E+00  0.0000E+00  0.0000E+00  0.0000E+00  0.0000E+00
    -27.900  0.0000E+00  0.0000E+00  0.0000E+00  0.0000E+00  0.0000E+00  0.0000E+00  0.0000E+00  0.0000E+00  0.0000E+00  0.0000E+00  0.0000E+00  0.0000E+00  0.0000E+00  0.0000E+00  0.0000E+00  0.0000E+00  0.0000E+00  0.0000E+00
    -27.747  0.0000E+00  0.0000E+00  0.0000E+00  0.0000E+00  0.0000E+00  0.0000E+00  0.0000E+00  0.0000E+00  0.0000E+00  0.0000E+00  0.0000E+00  0.0000E+00  0.0000E+00  0.0000E+00  0.0000E+00  0.0000E+00  0.0000E+00  0.0000E+00