 running on   16 total cores
 distrk:  each k-point on   16 cores,    1 groups
 distr:  one band on    1 cores,   16 groups
 using from now: INCAR     
 vasp.5.4.4.18Apr17-6-g9f103f2a35 (build Nov 01 2019 12:17:22) complex          
  
 POSCAR found type information on POSCAR  Sr Nb H 
 POSCAR found :  3 types and      12 ions

 ----------------------------------------------------------------------------- 
|                                                                             |
|           W    W    AA    RRRRR   N    N  II  N    N   GGGG   !!!           |
|           W    W   A  A   R    R  NN   N  II  NN   N  G    G  !!!           |
|           W    W  A    A  R    R  N N  N  II  N N  N  G       !!!           |
|           W WW W  AAAAAA  RRRRR   N  N N  II  N  N N  G  GGG   !            |
|           WW  WW  A    A  R   R   N   NN  II  N   NN  G    G                |
|           W    W  A    A  R    R  N    N  II  N    N   GGGG   !!!           |
|                                                                             |
|      For optimal performance we recommend to set                            |
|        NCORE= 4 - approx SQRT( number of cores)                             |
|      NCORE specifies how many cores store one orbital (NPAR=cpu/NCORE).     |
|      This setting can  greatly improve the performance of VASP for DFT.     |
|      The default,   NCORE=1            might be grossly inefficient         |
|      on modern multi-core architectures or massively parallel machines.     |
|      Do your own testing !!!!                                               |
|      Unfortunately you need to use the default for GW and RPA calculations. |
|      (for HF NCORE is supported but not extensively tested yet)             |
|                                                                             |
 ----------------------------------------------------------------------------- 

 LDA part: xc-table for Pade appr. of Perdew
 POSCAR, INCAR and KPOINTS ok, starting setup
 FFT: planning ...
 WAVECAR not read
 entering main loop
       N       E                     dE             d eps       ncg     rms          rms(c)
DAV:   1     0.282334718861E+03    0.28233E+03   -0.20065E+04  6144   0.121E+03
DAV:   2    -0.359756427654E+02   -0.31831E+03   -0.31234E+03  6928   0.389E+02
DAV:   3    -0.543532661807E+02   -0.18378E+02   -0.18236E+02 12112   0.743E+01
DAV:   4    -0.546010168161E+02   -0.24775E+00   -0.24816E+00  6608   0.694E+00
DAV:   5    -0.546149112493E+02   -0.13894E-01   -0.13906E-01 11664   0.167E+00    0.411E+01
RMM:   6    -0.541749335288E+02    0.43998E+00   -0.10147E+01  7115   0.156E+01    0.167E+01
RMM:   7    -0.537788453380E+02    0.39609E+00   -0.29476E+00  7359   0.845E+00    0.632E+00
RMM:   8    -0.536954642719E+02    0.83381E-01   -0.25169E-01  7382   0.282E+00    0.342E+00
RMM:   9    -0.536936936539E+02    0.17706E-02   -0.10248E-01  7306   0.179E+00    0.146E+00
RMM:  10    -0.536939013298E+02   -0.20768E-03   -0.14689E-02  7400   0.747E-01    0.624E-01
RMM:  11    -0.536942464898E+02   -0.34516E-03   -0.59317E-03  6330   0.447E-01
   1 F= -.53694246E+02 E0= -.53694246E+02  d E =-.536942E+02  mag=     0.0049
 curvature:   0.00 expect dE= 0.000E+00 dE for cont linesearch  0.000E+00
 trial: gam= 0.00000 g(F)=  0.214E-02 g(S)=  0.849E-01 ort = 0.000E+00 (trialstep = 0.100E+01)
 search vector abs. value=  0.871E-01
 bond charge predicted
       N       E                     dE             d eps       ncg     rms          rms(c)
DAV:   1    -0.540022590846E+02   -0.30836E+00   -0.58523E+00  9216   0.175E+01    0.588E+00
RMM:   2    -0.537641379184E+02    0.23812E+00   -0.76066E-01  7157   0.571E+00    0.105E+00
RMM:   3    -0.537378790780E+02    0.26259E-01   -0.81761E-02  7526   0.215E+00    0.882E-01
RMM:   4    -0.537327580753E+02    0.51210E-02   -0.18956E-02  7347   0.876E-01    0.854E-01
RMM:   5    -0.537316009444E+02    0.11571E-02   -0.65006E-03  6196   0.707E-01    0.679E-01
RMM:   6    -0.537318144272E+02   -0.21348E-03   -0.57120E-03  6121   0.438E-01
   2 F= -.53731814E+02 E0= -.53731814E+02  d E =-.375679E-01  mag=    -0.0000
 trial-energy change:   -0.037568  1 .order   -0.047581   -0.087064   -0.008099
 step:   1.1026(harm=  1.1026)  dis= 0.00649  next Energy=   -53.742243 (dE=-0.480E-01)
 bond charge predicted
       N       E                     dE             d eps       ncg     rms          rms(c)
DAV:   1    -0.537346763693E+02   -0.30754E-02   -0.60085E-02  9216   0.178E+00    0.580E-01
RMM:   2    -0.537322802734E+02    0.23961E-02   -0.72902E-03  6596   0.578E-01    0.992E-02
RMM:   3    -0.537320984982E+02    0.18178E-03   -0.75239E-04  4174   0.267E-01
   3 F= -.53732098E+02 E0= -.53732098E+02  d E =-.378520E-01  mag=    -0.0000
 curvature:  -0.55 expect dE=-0.813E-02 dE for cont linesearch -0.192E-03
 trial: gam= 0.10601 g(F)=  0.120E-01 g(S)=  0.278E-02 ort = 0.551E-02 (trialstep = 0.102E+01)
 search vector abs. value=  0.169E-01
 bond charge predicted
       N       E                     dE             d eps       ncg     rms          rms(c)
DAV:   1    -0.537507345473E+02   -0.18454E-01   -0.64251E-01  7744   0.646E+00    0.764E-01
RMM:   2    -0.537455976188E+02    0.51369E-02   -0.51983E-02  7276   0.142E+00    0.325E-01
RMM:   3    -0.537444290741E+02    0.11685E-02   -0.38054E-03  5759   0.705E-01    0.349E-01
RMM:   4    -0.537442922665E+02    0.13681E-03   -0.19660E-03  4790   0.315E-01
   4 F= -.53744292E+02 E0= -.53744292E+02  d E =-.121938E-01  mag=     0.0000
 trial-energy change:   -0.012194  1 .order   -0.013231   -0.015643   -0.010819
 step:   3.3093(harm=  3.3093)  dis= 0.02614  next Energy=   -53.757461 (dE=-0.254E-01)
 bond charge predicted
       N       E                     dE             d eps       ncg     rms          rms(c)
DAV:   1    -0.537861969889E+02   -0.41768E-01   -0.32427E+00  7680   0.145E+01    0.167E+00
RMM:   2    -0.537611464766E+02    0.25051E-01   -0.26114E-01  7259   0.317E+00    0.679E-01
RMM:   3    -0.537558597918E+02    0.52867E-02   -0.20416E-02  7240   0.149E+00    0.609E-01
RMM:   4    -0.537548961196E+02    0.96367E-03   -0.10196E-02  6915   0.534E-01    0.271E-01
RMM:   5    -0.537550876624E+02   -0.19154E-03   -0.16471E-03  4732   0.528E-01
   5 F= -.53755088E+02 E0= -.53755088E+02  d E =-.229892E-01  mag=    -0.0000
 curvature:  -1.82 expect dE=-0.192E-01 dE for cont linesearch -0.177E-05
 trial: gam= 0.74820 g(F)=  0.894E-02 g(S)=  0.160E-02 ort = 0.128E-03 (trialstep = 0.124E+01)
 search vector abs. value=  0.202E-01
 bond charge predicted
       N       E                     dE             d eps       ncg     rms          rms(c)
DAV:   1    -0.537667607723E+02   -0.11865E-01   -0.14961E+00  7744   0.107E+01    0.102E+00
RMM:   2    -0.537632787355E+02    0.34820E-02   -0.13724E-01  7314   0.224E+00    0.322E-01
RMM:   3    -0.537614006836E+02    0.18781E-02   -0.97994E-03  6530   0.121E+00    0.291E-01
RMM:   4    -0.537613158534E+02    0.84830E-04   -0.33105E-03  5634   0.365E-01
   6 F= -.53761316E+02 E0= -.53761316E+02  d E =-.622819E-02  mag=    -0.0000
 trial-energy change:   -0.006228  1 .order   -0.007660   -0.013155   -0.002165
 step:   1.4806(harm=  1.4806)  dis= 0.01333  next Energy=   -53.762961 (dE=-0.787E-02)
 bond charge predicted
       N       E                     dE             d eps       ncg     rms          rms(c)
DAV:   1    -0.537615758316E+02   -0.17515E-03   -0.58543E-02 10752   0.211E+00    0.209E-01
RMM:   2    -0.537613386637E+02    0.23717E-03   -0.50512E-03  6102   0.436E-01
   7 F= -.53761339E+02 E0= -.53761339E+02  d E =-.625100E-02  mag=    -0.0000
 curvature:  -1.41 expect dE=-0.101E-01 dE for cont linesearch -0.108E-05
 trial: gam= 0.76825 g(F)=  0.460E-02 g(S)=  0.259E-02 ort = 0.124E-03 (trialstep = 0.129E+01)
 search vector abs. value=  0.193E-01
 bond charge predicted
       N       E                     dE             d eps       ncg     rms          rms(c)
DAV:   1    -0.537885479079E+02   -0.26972E-01   -0.14194E+00  7680   0.890E+00    0.141E+00
RMM:   2    -0.537690682249E+02    0.19480E-01   -0.11667E-01  7157   0.213E+00    0.429E-01
RMM:   3    -0.537655257467E+02    0.35425E-02   -0.11212E-02  6966   0.106E+00    0.335E-01
RMM:   4    -0.537651508240E+02    0.37492E-03   -0.43220E-03  5508   0.371E-01
   8 F= -.53765151E+02 E0= -.53765151E+02  d E =-.381216E-02  mag=     0.0000
 trial-energy change:   -0.003812  1 .order   -0.006772   -0.009372   -0.004172
 step:   2.3172(harm=  2.3172)  dis= 0.01312  next Energy=   -53.769784 (dE=-0.845E-02)
 bond charge predicted
       N       E                     dE             d eps       ncg     rms          rms(c)
DAV:   1    -0.537792433990E+02   -0.13718E-01   -0.90768E-01  8224   0.717E+00    0.112E+00
RMM:   2    -0.537664689378E+02    0.12774E-01   -0.76208E-02  7159   0.171E+00    0.351E-01
RMM:   3    -0.537642998139E+02    0.21691E-02   -0.66989E-03  6548   0.789E-01    0.246E-01
RMM:   4    -0.537640899711E+02    0.20984E-03   -0.31468E-03  5197   0.353E-01
   9 F= -.53764090E+02 E0= -.53764090E+02  d E =-.275131E-02  mag=     0.0000
 curvature:  -3.07 expect dE=-0.244E-01 dE for cont linesearch -0.337E-03
 trial: gam= 1.08283 g(F)=  0.577E-02 g(S)=  0.219E-02 ort =-0.146E-02 (trialstep = 0.105E+01)
 search vector abs. value=  0.274E-01
 reached required accuracy - stopping structural energy minimisation
