unknown system                          
           1
     6.122665    0.372734    0.114619
     0.705126    3.677311   -0.627816
     2.335237    0.422791    4.949292
   Sr   Nb   H 
   2   1   7
Direct configuration=     1
   0.91643600  0.26239400  0.92380700
   0.25264000  0.59521700  0.25610000
   0.56561100  0.84179600  0.59905600
   0.58919200  0.42711900  0.39875300
   0.84413200  0.78560500  0.23428200
   0.31812800  0.07370300  0.96225000
   0.27186500  0.67270800  0.74840500
   0.58679200  0.44288500  0.78947300
   0.84689900  0.79040000  0.68155700
   0.31735700  0.06862300  0.48198000
unknown system                          
           1
     6.166574    0.378915    0.115149
     0.712173    3.706540   -0.633754
     2.352066    0.425152    4.982938
   Sr   Nb   H 
   2   1   7
Direct configuration=     2
   0.91652074  0.26228153  0.92377063
   0.25276041  0.59544572  0.25604217
   0.56508231  0.84141095  0.59955337
   0.58914559  0.42763152  0.39881795
   0.84387819  0.78556595  0.23473519
   0.31838180  0.07317169  0.96183957
   0.27255195  0.67308683  0.74799411
   0.58677702  0.44323008  0.78907261
   0.84645718  0.79020759  0.68152798
   0.31749681  0.06841813  0.48230941
unknown system                          
           1
     6.193352    0.382684    0.115472
     0.716470    3.724366   -0.637375
     2.362329    0.426593    5.003457
   Sr   Nb   H 
   2   1   7
Direct configuration=     3
   0.91657208  0.26221342  0.92374858
   0.25283329  0.59558404  0.25600717
   0.56476216  0.84117832  0.59985463
   0.58911738  0.42794166  0.39885735
   0.84372444  0.78554252  0.23500972
   0.31853564  0.07285004  0.96159088
   0.27296794  0.67331561  0.74774524
   0.58676793  0.44343884  0.78883012
   0.84618966  0.79009143  0.68151040
   0.31758149  0.06829413  0.48250892
unknown system                          
           1
     6.198317    0.389719    0.113420
     0.720844    3.735818   -0.640925
     2.363071    0.425940    5.004470
   Sr   Nb   H 
   2   1   7
Direct configuration=     4
   0.91661095  0.26202653  0.92374719
   0.25307071  0.59588197  0.25591256
   0.56442687  0.83809748  0.59975317
   0.58894134  0.42978808  0.39925682
   0.84306829  0.78556902  0.23601746
   0.31887009  0.07224765  0.96103073
   0.27407121  0.67418934  0.74717278
   0.58666028  0.44484476  0.78842246
   0.84539920  0.78993734  0.68139521
   0.31793305  0.06786782  0.48295462
unknown system                          
           1
     6.202704    0.395935    0.111607
     0.724710    3.745938   -0.644063
     2.363726    0.425363    5.005366
   Sr   Nb   H 
   2   1   7
Direct configuration=     5
   0.91664536  0.26186182  0.92374591
   0.25328026  0.59614404  0.25582909
   0.56413207  0.83538381  0.59966256
   0.58878508  0.43141512  0.39961028
   0.84248877  0.78559361  0.23690774
   0.31916573  0.07171631  0.96053570
   0.27504519  0.67495720  0.74666744
   0.58656465  0.44608348  0.78806267
   0.84470121  0.78980286  0.68129325
   0.31824367  0.06749176  0.48334834
unknown system                          
           1
     6.204372    0.409715    0.107761
     0.732730    3.761516   -0.649556
     2.362333    0.424442    5.001411
   Sr   Nb   H 
   2   1   7
Direct configuration=     6
   0.91659085  0.26161159  0.92380174
   0.25346614  0.59638069  0.25575597
   0.56493898  0.83516104  0.59941816
   0.58848799  0.43265164  0.39935667
   0.84175935  0.78527864  0.23787997
   0.31955745  0.07081848  0.95983809
   0.27562250  0.67535818  0.74631483
   0.58634866  0.44697832  0.78820645
   0.84371980  0.78930852  0.68126064
   0.31856028  0.06690288  0.48383047
unknown system                          
           1
     6.205457    0.418690    0.105257
     0.737954    3.771662   -0.653135
     2.361426    0.423842    4.998836
   Sr   Nb   H 
   2   1   7
Direct configuration=     7
   0.91655551  0.26144943  0.92383802
   0.25358706  0.59653373  0.25570844
   0.56546469  0.83501458  0.59925892
   0.58829367  0.43345434  0.39919178
   0.84128442  0.78507622  0.23851341
   0.31981324  0.07023513  0.95938311
   0.27599826  0.67561683  0.74608525
   0.58620738  0.44755926  0.78830048
   0.84308092  0.78899025  0.68123902
   0.31876686  0.06652022  0.48414456
