Automatically generated mesh
      28
Reciprocal lattice
    0.00000000000000    0.00000000000000    0.00000000000000             1
    0.16666666666667    0.00000000000000    0.00000000000000             2
    0.33333333333333    0.00000000000000    0.00000000000000             2
    0.50000000000000    0.00000000000000    0.00000000000000             1
    0.00000000000000    0.33333333333333    0.00000000000000             2
    0.16666666666667    0.33333333333333    0.00000000000000             2
    0.33333333333333    0.33333333333333    0.00000000000000             2
    0.50000000000000    0.33333333333333    0.00000000000000             2
   -0.33333333333333    0.33333333333333    0.00000000000000             2
   -0.16666666666667    0.33333333333333    0.00000000000000             2
    0.00000000000000    0.00000000000000    0.33333333333333             2
    0.16666666666667    0.00000000000000    0.33333333333333             2
    0.33333333333333    0.00000000000000    0.33333333333333             2
    0.50000000000000    0.00000000000000    0.33333333333333             2
   -0.33333333333333    0.00000000000000    0.33333333333333             2
   -0.16666666666667    0.00000000000000    0.33333333333333             2
    0.00000000000000    0.33333333333333    0.33333333333333             2
    0.16666666666667    0.33333333333333    0.33333333333333             2
    0.33333333333333    0.33333333333333    0.33333333333333             2
    0.50000000000000    0.33333333333333    0.33333333333333             2
   -0.33333333333333    0.33333333333333    0.33333333333333             2
   -0.16666666666667    0.33333333333333    0.33333333333333             2
    0.00000000000000   -0.33333333333333    0.33333333333333             2
    0.16666666666667   -0.33333333333333    0.33333333333333             2
    0.33333333333333   -0.33333333333333    0.33333333333333             2
    0.50000000000000   -0.33333333333333    0.33333333333333             2
   -0.33333333333333   -0.33333333333333    0.33333333333333             2
   -0.16666666666667   -0.33333333333333    0.33333333333333             2
Tetrahedra
       160    0.00308641975309
         2         1         2         5        12
         2         2         5         6        12
         2         5         6        12        18
         2         1         5        11        12
         2         5        11        12        17
         2         5        12        17        18
         2         2         3         6        13
         2         3         6         7        13
         2         6         7        13        19
         2         2         6        12        13
         2         6        12        13        18
         2         6        13        18        19
         2         3         4         7        14
         2         4         7         8        14
         2         7         8        14        20
         2         3         7        13        14
         2         7        13        14        19
         2         7        14        19        20
         2         3         4         8        15
         2         3         8         9        15
         2         8         9        15        21
         2         4         8        14        15
         2         8        14        15        20
         2         8        15        20        21
         2         2         3         9        16
         2         2         9        10        16
         2         9        10        16        22
         2         3         9        15        16
         2         9        15        16        21
         2         9        16        21        22
         2         1         2        10        11
         2         1         5        10        11
         2         5        10        11        17
         2         2        10        11        16
         2        10        11        16        22
         2        10        11        17        22
         2         5         5         6        18
         2         5         6        10        18
         2         5        10        18        24
         2         5         5        17        18
         2         5        17        18        23
         2         5        18        23        24
         2         6         7        10        19
         2         7         9        10        19
         2         9        10        19        25
         2         6        10        18        19
         2        10        18        19        24
         2        10        19        24        25
         2         7         8         9        20
         2         8         8         9        20
         2         8         9        20        26
         2         7         9        19        20
         2         9        19        20        25
         2         9        20        25        26
         2         8         8         9        21
         2         7         8         9        21
         2         7         8        21        27
         2         8         8        20        21
         2         8        20        21        26
         2         8        21        26        27
         2         7         9        10        22
         2         6         7        10        22
         2         6         7        22        28
         2         7         9        21        22
         2         7        21        22        27
         2         7        22        27        28
         2         5         6        10        17
         2         5         5         6        17
         2         5         6        17        23
         2         6        10        17        22
         2         6        17        22        28
         2         6        17        23        28
         2         1         5        10        24
         2         1         2        10        24
         2         1         2        12        24
         2         1         5        23        24
         2         1        11        23        24
         2         1        11        12        24
         2         2         9        10        25
         2         2         3         9        25
         2         2         3        13        25
         2         2        10        24        25
         2         2        12        24        25
         2         2        12        13        25
         2         3         8         9        26
         2         3         4         8        26
         2         3         4        14        26
         2         3         9        25        26
         2         3        13        25        26
         2         3        13        14        26
         2         4         7         8        27
         2         3         4         7        27
         2         3         4        15        27
         2         4         8        26        27
         2         4        14        26        27
         2         4        14        15        27
         2         3         6         7        28
         2         2         3         6        28
         2         2         3        16        28
         2         3         7        27        28
         2         3        15        27        28
         2         3        15        16        28
         2         2         5         6        23
         2         1         2         5        23
         2         1         2        11        23
         2         2         6        23        28
         2         2        16        23        28
         2         2        11        16        23
         2        11        12        16        17
         2        12        16        17        18
         2        16        17        18        28
         2        11        11        16        17
         2        11        16        17        23
         2        16        17        23        28
         2        12        13        15        18
         2        13        15        18        19
         2        15        18        19        27
         2        12        15        16        18
         2        15        16        18        28
         2        15        18        27        28
         2        13        14        14        19
         2        14        14        19        20
         2        14        19        20        26
         2        13        14        15        19
         2        14        15        19        27
         2        14        19        26        27
         2        13        14        15        20
         2        13        15        20        21
         2        13        20        21        25
         2        13        14        14        20
         2        13        14        20        26
         2        13        20        25        26
         2        12        15        16        21
         2        12        16        21        22
         2        12        21        22        24
         2        12        13        15        21
         2        12        13        21        25
         2        12        21        24        25
         2        11        11        16        22
         2        11        11        17        22
         2        11        17        22        23
         2        11        12        16        22
         2        11        12        22        24
         2        11        22        23        24
         2        17        18        23        28
         2        18        23        24        28
         2        22        23        24        28
         4        17        23        23        28
         2        17        22        23        28
         2        18        19        24        27
         2        19        24        25        27
         2        21        24        25        27
         2        18        24        27        28
         2        22        24        27        28
         2        21        22        24        27
         2        19        20        25        26
         4        20        25        26        26
         2        19        25        26        27
         2        21        25        26        27
         2        20        21        25        26
