  10  10   1   0
  0.1110384E+02  0.3509986E-09  0.3570643E-09  0.1149325E-08  0.5000000E-15
  1.000000000000000E-004
  CAR 
 unknown system                          
     11.76106309    -35.15714634  301      2.86905212      1.00000000
    -35.157  0.0000E+00  0.0000E+00  0.0000E+00  0.0000E+00
    -35.001  0.0000E+00  0.0000E+00  0.0000E+00  0.0000E+00
    -34.844  0.0000E+00  0.0000E+00  0.0000E+00  0.0000E+00
    -34.688  0.0000E+00  0.0000E+00  0.0000E+00  0.0000E+00
    -34.532  0.0000E+00  0.0000E+00  0.0000E+00  0.0000E+00
    -34.375  0.0000E+00  0.0000E+00  0.0000E+00  0.0000E+00
    -34.219  0.0000E+00  0.0000E+00  0.0000E+00  0.0000E+00
    -34.062  0.0000E+00  0.0000E+00  0.0000E+00  0.0000E+00
    -33.906  0.0000E+00  0.0000E+00  0.0000E+00  0.0000E+00
    -33.750  0.0000E+00  0.0000E+00  0.0000E+00  0.0000E+00
    -33.593  0.0000E+00  0.0000E+00  0.0000E+00  0.0000E+00
    -33.437  0.0000E+00  0.0000E+00  0.0000E+00  0.0000E+00
    -33.280  0.0000E+00  0.0000E+00  0.0000E+00  0.0000E+00
    -33.124  0.0000E+00  0.0000E+00  0.0000E+00  0.0000E+00
    -32.968  0.1559E+00  0.1073E+00  0.4778E-02  0.2888E-02
    -32.811  0.0000E+00  0.0000E+00  0.1010E-01  0.1010E-01
    -32.655  0.1023E+00  0.0000E+00  0.1300E-01  0.1010E-01
    -32.498  0.0000E+00  0.0000E+00  0.2020E-01  0.2020E-01
    -32.342  0.0000E+00  0.0000E+00  0.2020E-01  0.2020E-01
    -32.186  0.0000E+00  0.0000E+00  0.2020E-01  0.2020E-01
    -32.029  0.0000E+00  0.0000E+00  0.2020E-01  0.2020E-01
    -31.873  0.0000E+00  0.0000E+00  0.2020E-01  0.2020E-01
    -31.716  0.0000E+00  0.0000E+00  0.2020E-01  0.2020E-01
    -31.560  0.0000E+00  0.0000E+00  0.2020E-01  0.2020E-01
    -31.404  0.0000E+00  0.0000E+00  0.2020E-01  0.2020E-01
    -31.247  0.0000E+00  0.0000E+00  0.2020E-01  0.2020E-01
    -31.091  0.0000E+00  0.0000E+00  0.2020E-01  0.2020E-01
    -30.935  0.0000E+00  0.0000E+00  0.2020E-01  0.2020E-01
    -30.778  0.0000E+00  0.0000E+00  0.2020E-01  0.2020E-01
    -30.622  0.0000E+00  0.0000E+00  0.2020E-01  0.2020E-01
    -30.465  0.0000E+00  0.0000E+00  0.2020E-01  0.2020E-01
    -30.309  0.0000E+00  0.0000E+00  0.2020E-01  0.2020E-01
    -30.153  0.0000E+00  0.0000E+00  0.2020E-01  0.2020E-01
    -29.996  0.0000E+00  0.0000E+00  0.2020E-01  0.2020E-01
    -29.840  0.0000E+00  0.0000E+00  0.2020E-01  0.2020E-01
    -29.683  0.0000E+00  0.0000E+00  0.2020E-01  0.2020E-01
    -29.527  0.0000E+00  0.0000E+00  0.2020E-01  0.2020E-01
    -29.371  0.0000E+00  0.0000E+00  0.2020E-01  0.2020E-01
    -29.214  0.0000E+00  0.0000E+00  0.2020E-01  0.2020E-01
    -29.058  0.0000E+00  0.0000E+00  0.2020E-01  0.2020E-01
    -28.901  0.0000E+00  0.0000E+00  0.4040E-01  0.2020E-01
    -28.745  0.0000E+00  0.0000E+00  0.5051E-01  0.2020E-01
    -28.589  0.0000E+00  0.0000E+00  0.5051E-01  0.2020E-01
    -28.432  0.0000E+00  0.1747E+00  0.5051E-01  0.2525E-01
    -28.276  0.0000E+00  0.0000E+00  0.5051E-01  0.4040E-01
    -28.119  0.0000E+00  0.0000E+00  0.5051E-01  0.4040E-01
    -27.963  0.0000E+00  0.0000E+00  0.5051E-01  0.5051E-01
    -27.807  0.0000E+00  0.0000E+00  0.5051E-01  0.5051E-01
    -27.650  0.0000E+00  0.0000E+00  0.5051E-01  0.5051E-01
    -27.494  0.0000E+00  0.0000E+00  0.5051E-01  0.5051E-01
    -27.337  0.0000E+00  0.0000E+00  0.5051E-01  0.5051E-01
    -27.181  0.0000E+00  0.0000E+00  0.5051E-01  0.5051E-01
    -27.025  0.0000E+00  0.0000E+00  0.5051E-01  0.5051E-01
    -26.868  0.0000E+00  0.0000E+00  0.5051E-01  0.5051E-01
    -26.712  0.0000E+00  0.0000E+00  0.5051E-01  0.5051E-01
    -26.555  0.0000E+00  0.0000E+00  0.5051E-01  0.5051E-01
    -26.399  0.0000E+00  0.0000E+00  0.5051E-01  0.5051E-01
    -26.243  0.0000E+00  0.0000E+00  0.5051E-01  0.5051E-01
    -26.086  0.0000E+00  0.0000E+00  0.5051E-01  0.5051E-01
    -25.930  0.0000E+00  0.0000E+00  0.5051E-01  0.5051E-01
    -25.774  0.0000E+00  0.0000E+00  0.5051E-01  0.5051E-01
    -25.617  0.0000E+00  0.0000E+00  0.5051E-01  0.5051E-01
    -25.461  0.0000E+00  0.0000E+00  0.5051E-01  0.5051E-01
    -25.304  0.0000E+00  0.0000E+00  0.5051E-01  0.5051E-01
    -25.148  0.0000E+00  0.0000E+00  0.5051E-01  0.5051E-01
    -24.992  0.0000E+00  0.0000E+00  0.5051E-01  0.5051E-01
    -24.835  0.0000E+00  0.0000E+00  0.5051E-01  0.5051E-01
    -24.679  0.0000E+00  0.0000E+00  0.5051E-01  0.5051E-01
    -24.522  0.0000E+00  0.0000E+00  0.5051E-01  0.5051E-01
    -24.366  0.0000E+00  0.0000E+00  0.5051E-01  0.5051E-01
    -24.210  0.0000E+00  0.0000E+00  0.5051E-01  0.5051E-01
    -24.053  0.0000E+00  0.0000E+00  0.5051E-01  0.5051E-01
    -23.897  0.0000E+00  0.0000E+00  0.5051E-01  0.5051E-01
    -23.740  0.0000E+00  0.0000E+00  0.5051E-01  0.5051E-01
    -23.584  0.0000E+00  0.0000E+00  0.5051E-01  0.5051E-01
    -23.428  0.0000E+00  0.0000E+00  0.5051E-01  0.5051E-01
    -23.271  0.0000E+00  0.0000E+00  0.5051E-01  0.5051E-01
    -23.115  0.0000E+00  0.0000E+00  0.5051E-01  0.5051E-01
    -22.958  0.0000E+00  0.0000E+00  0.5051E-01  0.5051E-01
    -22.802  0.0000E+00  0.0000E+00  0.5051E-01  0.5051E-01
    -22.646  0.0000E+00  0.0000E+00  0.5051E-01  0.5051E-01
    -22.489  0.0000E+00  0.0000E+00  0.5051E-01  0.5051E-01
    -22.333  0.0000E+00  0.0000E+00  0.5051E-01  0.5051E-01
    -22.176  0.0000E+00  0.0000E+00  0.5051E-01  0.5051E-01
    -22.020  0.0000E+00  0.0000E+00  0.5051E-01  0.5051E-01
    -21.864  0.0000E+00  0.0000E+00  0.5051E-01  0.5051E-01
    -21.707  0.0000E+00  0.0000E+00  0.5051E-01  0.5051E-01
    -21.551  0.0000E+00  0.0000E+00  0.5051E-01  0.5051E-01
    -21.394  0.0000E+00  0.0000E+00  0.5051E-01  0.5051E-01
    -21.238  0.0000E+00  0.0000E+00  0.5051E-01  0.5051E-01
    -21.082  0.0000E+00  0.0000E+00  0.5051E-01  0.5051E-01
    -20.925  0.0000E+00  0.0000E+00  0.5051E-01  0.5051E-01
    -20.769  0.0000E+00  0.0000E+00  0.5051E-01  0.5051E-01
    -20.613  0.0000E+00  0.0000E+00  0.5051E-01  0.5051E-01
    -20.456  0.0000E+00  0.0000E+00  0.5051E-01  0.5051E-01
    -20.300  0.0000E+00  0.0000E+00  0.5051E-01  0.5051E-01
    -20.143  0.0000E+00  0.0000E+00  0.5051E-01  0.5051E-01
    -19.987  0.0000E+00  0.0000E+00  0.5051E-01  0.5051E-01
    -19.831  0.0000E+00  0.0000E+00  0.5051E-01  0.5051E-01
    -19.674  0.0000E+00  0.0000E+00  0.5051E-01  0.5051E-01
    -19.518  0.0000E+00  0.0000E+00  0.5051E-01  0.5051E-01
    -19.361  0.0000E+00  0.0000E+00  0.5051E-01  0.5051E-01
    -19.205  0.0000E+00  0.0000E+00  0.5051E-01  0.5051E-01
    -19.049  0.0000E+00  0.0000E+00  0.5051E-01  0.5051E-01
    -18.892  0.0000E+00  0.0000E+00  0.5051E-01  0.5051E-01
    -18.736  0.0000E+00  0.0000E+00  0.5051E-01  0.5051E-01
    -18.579  0.0000E+00  0.0000E+00  0.5051E-01  0.5051E-01
    -18.423  0.0000E+00  0.0000E+00  0.5051E-01  0.5051E-01
    -18.267  0.0000E+00  0.0000E+00  0.5051E-01  0.5051E-01
    -18.110  0.0000E+00  0.0000E+00  0.5051E-01  0.5051E-01
    -17.954  0.0000E+00  0.0000E+00  0.5051E-01  0.5051E-01
    -17.797  0.0000E+00  0.0000E+00  0.5051E-01  0.5051E-01
    -17.641  0.0000E+00  0.0000E+00  0.5051E-01  0.5051E-01
    -17.485  0.0000E+00  0.0000E+00  0.5051E-01  0.5051E-01
    -17.328  0.0000E+00  0.0000E+00  0.5051E-01  0.5051E-01
    -17.172  0.0000E+00  0.0000E+00  0.5051E-01  0.5051E-01
    -17.015  0.0000E+00  0.0000E+00  0.5051E-01  0.5051E-01
    -16.859  0.0000E+00  0.0000E+00  0.5051E-01  0.5051E-01
    -16.703  0.0000E+00  0.0000E+00  0.5051E-01  0.5051E-01
    -16.546  0.0000E+00  0.0000E+00  0.5051E-01  0.5051E-01
    -16.390  0.0000E+00  0.0000E+00  0.5051E-01  0.5051E-01
    -16.233  0.0000E+00  0.0000E+00  0.5051E-01  0.5051E-01
    -16.077  0.0000E+00  0.0000E+00  0.5051E-01  0.5051E-01
    -15.921  0.0000E+00  0.0000E+00  0.5051E-01  0.5051E-01
    -15.764  0.0000E+00  0.0000E+00  0.5051E-01  0.5051E-01
    -15.608  0.0000E+00  0.0000E+00  0.5051E-01  0.5051E-01
    -15.451  0.3516E-01  0.2007E-01  0.5204E-01  0.5125E-01
    -15.295  0.1457E-01  0.1516E-01  0.5694E-01  0.5661E-01
    -15.139  0.5550E-01  0.6389E-01  0.6344E-01  0.6042E-01
    -14.982  0.9069E-01  0.1127E+00  0.7526E-01  0.7290E-01
    -14.826  0.6877E-01  0.4078E-01  0.9123E-01  0.8792E-01
    -14.670  0.1796E+00  0.5277E-01  0.1026E+00  0.9290E-01
    -14.513  0.2284E-01  0.4283E-01  0.1105E+00  0.1077E+00
    -14.357  0.0000E+00  0.0000E+00  0.1111E+00  0.1111E+00
    -14.200  0.0000E+00  0.0000E+00  0.1111E+00  0.1111E+00
    -14.044  0.0000E+00  0.0000E+00  0.1111E+00  0.1111E+00
    -13.888  0.0000E+00  0.0000E+00  0.1111E+00  0.1111E+00
    -13.731  0.0000E+00  0.0000E+00  0.1111E+00  0.1111E+00
    -13.575  0.0000E+00  0.0000E+00  0.1111E+00  0.1111E+00
    -13.418  0.0000E+00  0.0000E+00  0.1111E+00  0.1111E+00
    -13.262  0.0000E+00  0.0000E+00  0.1111E+00  0.1111E+00
    -13.106  0.0000E+00  0.0000E+00  0.1111E+00  0.1111E+00
    -12.949  0.0000E+00  0.0000E+00  0.1111E+00  0.1111E+00
    -12.793  0.0000E+00  0.0000E+00  0.1111E+00  0.1111E+00
    -12.636  0.0000E+00  0.0000E+00  0.1111E+00  0.1111E+00
    -12.480  0.0000E+00  0.0000E+00  0.1111E+00  0.1111E+00
    -12.324  0.0000E+00  0.0000E+00  0.1111E+00  0.1111E+00
    -12.167  0.0000E+00  0.0000E+00  0.1111E+00  0.1111E+00
    -12.011  0.0000E+00  0.0000E+00  0.1111E+00  0.1111E+00
    -11.854  0.0000E+00  0.0000E+00  0.1111E+00  0.1111E+00
    -11.698  0.0000E+00  0.0000E+00  0.1111E+00  0.1111E+00
    -11.542  0.0000E+00  0.0000E+00  0.1111E+00  0.1111E+00
    -11.385  0.0000E+00  0.0000E+00  0.1111E+00  0.1111E+00
    -11.229  0.0000E+00  0.0000E+00  0.1111E+00  0.1111E+00
    -11.072  0.0000E+00  0.0000E+00  0.1111E+00  0.1111E+00
    -10.916  0.0000E+00  0.0000E+00  0.1111E+00  0.1111E+00
    -10.760  0.0000E+00  0.0000E+00  0.1111E+00  0.1111E+00
    -10.603  0.0000E+00  0.0000E+00  0.1111E+00  0.1111E+00
    -10.447  0.0000E+00  0.0000E+00  0.1111E+00  0.1111E+00
    -10.290  0.0000E+00  0.0000E+00  0.1111E+00  0.1111E+00
    -10.134  0.0000E+00  0.0000E+00  0.1111E+00  0.1111E+00
     -9.978  0.0000E+00  0.0000E+00  0.1111E+00  0.1111E+00
     -9.821  0.0000E+00  0.0000E+00  0.1111E+00  0.1111E+00
     -9.665  0.0000E+00  0.0000E+00  0.1111E+00  0.1111E+00
     -9.509  0.0000E+00  0.0000E+00  0.1111E+00  0.1111E+00
     -9.352  0.0000E+00  0.0000E+00  0.1111E+00  0.1111E+00
     -9.196  0.0000E+00  0.0000E+00  0.1111E+00  0.1111E+00
     -9.039  0.0000E+00  0.0000E+00  0.1111E+00  0.1111E+00
     -8.883  0.0000E+00  0.0000E+00  0.1111E+00  0.1111E+00
     -8.727  0.0000E+00  0.0000E+00  0.1111E+00  0.1111E+00
     -8.570  0.0000E+00  0.0000E+00  0.1111E+00  0.1111E+00
     -8.414  0.0000E+00  0.0000E+00  0.1111E+00  0.1111E+00
     -8.257  0.0000E+00  0.0000E+00  0.1111E+00  0.1111E+00
     -8.101  0.0000E+00  0.0000E+00  0.1111E+00  0.1111E+00
     -7.945  0.0000E+00  0.0000E+00  0.1111E+00  0.1111E+00
     -7.788  0.0000E+00  0.0000E+00  0.1111E+00  0.1111E+00
     -7.632  0.0000E+00  0.0000E+00  0.1111E+00  0.1111E+00
     -7.475  0.0000E+00  0.0000E+00  0.1111E+00  0.1111E+00
     -7.319  0.0000E+00  0.0000E+00  0.1111E+00  0.1111E+00
     -7.163  0.0000E+00  0.0000E+00  0.1111E+00  0.1111E+00
     -7.006  0.0000E+00  0.0000E+00  0.1111E+00  0.1111E+00
     -6.850  0.5363E-02  0.3786E-02  0.1115E+00  0.1113E+00
     -6.693  0.5358E-02  0.5241E-02  0.1123E+00  0.1121E+00
     -6.537  0.6573E-02  0.6442E-02  0.1132E+00  0.1130E+00
     -6.381  0.8929E-02  0.8697E-02  0.1144E+00  0.1142E+00
     -6.224  0.1218E-01  0.1086E-01  0.1160E+00  0.1157E+00
     -6.068  0.2447E-01  0.1906E-01  0.1188E+00  0.1183E+00
     -5.911  0.0000E+00  0.0000E+00  0.1212E+00  0.1212E+00
     -5.755  0.0000E+00  0.0000E+00  0.1212E+00  0.1212E+00
     -5.599  0.0000E+00  0.0000E+00  0.1212E+00  0.1212E+00
     -5.442  0.0000E+00  0.0000E+00  0.1212E+00  0.1212E+00
     -5.286  0.0000E+00  0.0000E+00  0.1212E+00  0.1212E+00
     -5.129  0.0000E+00  0.0000E+00  0.1212E+00  0.1212E+00
     -4.973  0.0000E+00  0.0000E+00  0.1212E+00  0.1212E+00
     -4.817  0.9924E-03  0.0000E+00  0.1213E+00  0.1212E+00
     -4.660  0.2808E-02  0.1172E-02  0.1216E+00  0.1213E+00
     -4.504  0.2176E-02  0.3005E-02  0.1220E+00  0.1216E+00
     -4.348  0.2395E-02  0.2208E-02  0.1223E+00  0.1220E+00
     -4.191  0.2615E-02  0.2427E-02  0.1227E+00  0.1224E+00
     -4.035  0.2834E-02  0.2645E-02  0.1232E+00  0.1228E+00
     -3.878  0.2975E-02  0.2863E-02  0.1236E+00  0.1232E+00
     -3.722  0.3081E-02  0.2979E-02  0.1241E+00  0.1237E+00
     -3.566  0.3355E-02  0.3084E-02  0.1246E+00  0.1241E+00
     -3.409  0.3644E-02  0.3332E-02  0.1251E+00  0.1246E+00
     -3.253  0.3934E-02  0.3588E-02  0.1257E+00  0.1252E+00
     -3.096  0.4405E-02  0.3844E-02  0.1264E+00  0.1258E+00
     -2.940  0.7239E-02  0.4303E-02  0.1272E+00  0.1264E+00
     -2.784  0.1298E-01  0.7579E-02  0.1290E+00  0.1272E+00
     -2.627  0.9508E-02  0.1396E-01  0.1308E+00  0.1290E+00
     -2.471  0.1012E-01  0.1003E-01  0.1322E+00  0.1308E+00
     -2.314  0.9048E-02  0.1002E-01  0.1340E+00  0.1323E+00
     -2.158  0.1302E-01  0.9713E-02  0.1357E+00  0.1342E+00
     -2.002  0.9469E-02  0.1227E-01  0.1414E+00  0.1358E+00
     -1.845  0.1625E-01  0.1250E-01  0.1427E+00  0.1412E+00
     -1.689  0.1611E-01  0.1742E-01  0.1453E+00  0.1429E+00
     -1.532  0.1028E-01  0.2174E-01  0.1476E+00  0.1460E+00
     -1.376  0.1852E-01  0.1052E-01  0.1497E+00  0.1479E+00
     -1.220  0.1350E-01  0.1235E-01  0.1518E+00  0.1503E+00
     -1.063  0.1313E-01  0.1529E-01  0.1543E+00  0.1528E+00
     -0.907  0.1172E-01  0.1265E-01  0.1563E+00  0.1548E+00
     -0.750  0.1040E-01  0.9374E-02  0.1578E+00  0.1565E+00
     -0.594  0.1254E-01  0.1410E-01  0.1602E+00  0.1583E+00
     -0.438  0.7180E-01  0.3904E-01  0.1642E+00  0.1615E+00
     -0.281  0.1165E-01  0.1707E-01  0.1691E+00  0.1677E+00
     -0.125  0.5592E-02  0.7622E-02  0.1703E+00  0.1694E+00
      0.032  0.3146E-02  0.4815E-02  0.1709E+00  0.1704E+00
      0.188  0.1390E-02  0.2703E-02  0.1713E+00  0.1710E+00
      0.344  0.1060E-02  0.1352E-02  0.1714E+00  0.1713E+00
      0.501  0.7312E-03  0.1036E-02  0.1716E+00  0.1714E+00
      0.657  0.4048E-03  0.7220E-03  0.1717E+00  0.1716E+00
      0.813  0.8714E-04  0.4110E-03  0.1717E+00  0.1717E+00
      0.970  0.0000E+00  0.1060E-03  0.1717E+00  0.1717E+00
      1.126  0.2155E-01  0.0000E+00  0.1725E+00  0.1717E+00
      1.283  0.3226E-01  0.0000E+00  0.1761E+00  0.1717E+00
      1.439  0.9094E-02  0.0000E+00  0.1793E+00  0.1717E+00
      1.595  0.4926E-02  0.0000E+00  0.1802E+00  0.1717E+00
      1.752  0.3951E-02  0.1757E-01  0.1809E+00  0.1738E+00
      1.908  0.6799E-02  0.2085E-01  0.1821E+00  0.1773E+00
      2.065  0.5121E-02  0.7372E-02  0.1828E+00  0.1793E+00
      2.221  0.6728E-02  0.4770E-02  0.1838E+00  0.1802E+00
      2.377  0.3037E-01  0.3983E-02  0.1864E+00  0.1809E+00
      2.534  0.1199E-01  0.9069E-03  0.1913E+00  0.1818E+00
      2.690  0.1047E-01  0.3238E-02  0.1925E+00  0.1824E+00
      2.847  0.3117E-01  0.8566E-02  0.1998E+00  0.1832E+00
      3.003  0.3289E-02  0.8649E-02  0.2019E+00  0.1846E+00
      3.159  0.1042E-01  0.1227E-01  0.2029E+00  0.1861E+00
      3.316  0.7714E-02  0.2139E-01  0.2050E+00  0.1895E+00
      3.472  0.8379E-02  0.8461E-02  0.2060E+00  0.1917E+00
      3.629  0.1153E-01  0.4036E-01  0.2076E+00  0.1949E+00
      3.785  0.2335E-01  0.1700E-01  0.2100E+00  0.2005E+00
      3.941  0.4261E-01  0.2735E-01  0.2155E+00  0.2053E+00
      4.098  0.1023E-01  0.2744E-01  0.2194E+00  0.2095E+00
      4.254  0.7743E-02  0.2502E-01  0.2207E+00  0.2155E+00
      4.411  0.2092E-01  0.7519E-02  0.2226E+00  0.2176E+00
      4.567  0.1671E-01  0.1261E-01  0.2258E+00  0.2191E+00
      4.723  0.2741E-01  0.1700E-01  0.2291E+00  0.2213E+00
      4.880  0.7445E-02  0.2298E-01  0.2317E+00  0.2250E+00
      5.036  0.1368E-01  0.1911E-01  0.2329E+00  0.2279E+00
      5.193  0.2752E-01  0.1711E-01  0.2363E+00  0.2315E+00
      5.349  0.2441E-01  0.5741E-02  0.2406E+00  0.2328E+00
      5.505  0.1730E-01  0.2168E-01  0.2432E+00  0.2349E+00
      5.662  0.2549E-01  0.3224E-01  0.2471E+00  0.2400E+00
      5.818  0.1545E-01  0.2292E-01  0.2501E+00  0.2434E+00
      5.974  0.1368E-01  0.2721E-01  0.2522E+00  0.2476E+00
      6.131  0.1732E-01  0.1661E-01  0.2544E+00  0.2507E+00
      6.287  0.2110E-01  0.1453E-01  0.2581E+00  0.2531E+00
      6.444  0.2357E-01  0.2242E-01  0.2616E+00  0.2558E+00
      6.600  0.2662E-01  0.2349E-01  0.2654E+00  0.2597E+00
      6.756  0.2506E-01  0.2218E-01  0.2692E+00  0.2642E+00
      6.913  0.3018E-01  0.1482E-01  0.2734E+00  0.2665E+00
      7.069  0.2633E-01  0.3024E-01  0.2775E+00  0.2704E+00
      7.226  0.2388E-01  0.2722E-01  0.2811E+00  0.2750E+00
      7.382  0.1273E-01  0.1936E-01  0.2845E+00  0.2786E+00
      7.538  0.1003E-01  0.2884E-01  0.2864E+00  0.2828E+00
      7.695  0.3471E-01  0.1012E-01  0.2894E+00  0.2861E+00
      7.851  0.2450E-01  0.2952E-01  0.2940E+00  0.2887E+00
      8.008  0.3031E-01  0.2095E-01  0.2985E+00  0.2930E+00
      8.164  0.1822E-01  0.3552E-01  0.3020E+00  0.2974E+00
      8.320  0.2608E-01  0.1611E-01  0.3054E+00  0.3014E+00
      8.477  0.2093E-01  0.2234E-01  0.3093E+00  0.3045E+00
      8.633  0.1332E-01  0.2464E-01  0.3118E+00  0.3084E+00
      8.790  0.1461E-01  0.1500E-01  0.3140E+00  0.3114E+00
      8.946  0.1623E-01  0.1471E-01  0.3165E+00  0.3136E+00
      9.102  0.1085E-01  0.1709E-01  0.3186E+00  0.3161E+00
      9.259  0.1724E-01  0.9797E-02  0.3209E+00  0.3183E+00
      9.415  0.2067E-02  0.2017E-01  0.3232E+00  0.3205E+00
      9.572  0.0000E+00  0.6852E-02  0.3232E+00  0.3231E+00
      9.728  0.0000E+00  0.0000E+00  0.3232E+00  0.3232E+00
      9.884  0.0000E+00  0.0000E+00  0.3232E+00  0.3232E+00
     10.041  0.0000E+00  0.0000E+00  0.3232E+00  0.3232E+00
     10.197  0.0000E+00  0.0000E+00  0.3232E+00  0.3232E+00
     10.354  0.0000E+00  0.0000E+00  0.3232E+00  0.3232E+00
     10.510  0.0000E+00  0.0000E+00  0.3232E+00  0.3232E+00
     10.666  0.0000E+00  0.0000E+00  0.3232E+00  0.3232E+00
     10.823  0.0000E+00  0.0000E+00  0.3232E+00  0.3232E+00
     10.979  0.0000E+00  0.0000E+00  0.3232E+00  0.3232E+00
     11.135  0.0000E+00  0.0000E+00  0.3232E+00  0.3232E+00
     11.292  0.0000E+00  0.0000E+00  0.3232E+00  0.3232E+00
     11.448  0.0000E+00  0.0000E+00  0.3232E+00  0.3232E+00
     11.605  0.0000E+00  0.0000E+00  0.3232E+00  0.3232E+00
     11.761  0.0000E+00  0.0000E+00  0.3232E+00  0.3232E+00
     11.76106309    -35.15714634  301      2.86905212      1.00000000
    -35.157  0.0000E+00  0.0000E+00  0.0000E+00  0.0000E+00  0.0000E+00  0.0000E+00  0.0000E+00  0.0000E+00  0.0000E+00  0.0000E+00  0.0000E+00  0.0000E+00  0.0000E+00  0.0000E+00  0.0000E+00  0.0000E+00  0.0000E+00  0.0000E+00
    -35.001  0.0000E+00  0.0000E+00  0.0000E+00  0.0000E+00  0.0000E+00  0.0000E+00  0.0000E+00  0.0000E+00  0.0000E+00  0.0000E+00  0.0000E+00  0.0000E+00  0.0000E+00  0.0000E+00  0.0000E+00  0.0000E+00  0.0000E+00  0.0000E+00
    -34.844  0.0000E+00  0.0000E+00  0.0000E+00  0.0000E+00  0.0000E+00  0.0000E+00  0.0000E+00  0.0000E+00  0.0000E+00  0.0000E+00  0.0000E+00  0.0000E+00  0.0000E+00  0.0000E+00  0.0000E+00  0.0000E+00  0.0000E+00  0.0000E+00
    -34.688  0.0000E+00  0.0000E+00  0.0000E+00  0.0000E+00  0.0000E+00  0.0000E+00  0.0000E+00  0.0000E+00  0.0000E+00  0.0000E+00  0.0000E+00  0.0000E+00  0.0000E+00  0.0000E+00  0.0000E+00  0.0000E+00  0.0000E+00  0.0000E+00
    -34.532  0.0000E+00  0.0000E+00  0.0000E+00  0.0000E+00  0.0000E+00  0.0000E+00  0.0000E+00  0.0000E+00  0.0000E+00  0.0000E+00  0.0000E+00  0.0000E+00  0.0000E+00  0.0000E+00  0.0000E+00  0.0000E+00  0.0000E+00  0.0000E+00
    -34.375  0.0000E+00  0.0000E+00  0.0000E+00  0.0000E+00  0.0000E+00  0.0000E+00  0.0000E+00  0.0000E+00  0.0000E+00  0.0000E+00  0.0000E+00  0.0000E+00  0.0000E+00  0.0000E+00  0.0000E+00  0.0000E+00  0.0000E+00  0.0000E+00
    -34.219  0.0000E+00  0.0000E+00  0.0000E+00  0.0000E+00  0.0000E+00  0.0000E+00  0.0000E+00  0.0000E+00  0.0000E+00  0.0000E+00  0.0000E+00  0.0000E+00  0.0000E+00  0.0000E+00  0.0000E+00  0.0000E+00  0.0000E+00  0.0000E+00
    -34.062  0.0000E+00  0.0000E+00  0.0000E+00  0.0000E+00  0.0000E+00  0.0000E+00  0.0000E+00  0.0000E+00  0.0000E+00  0.0000E+00  0.0000E+00  0.0000E+00  0.0000E+00  0.0000E+00  0.0000E+00  0.0000E+00  0.0000E+00  0.0000E+00
    -33.906  0.0000E+00  0.0000E+00  0.0000E+00  0.0000E+00  0.0000E+00  0.0000E+00  0.0000E+00  0.0000E+00  0.0000E+00  0.0000E+00  0.0000E+00  0.0000E+00  0.0000E+00  0.0000E+00  0.0000E+00  0.0000E+00  0.0000E+00  0.0000E+00
    -33.750  0.0000E+00  0.0000E+00  0.0000E+00  0.0000E+00  0.0000E+00  0.0000E+00  0.0000E+00  0.0000E+00  0.0000E+00  0.0000E+00  0.0000E+00  0.0000E+00  0.0000E+00  0.0000E+00  0.0000E+00  0.0000E+00  0.0000E+00  0.0000E+00
    -33.593  0.0000E+00  0.0000E+00  0.0000E+00  0.0000E+00  0.0000E+00  0.0000E+00  0.0000E+00  0.0000E+00  0.0000E+00  0.0000E+00  0.0000E+00  0.0000E+00  0.0000E+00  0.0000E+00  0.0000E+00  0.0000E+00  0.0000E+00  0.0000E+00
    -33.437  0.0000E+00  0.0000E+00  0.0000E+00  0.0000E+00  0.0000E+00  0.0000E+00  0.0000E+00  0.0000E+00  0.0000E+00  0.0000E+00  0.0000E+00  0.0000E+00  0.0000E+00  0.0000E+00  0.0000E+00  0.0000E+00  0.0000E+00  0.0000E+00
    -33.280  0.0000E+00  0.0000E+00  0.0000E+00  0.0000E+00  0.0000E+00  0.0000E+00  0.0000E+00  0.0000E+00  0.0000E+00  0.0000E+00  0.0000E+00  0.0000E+00  0.0000E+00  0.0000E+00  0.0000E+00  0.0000E+00  0.0000E+00  0.0000E+00
    -33.124  0.0000E+00  0.0000E+00  0.0000E+00  0.0000E+00  0.0000E+00  0.0000E+00  0.0000E+00  0.0000E+00  0.0000E+00  0.0000E+00  0.0000E+00  0.0000E+00  0.0000E+00  0.0000E+00  0.0000E+00  0.0000E+00  0.0000E+00  0.0000E+00
    -32.968  0.1222E-03  0.9163E-04  0.2541E-07  0.1454E-07  0.1466E-06  0.1357E-06  0.4824E-07  0.3098E-07  0.3798E-08  0.2055E-08  0.1664E-07  0.8988E-08  0.1792E-07  0.1618E-07  0.2427E-07  0.1435E-07  0.6069E-08  0.3519E-08
    -32.811  0.0000E+00  0.0000E+00  0.0000E+00  0.0000E+00  0.0000E+00  0.0000E+00  0.0000E+00  0.0000E+00  0.0000E+00  0.0000E+00  0.0000E+00  0.0000E+00  0.0000E+00  0.0000E+00  0.0000E+00  0.0000E+00  0.0000E+00  0.0000E+00
    -32.655  0.9887E+01  0.0000E+00  0.4727E-04  0.0000E+00  0.1756E-03  0.0000E+00  0.7551E-04  0.0000E+00  0.5967E-05  0.0000E+00  0.5447E-06  0.0000E+00  0.2619E-04  0.0000E+00  0.7124E-05  0.0000E+00  0.2214E-04  0.0000E+00
    -32.498  0.0000E+00  0.0000E+00  0.0000E+00  0.0000E+00  0.0000E+00  0.0000E+00  0.0000E+00  0.0000E+00  0.0000E+00  0.0000E+00  0.0000E+00  0.0000E+00  0.0000E+00  0.0000E+00  0.0000E+00  0.0000E+00  0.0000E+00  0.0000E+00
    -32.342  0.0000E+00  0.0000E+00  0.0000E+00  0.0000E+00  0.0000E+00  0.0000E+00  0.0000E+00  0.0000E+00  0.0000E+00  0.0000E+00  0.0000E+00  0.0000E+00  0.0000E+00  0.0000E+00  0.0000E+00  0.0000E+00  0.0000E+00  0.0000E+00
    -32.186  0.0000E+00  0.0000E+00  0.0000E+00  0.0000E+00  0.0000E+00  0.0000E+00  0.0000E+00  0.0000E+00  0.0000E+00  0.0000E+00  0.0000E+00  0.0000E+00  0.0000E+00  0.0000E+00  0.0000E+00  0.0000E+00  0.0000E+00  0.0000E+00
    -32.029  0.0000E+00  0.0000E+00  0.0000E+00  0.0000E+00  0.0000E+00  0.0000E+00  0.0000E+00  0.0000E+00  0.0000E+00  0.0000E+00  0.0000E+00  0.0000E+00  0.0000E+00  0.0000E+00  0.0000E+00  0.0000E+00  0.0000E+00  0.0000E+00
    -31.873  0.0000E+00  0.0000E+00  0.0000E+00  0.0000E+00  0.0000E+00  0.0000E+00  0.0000E+00  0.0000E+00  0.0000E+00  0.0000E+00  0.0000E+00  0.0000E+00  0.0000E+00  0.0000E+00  0.0000E+00  0.0000E+00  0.0000E+00  0.0000E+00
    -31.716  0.0000E+00  0.0000E+00  0.0000E+00  0.0000E+00  0.0000E+00  0.0000E+00  0.0000E+00  0.0000E+00  0.0000E+00  0.0000E+00  0.0000E+00  0.0000E+00  0.0000E+00  0.0000E+00  0.0000E+00  0.0000E+00  0.0000E+00  0.0000E+00
    -31.560  0.0000E+00  0.0000E+00  0.0000E+00  0.0000E+00  0.0000E+00  0.0000E+00  0.0000E+00  0.0000E+00  0.0000E+00  0.0000E+00  0.0000E+00  0.0000E+00  0.0000E+00  0.0000E+00  0.0000E+00  0.0000E+00  0.0000E+00  0.0000E+00
    -31.404  0.0000E+00  0.0000E+00  0.0000E+00  0.0000E+00  0.0000E+00  0.0000E+00  0.0000E+00  0.0000E+00  0.0000E+00  0.0000E+00  0.0000E+00  0.0000E+00  0.0000E+00  0.0000E+00  0.0000E+00  0.0000E+00  0.0000E+00  0.0000E+00
    -31.247  0.0000E+00  0.0000E+00  0.0000E+00  0.0000E+00  0.0000E+00  0.0000E+00  0.0000E+00  0.0000E+00  0.0000E+00  0.0000E+00  0.0000E+00  0.0000E+00  0.0000E+00  0.0000E+00  0.0000E+00  0.0000E+00  0.0000E+00  0.0000E+00
    -31.091  0.0000E+00  0.0000E+00  0.0000E+00  0.0000E+00  0.0000E+00  0.0000E+00  0.0000E+00  0.0000E+00  0.0000E+00  0.0000E+00  0.0000E+00  0.0000E+00  0.0000E+00  0.0000E+00  0.0000E+00  0.0000E+00  0.0000E+00  0.0000E+00
    -30.935  0.0000E+00  0.0000E+00  0.0000E+00  0.0000E+00  0.0000E+00  0.0000E+00  0.0000E+00  0.0000E+00  0.0000E+00  0.0000E+00  0.0000E+00  0.0000E+00  0.0000E+00  0.0000E+00  0.0000E+00  0.0000E+00  0.0000E+00  0.0000E+00
    -30.778  0.0000E+00  0.0000E+00  0.0000E+00  0.0000E+00  0.0000E+00  0.0000E+00  0.0000E+00  0.0000E+00  0.0000E+00  0.0000E+00  0.0000E+00  0.0000E+00  0.0000E+00  0.0000E+00  0.0000E+00  0.0000E+00  0.0000E+00  0.0000E+00
    -30.622  0.0000E+00  0.0000E+00  0.0000E+00  0.0000E+00  0.0000E+00  0.0000E+00  0.0000E+00  0.0000E+00  0.0000E+00  0.0000E+00  0.0000E+00  0.0000E+00  0.0000E+00  0.0000E+00  0.0000E+00  0.0000E+00  0.0000E+00  0.0000E+00
    -30.465  0.0000E+00  0.0000E+00  0.0000E+00  0.0000E+00  0.0000E+00  0.0000E+00  0.0000E+00  0.0000E+00  0.0000E+00  0.0000E+00  0.0000E+00  0.0000E+00  0.0000E+00  0.0000E+00  0.0000E+00  0.0000E+00  0.0000E+00  0.0000E+00
    -30.309  0.0000E+00  0.0000E+00  0.0000E+00  0.0000E+00  0.0000E+00  0.0000E+00  0.0000E+00  0.0000E+00  0.0000E+00  0.0000E+00  0.0000E+00  0.0000E+00  0.0000E+00  0.0000E+00  0.0000E+00  0.0000E+00  0.0000E+00  0.0000E+00
    -30.153  0.0000E+00  0.0000E+00  0.0000E+00  0.0000E+00  0.0000E+00  0.0000E+00  0.0000E+00  0.0000E+00  0.0000E+00  0.0000E+00  0.0000E+00  0.0000E+00  0.0000E+00  0.0000E+00  0.0000E+00  0.0000E+00  0.0000E+00  0.0000E+00
    -29.996  0.0000E+00  0.0000E+00  0.0000E+00  0.0000E+00  0.0000E+00  0.0000E+00  0.0000E+00  0.0000E+00  0.0000E+00  0.0000E+00  0.0000E+00  0.0000E+00  0.0000E+00  0.0000E+00  0.0000E+00  0.0000E+00  0.0000E+00  0.0000E+00
    -29.840  0.0000E+00  0.0000E+00  0.0000E+00  0.0000E+00  0.0000E+00  0.0000E+00  0.0000E+00  0.0000E+00  0.0000E+00  0.0000E+00  0.0000E+00  0.0000E+00  0.0000E+00  0.0000E+00  0.0000E+00  0.0000E+00  0.0000E+00  0.0000E+00
    -29.683  0.0000E+00  0.0000E+00  0.0000E+00  0.0000E+00  0.0000E+00  0.0000E+00  0.0000E+00  0.0000E+00  0.0000E+00  0.0000E+00  0.0000E+00  0.0000E+00  0.0000E+00  0.0000E+00  0.0000E+00  0.0000E+00  0.0000E+00  0.0000E+00
    -29.527  0.0000E+00  0.0000E+00  0.0000E+00  0.0000E+00  0.0000E+00  0.0000E+00  0.0000E+00  0.0000E+00  0.0000E+00  0.0000E+00  0.0000E+00  0.0000E+00  0.0000E+00  0.0000E+00  0.0000E+00  0.0000E+00  0.0000E+00  0.0000E+00
    -29.371  0.0000E+00  0.0000E+00  0.0000E+00  0.0000E+00  0.0000E+00  0.0000E+00  0.0000E+00  0.0000E+00  0.0000E+00  0.0000E+00  0.0000E+00  0.0000E+00  0.0000E+00  0.0000E+00  0.0000E+00  0.0000E+00  0.0000E+00  0.0000E+00
    -29.214  0.0000E+00  0.0000E+00  0.0000E+00  0.0000E+00  0.0000E+00  0.0000E+00  0.0000E+00  0.0000E+00  0.0000E+00  0.0000E+00  0.0000E+00  0.0000E+00  0.0000E+00  0.0000E+00  0.0000E+00  0.0000E+00  0.0000E+00  0.0000E+00
    -29.058  0.0000E+00  0.0000E+00  0.0000E+00  0.0000E+00  0.0000E+00  0.0000E+00  0.0000E+00  0.0000E+00  0.0000E+00  0.0000E+00  0.0000E+00  0.0000E+00  0.0000E+00  0.0000E+00  0.0000E+00  0.0000E+00  0.0000E+00  0.0000E+00
    -28.901  0.0000E+00  0.0000E+00  0.0000E+00  0.0000E+00  0.0000E+00  0.0000E+00  0.0000E+00  0.0000E+00  0.0000E+00  0.0000E+00  0.0000E+00  0.0000E+00  0.0000E+00  0.0000E+00  0.0000E+00  0.0000E+00  0.0000E+00  0.0000E+00
    -28.745  0.0000E+00  0.0000E+00  0.0000E+00  0.0000E+00  0.0000E+00  0.0000E+00  0.0000E+00  0.0000E+00  0.0000E+00  0.0000E+00  0.0000E+00  0.0000E+00  0.0000E+00  0.0000E+00  0.0000E+00  0.0000E+00  0.0000E+00  0.0000E+00
    -28.589  0.0000E+00  0.0000E+00  0.0000E+00  0.0000E+00  0.0000E+00  0.0000E+00  0.0000E+00  0.0000E+00  0.0000E+00  0.0000E+00  0.0000E+00  0.0000E+00  0.0000E+00  0.0000E+00  0.0000E+00  0.0000E+00  0.0000E+00  0.0000E+00
    -28.432  0.0000E+00  0.1980E-03  0.0000E+00  0.2577E-05  0.0000E+00  0.5689E-04  0.0000E+00  0.5860E-05  0.0000E+00  0.2230E-06  0.0000E+00  0.1810E-05  0.0000E+00  0.9952E-05  0.0000E+00  0.3520E-05  0.0000E+00  0.2209E-06
    -28.276  0.0000E+00  0.0000E+00  0.0000E+00  0.0000E+00  0.0000E+00  0.0000E+00  0.0000E+00  0.0000E+00  0.0000E+00  0.0000E+00  0.0000E+00  0.0000E+00  0.0000E+00  0.0000E+00  0.0000E+00  0.0000E+00  0.0000E+00  0.0000E+00
    -28.119  0.0000E+00  0.0000E+00  0.0000E+00  0.0000E+00  0.0000E+00  0.0000E+00  0.0000E+00  0.0000E+00  0.0000E+00  0.0000E+00  0.0000E+00  0.0000E+00  0.0000E+00  0.0000E+00  0.0000E+00  0.0000E+00  0.0000E+00  0.0000E+00
    -27.963  0.0000E+00  0.0000E+00  0.0000E+00  0.0000E+00  0.0000E+00  0.0000E+00  0.0000E+00  0.0000E+00  0.0000E+00  0.0000E+00  0.0000E+00  0.0000E+00  0.0000E+00  0.0000E+00  0.0000E+00  0.0000E+00  0.0000E+00  0.0000E+00
    -27.807  0.0000E+00  0.0000E+00  0.0000E+00  0.0000E+00  0.0000E+00  0.0000E+00  0.0000E+00  0.0000E+00  0.0000E+00  0.0000E+00  0.0000E+00  0.0000E+00  0.0000E+00  0.0000E+00  0.0000E+00  0.0000E+00  0.0000E+00  0.0000E+00
    -27.650  0.0000E+00  0.0000E+00  0.0000E+00  0.0000E+00  0.0000E+00  0.0000E+00  0.0000E+00  0.0000E+00  0.0000E+00  0.0000E+00  0.0000E+00  0.0000E+00  0.0000E+00  0.0000E+00  0.0000E+00  0.0000E+00  0.0000E+00  0.0000E+00
    -27.494  0.0000E+00  0.0000E+00  0.0000E+00  0.0000E+00  0.0000E+00  0.0000E+00  0.0000E+00  0.0000E+00  0.0000E+00  0.0000E+00  0.0000E+00  0.0000E+00  0.0000E+00  0.0000E+00  0.0000E+00  0.0000E+00  0.0000E+00  0.0000E+00
    -27.337  0.0000E+00  0.0000E+00  0.0000E+00  0.0000E+00  0.0000E+00  0.0000E+00  0.0000E+00  0.0000E+00  0.0000E+00  0.0000E+00  0.0000E+00  0.0000E+00  0.0000E+00  0.0000E+00  0.0000E+00  0.0000E+00  0.0000E+00  0.0000E+00