   8   8   1   0
  0.9150315E+01  0.3340856E-09  0.3940684E-09  0.6896336E-09  0.5000000E-15
  1.000000000000000E-004
  CAR 
 unknown system                          
     21.18802982    -35.52301328  301      2.33538626      1.00000000
    -35.523  0.0000E+00  0.0000E+00  0.0000E+00  0.0000E+00
    -35.334  0.0000E+00  0.0000E+00  0.0000E+00  0.0000E+00
    -35.145  0.0000E+00  0.0000E+00  0.0000E+00  0.0000E+00
    -34.956  0.0000E+00  0.0000E+00  0.0000E+00  0.0000E+00
    -34.767  0.0000E+00  0.0000E+00  0.0000E+00  0.0000E+00
    -34.578  0.0000E+00  0.0000E+00  0.0000E+00  0.0000E+00
    -34.389  0.0000E+00  0.0000E+00  0.0000E+00  0.0000E+00
    -34.200  0.0000E+00  0.0000E+00  0.0000E+00  0.0000E+00
    -34.011  0.0000E+00  0.0000E+00  0.0000E+00  0.0000E+00
    -33.822  0.0000E+00  0.0000E+00  0.0000E+00  0.0000E+00
    -33.633  0.0000E+00  0.0000E+00  0.0000E+00  0.0000E+00
    -33.444  0.0000E+00  0.0000E+00  0.0000E+00  0.0000E+00
    -33.255  0.0000E+00  0.0000E+00  0.0000E+00  0.0000E+00
    -33.066  0.0000E+00  0.0000E+00  0.0000E+00  0.0000E+00
    -32.876  0.7515E-01  0.7515E-01  0.6315E-02  0.6315E-02
    -32.687  0.0000E+00  0.0000E+00  0.1010E-01  0.1010E-01
    -32.498  0.0000E+00  0.0000E+00  0.1010E-01  0.1010E-01
    -32.309  0.0000E+00  0.0000E+00  0.1010E-01  0.1010E-01
    -32.120  0.0000E+00  0.0000E+00  0.1010E-01  0.1010E-01
    -31.931  0.0000E+00  0.0000E+00  0.1010E-01  0.1010E-01
    -31.742  0.0000E+00  0.0000E+00  0.1010E-01  0.1010E-01
    -31.553  0.0000E+00  0.0000E+00  0.1010E-01  0.1010E-01
    -31.364  0.0000E+00  0.0000E+00  0.1010E-01  0.1010E-01
    -31.175  0.0000E+00  0.0000E+00  0.1010E-01  0.1010E-01
    -30.986  0.0000E+00  0.0000E+00  0.1010E-01  0.1010E-01
    -30.797  0.0000E+00  0.0000E+00  0.1010E-01  0.1010E-01
    -30.608  0.0000E+00  0.0000E+00  0.1010E-01  0.1010E-01
    -30.419  0.0000E+00  0.0000E+00  0.1010E-01  0.1010E-01
    -30.230  0.0000E+00  0.0000E+00  0.1010E-01  0.1010E-01
    -30.041  0.0000E+00  0.0000E+00  0.1010E-01  0.1010E-01
    -29.852  0.0000E+00  0.0000E+00  0.1010E-01  0.1010E-01
    -29.663  0.0000E+00  0.0000E+00  0.1010E-01  0.1010E-01
    -29.474  0.0000E+00  0.0000E+00  0.1010E-01  0.1010E-01
    -29.285  0.0000E+00  0.0000E+00  0.1010E-01  0.1010E-01
    -29.096  0.0000E+00  0.0000E+00  0.1010E-01  0.1010E-01
    -28.907  0.6800E-01  0.6800E-01  0.1200E-01  0.1200E-01
    -28.718  0.1245E+00  0.1245E+00  0.3737E-01  0.3737E-01
    -28.529  0.0000E+00  0.0000E+00  0.4040E-01  0.4040E-01
    -28.340  0.0000E+00  0.0000E+00  0.4040E-01  0.4040E-01
    -28.151  0.0000E+00  0.0000E+00  0.4040E-01  0.4040E-01
    -27.962  0.0000E+00  0.0000E+00  0.4040E-01  0.4040E-01
    -27.773  0.0000E+00  0.0000E+00  0.4040E-01  0.4040E-01
    -27.583  0.0000E+00  0.0000E+00  0.4040E-01  0.4040E-01
    -27.394  0.0000E+00  0.0000E+00  0.4040E-01  0.4040E-01
    -27.205  0.0000E+00  0.0000E+00  0.4040E-01  0.4040E-01
    -27.016  0.0000E+00  0.0000E+00  0.4040E-01  0.4040E-01
    -26.827  0.0000E+00  0.0000E+00  0.4040E-01  0.4040E-01
    -26.638  0.0000E+00  0.0000E+00  0.4040E-01  0.4040E-01
    -26.449  0.0000E+00  0.0000E+00  0.4040E-01  0.4040E-01
    -26.260  0.0000E+00  0.0000E+00  0.4040E-01  0.4040E-01
    -26.071  0.0000E+00  0.0000E+00  0.4040E-01  0.4040E-01
    -25.882  0.0000E+00  0.0000E+00  0.4040E-01  0.4040E-01
    -25.693  0.0000E+00  0.0000E+00  0.4040E-01  0.4040E-01
    -25.504  0.0000E+00  0.0000E+00  0.4040E-01  0.4040E-01
    -25.315  0.0000E+00  0.0000E+00  0.4040E-01  0.4040E-01
    -25.126  0.0000E+00  0.0000E+00  0.4040E-01  0.4040E-01
    -24.937  0.0000E+00  0.0000E+00  0.4040E-01  0.4040E-01
    -24.748  0.0000E+00  0.0000E+00  0.4040E-01  0.4040E-01
    -24.559  0.0000E+00  0.0000E+00  0.4040E-01  0.4040E-01
    -24.370  0.0000E+00  0.0000E+00  0.4040E-01  0.4040E-01
    -24.181  0.0000E+00  0.0000E+00  0.4040E-01  0.4040E-01
    -23.992  0.0000E+00  0.0000E+00  0.4040E-01  0.4040E-01
    -23.803  0.0000E+00  0.0000E+00  0.4040E-01  0.4040E-01
    -23.614  0.0000E+00  0.0000E+00  0.4040E-01  0.4040E-01
    -23.425  0.0000E+00  0.0000E+00  0.4040E-01  0.4040E-01
    -23.236  0.0000E+00  0.0000E+00  0.4040E-01  0.4040E-01
    -23.047  0.0000E+00  0.0000E+00  0.4040E-01  0.4040E-01
    -22.858  0.0000E+00  0.0000E+00  0.4040E-01  0.4040E-01
    -22.669  0.0000E+00  0.0000E+00  0.4040E-01  0.4040E-01
    -22.479  0.0000E+00  0.0000E+00  0.4040E-01  0.4040E-01
    -22.290  0.0000E+00  0.0000E+00  0.4040E-01  0.4040E-01
    -22.101  0.0000E+00  0.0000E+00  0.4040E-01  0.4040E-01
    -21.912  0.0000E+00  0.0000E+00  0.4040E-01  0.4040E-01
    -21.723  0.0000E+00  0.0000E+00  0.4040E-01  0.4040E-01
    -21.534  0.0000E+00  0.0000E+00  0.4040E-01  0.4040E-01
    -21.345  0.0000E+00  0.0000E+00  0.4040E-01  0.4040E-01
    -21.156  0.0000E+00  0.0000E+00  0.4040E-01  0.4040E-01
    -20.967  0.0000E+00  0.0000E+00  0.4040E-01  0.4040E-01
    -20.778  0.0000E+00  0.0000E+00  0.4040E-01  0.4040E-01
    -20.589  0.0000E+00  0.0000E+00  0.4040E-01  0.4040E-01
    -20.400  0.0000E+00  0.0000E+00  0.4040E-01  0.4040E-01
    -20.211  0.0000E+00  0.0000E+00  0.4040E-01  0.4040E-01
    -20.022  0.0000E+00  0.0000E+00  0.4040E-01  0.4040E-01
    -19.833  0.0000E+00  0.0000E+00  0.4040E-01  0.4040E-01
    -19.644  0.0000E+00  0.0000E+00  0.4040E-01  0.4040E-01
    -19.455  0.0000E+00  0.0000E+00  0.4040E-01  0.4040E-01
    -19.266  0.0000E+00  0.0000E+00  0.4040E-01  0.4040E-01
    -19.077  0.0000E+00  0.0000E+00  0.4040E-01  0.4040E-01
    -18.888  0.0000E+00  0.0000E+00  0.4040E-01  0.4040E-01
    -18.699  0.0000E+00  0.0000E+00  0.4040E-01  0.4040E-01
    -18.510  0.0000E+00  0.0000E+00  0.4040E-01  0.4040E-01
    -18.321  0.0000E+00  0.0000E+00  0.4040E-01  0.4040E-01
    -18.132  0.0000E+00  0.0000E+00  0.4040E-01  0.4040E-01
    -17.943  0.0000E+00  0.0000E+00  0.4040E-01  0.4040E-01
    -17.754  0.0000E+00  0.0000E+00  0.4040E-01  0.4040E-01
    -17.565  0.0000E+00  0.0000E+00  0.4040E-01  0.4040E-01
    -17.375  0.0000E+00  0.0000E+00  0.4040E-01  0.4040E-01
    -17.186  0.0000E+00  0.0000E+00  0.4040E-01  0.4040E-01
    -16.997  0.0000E+00  0.0000E+00  0.4040E-01  0.4040E-01
    -16.808  0.0000E+00  0.0000E+00  0.4040E-01  0.4040E-01
    -16.619  0.0000E+00  0.0000E+00  0.4040E-01  0.4040E-01
    -16.430  0.0000E+00  0.0000E+00  0.4040E-01  0.4040E-01
    -16.241  0.0000E+00  0.0000E+00  0.4040E-01  0.4040E-01
    -16.052  0.0000E+00  0.0000E+00  0.4040E-01  0.4040E-01
    -15.863  0.0000E+00  0.0000E+00  0.4040E-01  0.4040E-01
    -15.674  0.0000E+00  0.0000E+00  0.4040E-01  0.4040E-01
    -15.485  0.1920E-01  0.1920E-01  0.4252E-01  0.4252E-01
    -15.296  0.7761E-02  0.7761E-02  0.4423E-01  0.4423E-01
    -15.107  0.4537E-01  0.4536E-01  0.4727E-01  0.4727E-01
    -14.918  0.4406E-01  0.4406E-01  0.5850E-01  0.5850E-01
    -14.729  0.1656E-01  0.1656E-01  0.6917E-01  0.6917E-01
    -14.540  0.0000E+00  0.0000E+00  0.7071E-01  0.7071E-01
    -14.351  0.0000E+00  0.0000E+00  0.7071E-01  0.7071E-01
    -14.162  0.0000E+00  0.0000E+00  0.7071E-01  0.7071E-01
    -13.973  0.0000E+00  0.0000E+00  0.7071E-01  0.7071E-01
    -13.784  0.0000E+00  0.0000E+00  0.7071E-01  0.7071E-01
    -13.595  0.0000E+00  0.0000E+00  0.7071E-01  0.7071E-01
    -13.406  0.0000E+00  0.0000E+00  0.7071E-01  0.7071E-01
    -13.217  0.0000E+00  0.0000E+00  0.7071E-01  0.7071E-01
    -13.028  0.0000E+00  0.0000E+00  0.7071E-01  0.7071E-01
    -12.839  0.0000E+00  0.0000E+00  0.7071E-01  0.7071E-01
    -12.650  0.0000E+00  0.0000E+00  0.7071E-01  0.7071E-01
    -12.461  0.0000E+00  0.0000E+00  0.7071E-01  0.7071E-01
    -12.271  0.0000E+00  0.0000E+00  0.7071E-01  0.7071E-01
    -12.082  0.0000E+00  0.0000E+00  0.7071E-01  0.7071E-01
    -11.893  0.0000E+00  0.0000E+00  0.7071E-01  0.7071E-01
    -11.704  0.0000E+00  0.0000E+00  0.7071E-01  0.7071E-01
    -11.515  0.0000E+00  0.0000E+00  0.7071E-01  0.7071E-01
    -11.326  0.0000E+00  0.0000E+00  0.7071E-01  0.7071E-01
    -11.137  0.0000E+00  0.0000E+00  0.7071E-01  0.7071E-01
    -10.948  0.0000E+00  0.0000E+00  0.7071E-01  0.7071E-01
    -10.759  0.0000E+00  0.0000E+00  0.7071E-01  0.7071E-01
    -10.570  0.0000E+00  0.0000E+00  0.7071E-01  0.7071E-01
    -10.381  0.0000E+00  0.0000E+00  0.7071E-01  0.7071E-01
    -10.192  0.0000E+00  0.0000E+00  0.7071E-01  0.7071E-01
    -10.003  0.0000E+00  0.0000E+00  0.7071E-01  0.7071E-01
     -9.814  0.0000E+00  0.0000E+00  0.7071E-01  0.7071E-01
     -9.625  0.0000E+00  0.0000E+00  0.7071E-01  0.7071E-01
     -9.436  0.0000E+00  0.0000E+00  0.7071E-01  0.7071E-01
     -9.247  0.0000E+00  0.0000E+00  0.7071E-01  0.7071E-01
     -9.058  0.0000E+00  0.0000E+00  0.7071E-01  0.7071E-01
     -8.869  0.0000E+00  0.0000E+00  0.7071E-01  0.7071E-01
     -8.680  0.0000E+00  0.0000E+00  0.7071E-01  0.7071E-01
     -8.491  0.0000E+00  0.0000E+00  0.7071E-01  0.7071E-01
     -8.302  0.0000E+00  0.0000E+00  0.7071E-01  0.7071E-01
     -8.113  0.0000E+00  0.0000E+00  0.7071E-01  0.7071E-01
     -7.924  0.0000E+00  0.0000E+00  0.7071E-01  0.7071E-01
     -7.735  0.0000E+00  0.0000E+00  0.7071E-01  0.7071E-01
     -7.546  0.0000E+00  0.0000E+00  0.7071E-01  0.7071E-01
     -7.357  0.0000E+00  0.0000E+00  0.7071E-01  0.7071E-01
     -7.167  0.0000E+00  0.0000E+00  0.7071E-01  0.7071E-01
     -6.978  0.0000E+00  0.0000E+00  0.7071E-01  0.7071E-01
     -6.789  0.0000E+00  0.0000E+00  0.7071E-01  0.7071E-01
     -6.600  0.0000E+00  0.0000E+00  0.7071E-01  0.7071E-01
     -6.411  0.0000E+00  0.0000E+00  0.7071E-01  0.7071E-01
     -6.222  0.0000E+00  0.0000E+00  0.7071E-01  0.7071E-01
     -6.033  0.1744E-05  0.1744E-05  0.7071E-01  0.7071E-01
     -5.844  0.3885E-03  0.3885E-03  0.7073E-01  0.7073E-01
     -5.655  0.1471E-02  0.1471E-02  0.7090E-01  0.7090E-01
     -5.466  0.2184E-02  0.2184E-02  0.7124E-01  0.7124E-01
     -5.277  0.2826E-02  0.2826E-02  0.7172E-01  0.7172E-01
     -5.088  0.3090E-02  0.3090E-02  0.7229E-01  0.7229E-01
     -4.899  0.3359E-02  0.3359E-02  0.7289E-01  0.7289E-01
     -4.710  0.3823E-02  0.3823E-02  0.7357E-01  0.7357E-01
     -4.521  0.4363E-02  0.4363E-02  0.7434E-01  0.7434E-01
     -4.332  0.4517E-02  0.4517E-02  0.7520E-01  0.7520E-01
     -4.143  0.3819E-02  0.3819E-02  0.7599E-01  0.7599E-01
     -3.954  0.4144E-02  0.4144E-02  0.7671E-01  0.7671E-01
     -3.765  0.4790E-02  0.4790E-02  0.7757E-01  0.7757E-01
     -3.576  0.4328E-02  0.4328E-02  0.7847E-01  0.7847E-01
     -3.387  0.3449E-02  0.3449E-02  0.7917E-01  0.7917E-01
     -3.198  0.6815E-02  0.6815E-02  0.8005E-01  0.8005E-01
     -3.009  0.1168E-01  0.1168E-01  0.8189E-01  0.8189E-01
     -2.820  0.1084E-01  0.1084E-01  0.8408E-01  0.8408E-01
     -2.631  0.1213E-01  0.1213E-01  0.8631E-01  0.8631E-01
     -2.442  0.1472E-01  0.1472E-01  0.8891E-01  0.8891E-01
     -2.253  0.1795E-01  0.1795E-01  0.9177E-01  0.9177E-01
     -2.063  0.1594E-01  0.1594E-01  0.9449E-01  0.9449E-01
     -1.874  0.2445E-01  0.2445E-01  0.9841E-01  0.9841E-01
     -1.685  0.5623E-02  0.5623E-02  0.1013E+00  0.1013E+00
     -1.496  0.2696E-01  0.2696E-01  0.1040E+00  0.1040E+00
     -1.307  0.2298E-01  0.2298E-01  0.1097E+00  0.1097E+00
     -1.118  0.6576E-03  0.6576E-03  0.1112E+00  0.1112E+00
     -0.929  0.1850E-01  0.1850E-01  0.1129E+00  0.1129E+00
     -0.740  0.1310E-01  0.1310E-01  0.1159E+00  0.1159E+00
     -0.551  0.1006E-01  0.1006E-01  0.1180E+00  0.1180E+00
     -0.362  0.8811E-02  0.8811E-02  0.1197E+00  0.1197E+00
     -0.173  0.9053E-02  0.9053E-02  0.1214E+00  0.1214E+00
      0.016  0.1078E-01  0.1078E-01  0.1235E+00  0.1235E+00
      0.205  0.1158E-01  0.1158E-01  0.1255E+00  0.1255E+00
      0.394  0.3053E-02  0.3053E-02  0.1272E+00  0.1272E+00
      0.583  0.2992E-02  0.2992E-02  0.1278E+00  0.1278E+00
      0.772  0.2982E-02  0.2982E-02  0.1283E+00  0.1283E+00
      0.961  0.2817E-02  0.2817E-02  0.1289E+00  0.1289E+00
      1.150  0.2865E-02  0.2865E-02  0.1294E+00  0.1294E+00
      1.339  0.8384E-02  0.8384E-02  0.1303E+00  0.1303E+00
      1.528  0.1115E-01  0.1115E-01  0.1322E+00  0.1322E+00
      1.717  0.5997E-02  0.5997E-02  0.1338E+00  0.1338E+00
      1.906  0.4411E-02  0.4411E-02  0.1347E+00  0.1347E+00
      2.095  0.3750E-02  0.3750E-02  0.1355E+00  0.1355E+00
      2.284  0.3479E-02  0.3479E-02  0.1362E+00  0.1362E+00
      2.473  0.3036E-02  0.3036E-02  0.1368E+00  0.1368E+00
      2.662  0.3034E-02  0.3034E-02  0.1374E+00  0.1374E+00
      2.851  0.3034E-02  0.3034E-02  0.1379E+00  0.1379E+00
      3.040  0.3799E-02  0.3799E-02  0.1385E+00  0.1385E+00
      3.230  0.1098E-01  0.1098E-01  0.1409E+00  0.1409E+00
      3.419  0.7186E-02  0.7186E-02  0.1417E+00  0.1417E+00
      3.608  0.9862E-02  0.9862E-02  0.1433E+00  0.1433E+00
      3.797  0.1885E-01  0.1885E-01  0.1460E+00  0.1460E+00
      3.986  0.1288E-01  0.1288E-01  0.1488E+00  0.1488E+00
      4.175  0.1160E-01  0.1160E-01  0.1511E+00  0.1511E+00
      4.364  0.8574E-02  0.8574E-02  0.1530E+00  0.1530E+00
      4.553  0.6703E-02  0.6703E-02  0.1544E+00  0.1544E+00
      4.742  0.5986E-02  0.5986E-02  0.1556E+00  0.1556E+00
      4.931  0.1415E-01  0.1415E-01  0.1573E+00  0.1573E+00
      5.120  0.1556E-01  0.1556E-01  0.1602E+00  0.1602E+00
      5.309  0.1565E-01  0.1565E-01  0.1633E+00  0.1633E+00
      5.498  0.1518E-01  0.1518E-01  0.1665E+00  0.1665E+00
      5.687  0.9261E-02  0.9261E-02  0.1687E+00  0.1687E+00
      5.876  0.1221E-01  0.1221E-01  0.1704E+00  0.1704E+00
      6.065  0.9398E-02  0.9398E-02  0.1724E+00  0.1724E+00
      6.254  0.2298E-01  0.2298E-01  0.1754E+00  0.1754E+00
      6.443  0.1122E-01  0.1122E-01  0.1790E+00  0.1790E+00
      6.632  0.8693E-02  0.8693E-02  0.1808E+00  0.1808E+00
      6.821  0.9543E-03  0.9543E-03  0.1819E+00  0.1819E+00
      7.010  0.9544E-02  0.9544E-02  0.1826E+00  0.1826E+00
      7.199  0.2355E-01  0.2355E-01  0.1857E+00  0.1857E+00
      7.388  0.1358E-01  0.1358E-01  0.1897E+00  0.1897E+00
      7.577  0.1255E-01  0.1255E-01  0.1917E+00  0.1917E+00
      7.766  0.2298E-01  0.2298E-01  0.1953E+00  0.1953E+00
      7.955  0.1523E-01  0.1523E-01  0.1994E+00  0.1994E+00
      8.144  0.1170E-01  0.1170E-01  0.2017E+00  0.2017E+00
      8.334  0.2307E-01  0.2307E-01  0.2046E+00  0.2046E+00
      8.523  0.1624E-01  0.1624E-01  0.2094E+00  0.2094E+00
      8.712  0.9698E-02  0.9698E-02  0.2117E+00  0.2117E+00
      8.901  0.2728E-01  0.2728E-01  0.2148E+00  0.2148E+00
      9.090  0.2450E-01  0.2450E-01  0.2201E+00  0.2201E+00
      9.279  0.1492E-01  0.1492E-01  0.2231E+00  0.2231E+00
      9.468  0.1809E-01  0.1809E-01  0.2266E+00  0.2266E+00
      9.657  0.1705E-01  0.1705E-01  0.2300E+00  0.2300E+00
      9.846  0.1713E-01  0.1713E-01  0.2329E+00  0.2329E+00
     10.035  0.1664E-01  0.1664E-01  0.2369E+00  0.2369E+00
     10.224  0.1535E-01  0.1535E-01  0.2399E+00  0.2399E+00
     10.413  0.6241E-02  0.6241E-02  0.2416E+00  0.2416E+00
     10.602  0.4355E-02  0.4355E-02  0.2425E+00  0.2425E+00
     10.791  0.6476E-02  0.6476E-02  0.2435E+00  0.2435E+00
     10.980  0.1315E-01  0.1315E-01  0.2454E+00  0.2454E+00
     11.169  0.1254E-01  0.1254E-01  0.2479E+00  0.2479E+00
     11.358  0.1046E-01  0.1046E-01  0.2502E+00  0.2502E+00
     11.547  0.6659E-02  0.6659E-02  0.2518E+00  0.2518E+00
     11.736  0.6962E-02  0.6962E-02  0.2530E+00  0.2530E+00
     11.925  0.1010E-01  0.1010E-01  0.2547E+00  0.2547E+00
     12.114  0.1458E-01  0.1458E-01  0.2571E+00  0.2571E+00
     12.303  0.1464E-01  0.1464E-01  0.2601E+00  0.2601E+00
     12.492  0.8543E-02  0.8543E-02  0.2622E+00  0.2622E+00
     12.681  0.1643E-01  0.1643E-01  0.2646E+00  0.2646E+00
     12.870  0.1132E-01  0.1132E-01  0.2672E+00  0.2672E+00
     13.059  0.1263E-01  0.1263E-01  0.2694E+00  0.2694E+00
     13.248  0.1167E-01  0.1167E-01  0.2718E+00  0.2718E+00
     13.438  0.8974E-02  0.8974E-02  0.2738E+00  0.2738E+00
     13.627  0.8492E-02  0.8492E-02  0.2754E+00  0.2754E+00
     13.816  0.1145E-01  0.1145E-01  0.2772E+00  0.2772E+00
     14.005  0.1183E-01  0.1183E-01  0.2795E+00  0.2795E+00
     14.194  0.9594E-02  0.9594E-02  0.2815E+00  0.2815E+00
     14.383  0.9692E-02  0.9692E-02  0.2833E+00  0.2833E+00
     14.572  0.1065E-01  0.1065E-01  0.2853E+00  0.2853E+00
     14.761  0.9079E-02  0.9079E-02  0.2872E+00  0.2872E+00
     14.950  0.1132E-01  0.1132E-01  0.2890E+00  0.2890E+00
     15.139  0.1056E-01  0.1056E-01  0.2911E+00  0.2911E+00
     15.328  0.9653E-02  0.9653E-02  0.2930E+00  0.2930E+00
     15.517  0.1098E-01  0.1098E-01  0.2949E+00  0.2949E+00
     15.706  0.1158E-01  0.1158E-01  0.2970E+00  0.2970E+00
     15.895  0.1248E-01  0.1248E-01  0.2994E+00  0.2994E+00
     16.084  0.1081E-01  0.1081E-01  0.3016E+00  0.3016E+00
     16.273  0.9793E-02  0.9793E-02  0.3035E+00  0.3035E+00
     16.462  0.1099E-01  0.1099E-01  0.3055E+00  0.3055E+00
     16.651  0.1037E-01  0.1037E-01  0.3075E+00  0.3075E+00
     16.840  0.1024E-01  0.1023E-01  0.3094E+00  0.3094E+00
     17.029  0.1300E-01  0.1300E-01  0.3114E+00  0.3114E+00
     17.218  0.1542E-01  0.1542E-01  0.3142E+00  0.3142E+00
     17.407  0.1524E-01  0.1524E-01  0.3171E+00  0.3171E+00
     17.596  0.1000E-01  0.1000E-01  0.3198E+00  0.3198E+00
     17.785  0.7256E-02  0.7256E-02  0.3214E+00  0.3214E+00
     17.974  0.4655E-02  0.4655E-02  0.3225E+00  0.3225E+00
     18.163  0.1423E-02  0.1423E-02  0.3231E+00  0.3231E+00
     18.352  0.3308E-03  0.3307E-03  0.3232E+00  0.3232E+00
     18.542  0.2057E-04  0.2054E-04  0.3232E+00  0.3232E+00
     18.731  0.0000E+00  0.0000E+00  0.3232E+00  0.3232E+00
     18.920  0.0000E+00  0.0000E+00  0.3232E+00  0.3232E+00
     19.109  0.0000E+00  0.0000E+00  0.3232E+00  0.3232E+00
     19.298  0.0000E+00  0.0000E+00  0.3232E+00  0.3232E+00
     19.487  0.0000E+00  0.0000E+00  0.3232E+00  0.3232E+00
     19.676  0.0000E+00  0.0000E+00  0.3232E+00  0.3232E+00
     19.865  0.0000E+00  0.0000E+00  0.3232E+00  0.3232E+00
     20.054  0.0000E+00  0.0000E+00  0.3232E+00  0.3232E+00
     20.243  0.0000E+00  0.0000E+00  0.3232E+00  0.3232E+00
     20.432  0.0000E+00  0.0000E+00  0.3232E+00  0.3232E+00
     20.621  0.0000E+00  0.0000E+00  0.3232E+00  0.3232E+00
     20.810  0.0000E+00  0.0000E+00  0.3232E+00  0.3232E+00
     20.999  0.0000E+00  0.0000E+00  0.3232E+00  0.3232E+00
     21.188  0.0000E+00  0.0000E+00  0.3232E+00  0.3232E+00
     21.18802982    -35.52301328  301      2.33538626      1.00000000
    -35.523  0.0000E+00  0.0000E+00  0.0000E+00  0.0000E+00  0.0000E+00  0.0000E+00  0.0000E+00  0.0000E+00  0.0000E+00  0.0000E+00  0.0000E+00  0.0000E+00  0.0000E+00  0.0000E+00  0.0000E+00  0.0000E+00  0.0000E+00  0.0000E+00
    -35.334  0.0000E+00  0.0000E+00  0.0000E+00  0.0000E+00  0.0000E+00  0.0000E+00  0.0000E+00  0.0000E+00  0.0000E+00  0.0000E+00  0.0000E+00  0.0000E+00  0.0000E+00  0.0000E+00  0.0000E+00  0.0000E+00  0.0000E+00  0.0000E+00
    -35.145  0.0000E+00  0.0000E+00  0.0000E+00  0.0000E+00  0.0000E+00  0.0000E+00  0.0000E+00  0.0000E+00  0.0000E+00  0.0000E+00  0.0000E+00  0.0000E+00  0.0000E+00  0.0000E+00  0.0000E+00  0.0000E+00  0.0000E+00  0.0000E+00
    -34.956  0.0000E+00  0.0000E+00  0.0000E+00  0.0000E+00  0.0000E+00  0.0000E+00  0.0000E+00  0.0000E+00  0.0000E+00  0.0000E+00  0.0000E+00  0.0000E+00  0.0000E+00  0.0000E+00  0.0000E+00  0.0000E+00  0.0000E+00  0.0000E+00
    -34.767  0.0000E+00  0.0000E+00  0.0000E+00  0.0000E+00  0.0000E+00  0.0000E+00  0.0000E+00  0.0000E+00  0.0000E+00  0.0000E+00  0.0000E+00  0.0000E+00  0.0000E+00  0.0000E+00  0.0000E+00  0.0000E+00  0.0000E+00  0.0000E+00
    -34.578  0.0000E+00  0.0000E+00  0.0000E+00  0.0000E+00  0.0000E+00  0.0000E+00  0.0000E+00  0.0000E+00  0.0000E+00  0.0000E+00  0.0000E+00  0.0000E+00  0.0000E+00  0.0000E+00  0.0000E+00  0.0000E+00  0.0000E+00  0.0000E+00
    -34.389  0.0000E+00  0.0000E+00  0.0000E+00  0.0000E+00  0.0000E+00  0.0000E+00  0.0000E+00  0.0000E+00  0.0000E+00  0.0000E+00  0.0000E+00  0.0000E+00  0.0000E+00  0.0000E+00  0.0000E+00  0.0000E+00  0.0000E+00  0.0000E+00
    -34.200  0.0000E+00  0.0000E+00  0.0000E+00  0.0000E+00  0.0000E+00  0.0000E+00  0.0000E+00  0.0000E+00  0.0000E+00  0.0000E+00  0.0000E+00  0.0000E+00  0.0000E+00  0.0000E+00  0.0000E+00  0.0000E+00  0.0000E+00  0.0000E+00
    -34.011  0.0000E+00  0.0000E+00  0.0000E+00  0.0000E+00  0.0000E+00  0.0000E+00  0.0000E+00  0.0000E+00  0.0000E+00  0.0000E+00  0.0000E+00  0.0000E+00  0.0000E+00  0.0000E+00  0.0000E+00  0.0000E+00  0.0000E+00  0.0000E+00
    -33.822  0.0000E+00  0.0000E+00  0.0000E+00  0.0000E+00  0.0000E+00  0.0000E+00  0.0000E+00  0.0000E+00  0.0000E+00  0.0000E+00  0.0000E+00  0.0000E+00  0.0000E+00  0.0000E+00  0.0000E+00  0.0000E+00  0.0000E+00  0.0000E+00
    -33.633  0.0000E+00  0.0000E+00  0.0000E+00  0.0000E+00  0.0000E+00  0.0000E+00  0.0000E+00  0.0000E+00  0.0000E+00  0.0000E+00  0.0000E+00  0.0000E+00  0.0000E+00  0.0000E+00  0.0000E+00  0.0000E+00  0.0000E+00  0.0000E+00
    -33.444  0.0000E+00  0.0000E+00  0.0000E+00  0.0000E+00  0.0000E+00  0.0000E+00  0.0000E+00  0.0000E+00  0.0000E+00  0.0000E+00  0.0000E+00  0.0000E+00  0.0000E+00  0.0000E+00  0.0000E+00  0.0000E+00  0.0000E+00  0.0000E+00
    -33.255  0.0000E+00  0.0000E+00  0.0000E+00  0.0000E+00  0.0000E+00  0.0000E+00  0.0000E+00  0.0000E+00  0.0000E+00  0.0000E+00  0.0000E+00  0.0000E+00  0.0000E+00  0.0000E+00  0.0000E+00  0.0000E+00  0.0000E+00  0.0000E+00
    -33.066  0.0000E+00  0.0000E+00  0.0000E+00  0.0000E+00  0.0000E+00  0.0000E+00  0.0000E+00  0.0000E+00  0.0000E+00  0.0000E+00  0.0000E+00  0.0000E+00  0.0000E+00  0.0000E+00  0.0000E+00  0.0000E+00  0.0000E+00  0.0000E+00
    -32.876  0.7283E+01  0.7283E+01  0.8610E-05  0.8610E-05  0.9248E-05  0.9248E-05  0.1584E-03  0.1584E-03  0.6076E-06  0.6076E-06  0.2191E-06  0.2191E-06  0.4452E-04  0.4452E-04  0.8067E-05  0.8066E-05  0.9385E-05  0.9385E-05
    -32.687  0.0000E+00  0.0000E+00  0.0000E+00  0.0000E+00  0.0000E+00  0.0000E+00  0.0000E+00  0.0000E+00  0.0000E+00  0.0000E+00  0.0000E+00  0.0000E+00  0.0000E+00  0.0000E+00  0.0000E+00  0.0000E+00  0.0000E+00  0.0000E+00
    -32.498  0.0000E+00  0.0000E+00  0.0000E+00  0.0000E+00  0.0000E+00  0.0000E+00  0.0000E+00  0.0000E+00  0.0000E+00  0.0000E+00  0.0000E+00  0.0000E+00  0.0000E+00  0.0000E+00  0.0000E+00  0.0000E+00  0.0000E+00  0.0000E+00
    -32.309  0.0000E+00  0.0000E+00  0.0000E+00  0.0000E+00  0.0000E+00  0.0000E+00  0.0000E+00  0.0000E+00  0.0000E+00  0.0000E+00  0.0000E+00  0.0000E+00  0.0000E+00  0.0000E+00  0.0000E+00  0.0000E+00  0.0000E+00  0.0000E+00
    -32.120  0.0000E+00  0.0000E+00  0.0000E+00  0.0000E+00  0.0000E+00  0.0000E+00  0.0000E+00  0.0000E+00  0.0000E+00  0.0000E+00  0.0000E+00  0.0000E+00  0.0000E+00  0.0000E+00  0.0000E+00  0.0000E+00  0.0000E+00  0.0000E+00
    -31.931  0.0000E+00  0.0000E+00  0.0000E+00  0.0000E+00  0.0000E+00  0.0000E+00  0.0000E+00  0.0000E+00  0.0000E+00  0.0000E+00  0.0000E+00  0.0000E+00  0.0000E+00  0.0000E+00  0.0000E+00  0.0000E+00  0.0000E+00  0.0000E+00
    -31.742  0.0000E+00  0.0000E+00  0.0000E+00  0.0000E+00  0.0000E+00  0.0000E+00  0.0000E+00  0.0000E+00  0.0000E+00  0.0000E+00  0.0000E+00  0.0000E+00  0.0000E+00  0.0000E+00  0.0000E+00  0.0000E+00  0.0000E+00  0.0000E+00
    -31.553  0.0000E+00  0.0000E+00  0.0000E+00  0.0000E+00  0.0000E+00  0.0000E+00  0.0000E+00  0.0000E+00  0.0000E+00  0.0000E+00  0.0000E+00  0.0000E+00  0.0000E+00  0.0000E+00  0.0000E+00  0.0000E+00  0.0000E+00  0.0000E+00
    -31.364  0.0000E+00  0.0000E+00  0.0000E+00  0.0000E+00  0.0000E+00  0.0000E+00  0.0000E+00  0.0000E+00  0.0000E+00  0.0000E+00  0.0000E+00  0.0000E+00  0.0000E+00  0.0000E+00  0.0000E+00  0.0000E+00  0.0000E+00  0.0000E+00
    -31.175  0.0000E+00  0.0000E+00  0.0000E+00  0.0000E+00  0.0000E+00  0.0000E+00  0.0000E+00  0.0000E+00  0.0000E+00  0.0000E+00  0.0000E+00  0.0000E+00  0.0000E+00  0.0000E+00  0.0000E+00  0.0000E+00  0.0000E+00  0.0000E+00
    -30.986  0.0000E+00  0.0000E+00  0.0000E+00  0.0000E+00  0.0000E+00  0.0000E+00  0.0000E+00  0.0000E+00  0.0000E+00  0.0000E+00  0.0000E+00  0.0000E+00  0.0000E+00  0.0000E+00  0.0000E+00  0.0000E+00  0.0000E+00  0.0000E+00
    -30.797  0.0000E+00  0.0000E+00  0.0000E+00  0.0000E+00  0.0000E+00  0.0000E+00  0.0000E+00  0.0000E+00  0.0000E+00  0.0000E+00  0.0000E+00  0.0000E+00  0.0000E+00  0.0000E+00  0.0000E+00  0.0000E+00  0.0000E+00  0.0000E+00
    -30.608  0.0000E+00  0.0000E+00  0.0000E+00  0.0000E+00  0.0000E+00  0.0000E+00  0.0000E+00  0.0000E+00  0.0000E+00  0.0000E+00  0.0000E+00  0.0000E+00  0.0000E+00  0.0000E+00  0.0000E+00  0.0000E+00  0.0000E+00  0.0000E+00
    -30.419  0.0000E+00  0.0000E+00  0.0000E+00  0.0000E+00  0.0000E+00  0.0000E+00  0.0000E+00  0.0000E+00  0.0000E+00  0.0000E+00  0.0000E+00  0.0000E+00  0.0000E+00  0.0000E+00  0.0000E+00  0.0000E+00  0.0000E+00  0.0000E+00
    -30.230  0.0000E+00  0.0000E+00  0.0000E+00  0.0000E+00  0.0000E+00  0.0000E+00  0.0000E+00  0.0000E+00  0.0000E+00  0.0000E+00  0.0000E+00  0.0000E+00  0.0000E+00  0.0000E+00  0.0000E+00  0.0000E+00  0.0000E+00  0.0000E+00
    -30.041  0.0000E+00  0.0000E+00  0.0000E+00  0.0000E+00  0.0000E+00  0.0000E+00  0.0000E+00  0.0000E+00  0.0000E+00  0.0000E+00  0.0000E+00  0.0000E+00  0.0000E+00  0.0000E+00  0.0000E+00  0.0000E+00  0.0000E+00  0.0000E+00
    -29.852  0.0000E+00  0.0000E+00  0.0000E+00  0.0000E+00  0.0000E+00  0.0000E+00  0.0000E+00  0.0000E+00  0.0000E+00  0.0000E+00  0.0000E+00  0.0000E+00  0.0000E+00  0.0000E+00  0.0000E+00  0.0000E+00  0.0000E+00  0.0000E+00
    -29.663  0.0000E+00  0.0000E+00  0.0000E+00  0.0000E+00  0.0000E+00  0.0000E+00  0.0000E+00  0.0000E+00  0.0000E+00  0.0000E+00  0.0000E+00  0.0000E+00  0.0000E+00  0.0000E+00  0.0000E+00  0.0000E+00  0.0000E+00  0.0000E+00
    -29.474  0.0000E+00  0.0000E+00  0.0000E+00  0.0000E+00  0.0000E+00  0.0000E+00  0.0000E+00  0.0000E+00  0.0000E+00  0.0000E+00  0.0000E+00  0.0000E+00  0.0000E+00  0.0000E+00  0.0000E+00  0.0000E+00  0.0000E+00  0.0000E+00
    -29.285  0.0000E+00  0.0000E+00  0.0000E+00  0.0000E+00  0.0000E+00  0.0000E+00  0.0000E+00  0.0000E+00  0.0000E+00  0.0000E+00  0.0000E+00  0.0000E+00  0.0000E+00  0.0000E+00  0.0000E+00  0.0000E+00  0.0000E+00  0.0000E+00
    -29.096  0.0000E+00  0.0000E+00  0.0000E+00  0.0000E+00  0.0000E+00  0.0000E+00  0.0000E+00  0.0000E+00  0.0000E+00  0.0000E+00  0.0000E+00  0.0000E+00  0.0000E+00  0.0000E+00  0.0000E+00  0.0000E+00  0.0000E+00  0.0000E+00
    -28.907  0.3933E-03  0.3933E-03  0.2060E-04  0.2060E-04  0.9130E-04  0.9130E-04  0.5650E-05  0.5650E-05  0.6862E-06  0.6862E-06  0.9481E-05  0.9481E-05  0.1678E-04  0.1678E-04  0.3140E-05  0.3140E-05  0.1280E-05  0.1280E-05
    -28.718  0.4603E-03  0.4603E-03  0.2662E-04  0.2662E-04  0.9118E-04  0.9118E-04  0.5382E-04  0.5382E-04  0.6435E-05  0.6435E-05  0.8404E-05  0.8404E-05  0.1332E-04  0.1332E-04  0.2572E-04  0.2572E-04  0.3697E-05  0.3696E-05
    -28.529  0.0000E+00  0.0000E+00  0.0000E+00  0.0000E+00  0.0000E+00  0.0000E+00  0.0000E+00  0.0000E+00  0.0000E+00  0.0000E+00  0.0000E+00  0.0000E+00  0.0000E+00  0.0000E+00  0.0000E+00  0.0000E+00  0.0000E+00  0.0000E+00
    -28.340  0.0000E+00  0.0000E+00  0.0000E+00  0.0000E+00  0.0000E+00  0.0000E+00  0.0000E+00  0.0000E+00  0.0000E+00  0.0000E+00  0.0000E+00  0.0000E+00  0.0000E+00  0.0000E+00  0.0000E+00  0.0000E+00  0.0000E+00  0.0000E+00
    -28.151  0.0000E+00  0.0000E+00  0.0000E+00  0.0000E+00  0.0000E+00  0.0000E+00  0.0000E+00  0.0000E+00  0.0000E+00  0.0000E+00  0.0000E+00  0.0000E+00  0.0000E+00  0.0000E+00  0.0000E+00  0.0000E+00  0.0000E+00  0.0000E+00
    -27.962  0.0000E+00  0.0000E+00  0.0000E+00  0.0000E+00  0.0000E+00  0.0000E+00  0.0000E+00  0.0000E+00  0.0000E+00  0.0000E+00  0.0000E+00  0.0000E+00  0.0000E+00  0.0000E+00  0.0000E+00  0.0000E+00  0.0000E+00  0.0000E+00
    -27.773  0.0000E+00  0.0000E+00  0.0000E+00  0.0000E+00  0.0000E+00  0.0000E+00  0.0000E+00  0.0000E+00  0.0000E+00  0.0000E+00  0.0000E+00  0.0000E+00  0.0000E+00  0.0000E+00  0.0000E+00  0.0000E+00  0.0000E+00  0.0000E+00
    -27.583  0.0000E+00  0.0000E+00  0.0000E+00  0.0000E+00  0.0000E+00  0.0000E+00  0.0000E+00  0.0000E+00  0.0000E+00  0.0000E+00  0.0000E+00  0.0000E+00  0.0000E+00  0.0000E+00  0.0000E+00  0.0000E+00  0.0000E+00  0.0000E+00
    -27.394  0.0000E+00  0.0000E+00  0.0000E+00  0.0000E+00  0.0000E+00  0.0000E+00  0.0000E+00  0.0000E+00  0.0000E+00  0.0000E+00  0.0000E+00  0.0000E+00  0.0000E+00  0.0000E+00  0.0000E+00  0.0000E+00  0.0000E+00  0.0000E+00
    -27.205  0.0000E+00  0.0000E+00  0.0000E+00  0.0000E+00  0.0000E+00  0.0000E+00  0.0000E+00  0.0000E+00  0.0000E+00  0.0000E+00  0.0000E+00  0.0000E+00  0.0000E+00  0.0000E+00  0.0000E+00  0.0000E+00  0.0000E+00  0.0000E+00
    -27.016  0.0000E+00  0.0000E+00  0.0000E+00  0.0000E+00  0.0000E+00  0.0000E+00  0.0000E+00  0.0000E+00  0.0000E+00  0.0000E+00  0.0000E+00  0.0000E+00  0.0000E+00  0.0000E+00  0.0000E+00  0.0000E+00  0.0000E+00  0.0000E+00
    -26.827  0.0000E+00  0.0000E+00  0.0000E+00  0.0000E+00  0.0000E+00  0.0000E+00  0.0000E+00  0.0000E+00  0.0000E+00  0.0000E+00  0.0000E+00  0.0000E+00  0.0000E+00  0.0000E+00  0.0000E+00  0.0000E+00  0.0000E+00  0.0000E+00
    -26.638  0.0000E+00  0.0000E+00  0.0000E+00  0.0000E+00  0.0000E+00  0.0000E+00  0.0000E+00  0.0000E+00  0.0000E+00  0.0000E+00  0.0000E+00  0.0000E+00  0.0000E+00  0.0000E+00  0.0000E+00  0.0000E+00  0.0000E+00  0.0000E+00
    -26.449  0.0000E+00  0.0000E+00  0.0000E+00  0.0000E+00  0.0000E+00  0.0000E+00  0.0000E+00  0.0000E+00  0.0000E+00  0.0000E+00  0.0000E+00  0.0000E+00  0.0000E+00  0.0000E+00  0.0000E+00  0.0000E+00  0.0000E+00  0.0000E+00
    -26.260  0.0000E+00  0.0000E+00  0.0000E+00  0.0000E+00  0.0000E+00  0.0000E+00  0.0000E+00  0.0000E+00  0.0000E+00  0.0000E+00  0.0000E+00  0.0000E+00  0.0000E+00  0.0000E+00  0.0000E+00  0.0000E+00  0.0000E+00  0.0000E+00
    -26.071  0.0000E+00  0.0000E+00  0.0000E+00  0.0000E+00  0.0000E+00  0.0000E+00  0.0000E+00  0.0000E+00  0.0000E+00  0.0000E+00  0.0000E+00  0.0000E+00  0.0000E+00  0.0000E+00  0.0000E+00  0.0000E+00  0.0000E+00  0.0000E+00