    8    8   99    2
  0.9150315E+01  0.3340856E-09  0.3940684E-09  0.6896336E-09  0.5000000E-15
  1.000000000000000E-004
  CAR 
 unknown system                          
     27     74     32
 
  0.3742002E-15  0.3742002E-15  0.3742002E-15  0.6944444E-02
    1      -32.944499    -32.944505   1.000000   1.000000
    2      -28.866145    -28.866145   1.000000   1.000000
    3      -28.746831    -28.746832   1.000000   1.000000
    4      -28.675513    -28.675513   1.000000   1.000000
    5      -14.972995    -14.972997   1.000000   1.000000
    6      -14.943494    -14.943495   1.000000   1.000000
    7      -14.641800    -14.641803   1.000000   1.000000
    8       -6.046847     -6.046848   1.000000   1.000000
    9       -3.138987     -3.138987   1.000000   1.000000
   10       -1.716870     -1.716870   1.000000   1.000000
   11       -1.395277     -1.395277   1.000000   1.000000
   12        0.171890      0.171890   1.000000   1.000000
   13        1.820214      1.820214   1.000000   1.000000
   14        3.256459      3.256459   0.000000   0.000000
   15        3.741969      3.741969   0.000000   0.000000
   16        3.811714      3.811714   0.000000   0.000000
   17        4.237283      4.237282   0.000000   0.000000
   18        5.886891      5.886891   0.000000   0.000000
   19        8.072047      8.072045   0.000000   0.000000
   20        8.772745      8.772744   0.000000   0.000000
   21        9.000810      9.000809   0.000000   0.000000
   22        9.405126      9.405125   0.000000   0.000000
   23        9.961065      9.961065   0.000000   0.000000
   24       10.412873     10.412872   0.000000   0.000000
   25       10.825035     10.825034   0.000000   0.000000
   26       10.914088     10.914088   0.000000   0.000000
   27       12.330727     12.330727   0.000000   0.000000
   28       12.749559     12.749559   0.000000   0.000000
   29       14.826911     14.826910   0.000000   0.000000
   30       15.876219     15.876220   0.000000   0.000000
   31       16.367383     16.367383   0.000000   0.000000
   32       17.311807     17.311806   0.000000   0.000000
 
  0.1250000E+00  0.3712308E-15  0.3608225E-15  0.1388889E-01
    1      -32.930973    -32.930979   1.000000   1.000000
    2      -28.861239    -28.861239   1.000000   1.000000
    3      -28.743243    -28.743243   1.000000   1.000000
    4      -28.714373    -28.714373   1.000000   1.000000
    5      -14.955394    -14.955396   1.000000   1.000000
    6      -14.925747    -14.925749   1.000000   1.000000
    7      -14.798600    -14.798602   1.000000   1.000000
    8       -5.708042     -5.708042   1.000000   1.000000
    9       -2.964574     -2.964575   1.000000   1.000000
   10       -1.744015     -1.744015   1.000000   1.000000
   11       -1.442645     -1.442645   1.000000   1.000000
   12        0.098004      0.098005   1.000000   1.000000
   13        0.939100      0.939100   1.000000   1.000000
   14        3.166430      3.166430  -0.004948  -0.004948
   15        3.949783      3.949784   0.000000   0.000000
   16        4.279604      4.279604   0.000000   0.000000
   17        4.743427      4.743426   0.000000   0.000000
   18        6.432228      6.432228   0.000000   0.000000
   19        7.613259      7.613258   0.000000   0.000000
   20        7.988989      7.988988   0.000000   0.000000
   21        8.299831      8.299828   0.000000   0.000000
   22        9.057611      9.057610   0.000000   0.000000
   23        9.780842      9.780841   0.000000   0.000000
   24        9.932813      9.932812   0.000000   0.000000
   25       10.840663     10.840663   0.000000   0.000000
   26       12.238615     12.238614   0.000000   0.000000
   27       12.943284     12.943284   0.000000   0.000000
   28       13.643634     13.643634   0.000000   0.000000
   29       14.529377     14.529376   0.000000   0.000000
   30       16.228419     16.228419   0.000000   0.000000
   31       16.399559     16.399559   0.000000   0.000000
   32       17.149985     17.149985   0.000000   0.000000
 
  0.2500000E+00  0.3712308E-15  0.1304512E-14  0.1388889E-01
    1      -32.897832    -32.897839   1.000000   1.000000
    2      -28.849540    -28.849540   1.000000   1.000000
    3      -28.807294    -28.807294   1.000000   1.000000
    4      -28.734823    -28.734823   1.000000   1.000000
    5      -15.153710    -15.153712   1.000000   1.000000
    6      -14.908010    -14.908013   1.000000   1.000000
    7      -14.879879    -14.879881   1.000000   1.000000
    8       -4.853745     -4.853745   1.000000   1.000000
    9       -2.566585     -2.566585   1.000000   1.000000
   10       -1.967837     -1.967837   1.000000   1.000000
   11       -1.313640     -1.313639   1.000000   1.000000
   12       -0.422902     -0.422902   1.000000   1.000000
   13        0.275627      0.275627   1.000000   1.000000
   14        2.390243      2.390243   0.372745   0.372745
   15        4.392151      4.392152   0.000000   0.000000
   16        4.823590      4.823590   0.000000   0.000000
   17        5.514755      5.514755   0.000000   0.000000
   18        6.423042      6.423042   0.000000   0.000000
   19        7.203220      7.203220   0.000000   0.000000
   20        7.627574      7.627571   0.000000   0.000000
   21        8.027151      8.027149   0.000000   0.000000
   22        8.825307      8.825307   0.000000   0.000000
   23        9.352956      9.352955   0.000000   0.000000
   24        9.884017      9.884016   0.000000   0.000000
   25       11.103267     11.103266   0.000000   0.000000
   26       12.404685     12.404685   0.000000   0.000000
   27       13.382011     13.382011   0.000000   0.000000
   28       13.778439     13.778438   0.000000   0.000000
   29       15.284789     15.284789   0.000000   0.000000
   30       15.863522     15.863521   0.000000   0.000000
   31       16.368772     16.368772   0.000000   0.000000
   32       16.971436     16.971436   0.000000   0.000000
 
  0.3750000E+00  0.3712308E-15  0.1276756E-14  0.1388889E-01
    1      -32.863956    -32.863963   1.000000   1.000000
    2      -28.899113    -28.899113   1.000000   1.000000
    3      -28.837500    -28.837500   1.000000   1.000000
    4      -28.727229    -28.727230   1.000000   1.000000
    5      -15.480367    -15.480369   1.000000   1.000000
    6      -14.858253    -14.858256   1.000000   1.000000
    7      -14.826515    -14.826517   1.000000   1.000000
    8       -4.006131     -4.006131   1.000000   1.000000
    9       -2.234916     -2.234916   1.000000   1.000000
   10       -1.940727     -1.940727   1.000000   1.000000
   11       -1.348111     -1.348111   1.000000   1.000000
   12       -0.946517     -0.946516   1.000000   1.000000
   13        0.327880      0.327880   1.000000   1.000000
   14        1.599742      1.599741   1.065868   1.065868
   15        4.053190      4.053191   0.000000   0.000000
   16        4.905834      4.905833   0.000000   0.000000
   17        5.293651      5.293651   0.000000   0.000000
   18        6.318497      6.318496   0.000000   0.000000
   19        7.320564      7.320563   0.000000   0.000000
   20        7.611641      7.611640   0.000000   0.000000
   21        8.684026      8.684026   0.000000   0.000000
   22        8.939490      8.939490   0.000000   0.000000
   23        9.894709      9.894706   0.000000   0.000000
   24       10.318920     10.318920   0.000000   0.000000
   25       11.093132     11.093131   0.000000   0.000000
   26       12.178402     12.178402   0.000000   0.000000
   27       12.727261     12.727261   0.000000   0.000000
   28       13.989022     13.989021   0.000000   0.000000
   29       14.944467     14.944467   0.000000   0.000000
   30       15.482449     15.482449   0.000000   0.000000
   31       16.242075     16.242075   0.000000   0.000000
   32       16.910671     16.910671   0.000000   0.000000
 
  0.5000000E+00  0.3747003E-15  0.4440892E-15  0.6944444E-02
    1      -32.849703    -32.849710   1.000000   1.000000
    2      -28.936598    -28.936598   1.000000   1.000000
    3      -28.832696    -28.832696   1.000000   1.000000
    4      -28.724294    -28.724295   1.000000   1.000000
    5      -15.608846    -15.608848   1.000000   1.000000
    6      -14.838373    -14.838375   1.000000   1.000000
    7      -14.800595    -14.800597   1.000000   1.000000
    8       -3.741725     -3.741724   1.000000   1.000000
    9       -1.991370     -1.991370   1.000000   1.000000
   10       -1.845711     -1.845710   1.000000   1.000000
   11       -1.515256     -1.515256   1.000000   1.000000
   12       -0.957626     -0.957625   1.000000   1.000000
   13        0.404447      0.404448   1.000000   1.000000
   14        1.218853      1.218852   1.000000   1.000000
   15        3.747468      3.747469   0.000000   0.000000
   16        4.806724      4.806723   0.000000   0.000000
   17        5.247996      5.247996   0.000000   0.000000
   18        6.313019      6.313020   0.000000   0.000000
   19        7.172520      7.172519   0.000000   0.000000
   20        7.310224      7.310223   0.000000   0.000000
   21        8.805611      8.805611   0.000000   0.000000
   22        9.256789      9.256789   0.000000   0.000000
   23       10.584877     10.584877   0.000000   0.000000
   24       11.004502     11.004502   0.000000   0.000000
   25       11.793492     11.793492   0.000000   0.000000
   26       12.424130     12.424125   0.000000   0.000000
   27       12.634596     12.634597   0.000000   0.000000
   28       13.046583     13.046582   0.000000   0.000000
   29       13.582354     13.582354   0.000000   0.000000
   30       15.885080     15.885081   0.000000   0.000000
   31       15.978879     15.978879   0.000000   0.000000
   32       16.832417     16.832417   0.000000   0.000000
 
  0.3668940E-15  0.1666667E+00  0.3608225E-15  0.1388889E-01
    1      -32.942223    -32.942230   1.000000   1.000000
    2      -28.874312    -28.874312   1.000000   1.000000
    3      -28.746201    -28.746202   1.000000   1.000000
    4      -28.675133    -28.675133   1.000000   1.000000
    5      -15.006914    -15.006916   1.000000   1.000000
    6      -14.959201    -14.959204   1.000000   1.000000
    7      -14.638920    -14.638923   1.000000   1.000000
    8       -5.748920     -5.748920   1.000000   1.000000
    9       -2.968443     -2.968444   1.000000   1.000000
   10       -1.980718     -1.980718   1.000000   1.000000
   11       -1.315100     -1.315100   1.000000   1.000000
   12       -0.241080     -0.241080   1.000000   1.000000
   13        1.755501      1.755501   1.000000   1.000000
   14        3.215819      3.215819   0.000000   0.000000
   15        3.752976      3.752976   0.000000   0.000000
   16        4.115948      4.115948   0.000000   0.000000
   17        4.343096      4.343096   0.000000   0.000000
   18        5.766866      5.766866   0.000000   0.000000
   19        7.825831      7.825830   0.000000   0.000000
   20        8.473028      8.473027   0.000000   0.000000
   21        8.809652      8.809651   0.000000   0.000000
   22        9.283652      9.283650   0.000000   0.000000
   23        9.651913      9.651912   0.000000   0.000000
   24       10.547394     10.547393   0.000000   0.000000
   25       11.204054     11.204054   0.000000   0.000000
   26       11.774194     11.774194   0.000000   0.000000
   27       12.287547     12.287546   0.000000   0.000000
   28       13.162163     13.162163   0.000000   0.000000
   29       14.568435     14.568435   0.000000   0.000000
   30       16.423776     16.423776   0.000000   0.000000
   31       16.585236     16.585236   0.000000   0.000000
   32       17.666937     17.666938   0.000000   0.000000
 
  0.1250000E+00  0.1666667E+00  0.3885781E-15  0.1388889E-01
    1      -32.928771    -32.928778   1.000000   1.000000
    2      -28.869409    -28.869409   1.000000   1.000000
    3      -28.742410    -28.742411   1.000000   1.000000
    4      -28.713991    -28.713991   1.000000   1.000000
    5      -14.988926    -14.988928   1.000000   1.000000
    6      -14.943281    -14.943283   1.000000   1.000000
    7      -14.793400    -14.793402   1.000000   1.000000
    8       -5.327474     -5.327474   1.000000   1.000000
    9       -2.779592     -2.779593   1.000000   1.000000
   10       -2.110387     -2.110387   1.000000   1.000000
   11       -1.293010     -1.293010   1.000000   1.000000
   12       -0.490223     -0.490223   1.000000   1.000000
   13        0.883512      0.883512   1.000000   1.000000
   14        3.177189      3.177189  -0.062763  -0.062763
   15        3.808522      3.808523   0.000000   0.000000
   16        4.629776      4.629776   0.000000   0.000000
   17        5.054730      5.054730   0.000000   0.000000
   18        6.250274      6.250274   0.000000   0.000000
   19        7.101641      7.101640   0.000000   0.000000
   20        7.949603      7.949602   0.000000   0.000000
   21        8.603437      8.603436   0.000000   0.000000
   22        9.185949      9.185945   0.000000   0.000000
   23        9.707840      9.707839   0.000000   0.000000
   24       10.136080     10.136080   0.000000   0.000000
   25       11.238679     11.238679   0.000000   0.000000
   26       11.965381     11.965380   0.000000   0.000000
   27       12.937534     12.937534   0.000000   0.000000
   28       14.046072     14.046071   0.000000   0.000000
   29       14.798778     14.798778   0.000000   0.000000
   30       15.408168     15.408168   0.000000   0.000000
   31       16.629372     16.629372   0.000000   0.000000
   32       17.159664     17.159665   0.000000   0.000000
 
  0.2500000E+00  0.1666667E+00  0.3885781E-15  0.1388889E-01
    1      -32.895619    -32.895625   1.000000   1.000000
    2      -28.857482    -28.857482   1.000000   1.000000
    3      -28.806914    -28.806914   1.000000   1.000000
    4      -28.734221    -28.734221   1.000000   1.000000
    5      -15.145083    -15.145085   1.000000   1.000000
    6      -14.940413    -14.940415   1.000000   1.000000
    7      -14.891546    -14.891548   1.000000   1.000000
    8       -4.470283     -4.470283   1.000000   1.000000
    9       -2.574125     -2.574126   1.000000   1.000000
   10       -2.013641     -2.013641   1.000000   1.000000
   11       -1.214976     -1.214976   1.000000   1.000000
   12       -0.861816     -0.861816   1.000000   1.000000
   13        0.127385      0.127385   1.000000   1.000000
   14        2.307537      2.307537   0.526494   0.526494
   15        4.039686      4.039686   0.000000   0.000000
   16        5.330808      5.330808   0.000000   0.000000
   17        5.751826      5.751826   0.000000   0.000000
   18        6.329314      6.329314   0.000000   0.000000
   19        6.803941      6.803942   0.000000   0.000000
   20        7.655276      7.655275   0.000000   0.000000
   21        8.387346      8.387346   0.000000   0.000000
   22        9.127787      9.127785   0.000000   0.000000
   23        9.342046      9.342045   0.000000   0.000000
   24       10.221713     10.221711   0.000000   0.000000
   25       11.501502     11.501501   0.000000   0.000000
   26       12.125720     12.125720   0.000000   0.000000
   27       12.522107     12.522107   0.000000   0.000000
   28       13.935624     13.935624   0.000000   0.000000
   29       14.901180     14.901180   0.000000   0.000000
   30       15.690784     15.690784   0.000000   0.000000
   31       16.442181     16.442181   0.000000   0.000000
   32       17.297325     17.297326   0.000000   0.000000
 
  0.3750000E+00  0.1666667E+00  0.1221245E-14  0.1388889E-01
    1      -32.861788    -32.861794   1.000000   1.000000
    2      -28.898508    -28.898508   1.000000   1.000000
    3      -28.845337    -28.845337   1.000000   1.000000
    4      -28.726717    -28.726717   1.000000   1.000000
    5      -15.469877    -15.469880   1.000000   1.000000
    6      -14.892405    -14.892407   1.000000   1.000000
    7      -14.829727    -14.829730   1.000000   1.000000
    8       -3.735418     -3.735418   1.000000   1.000000
    9       -2.281158     -2.281158   1.000000   1.000000
   10       -1.933274     -1.933274   1.000000   1.000000
   11       -1.450018     -1.450017   1.000000   1.000000
   12       -0.971278     -0.971278   1.000000   1.000000
   13        0.180511      0.180511   1.000000   1.000000
   14        1.540944      1.540944   1.058232   1.058232
   15        3.819951      3.819951   0.000000   0.000000
   16        5.304522      5.304522   0.000000   0.000000
   17        5.471791      5.471791   0.000000   0.000000
   18        6.549833      6.549833   0.000000   0.000000
   19        7.047597      7.047597   0.000000   0.000000
   20        7.565427      7.565426   0.000000   0.000000
   21        8.484089      8.484089   0.000000   0.000000
   22        9.025358      9.025358   0.000000   0.000000
   23        9.953904      9.953903   0.000000   0.000000
   24       10.286017     10.286014   0.000000   0.000000
   25       11.558963     11.558963   0.000000   0.000000
   26       12.346940     12.346940   0.000000   0.000000
   27       12.787685     12.787685   0.000000   0.000000
   28       13.615213     13.615213   0.000000   0.000000
   29       14.418621     14.418621   0.000000   0.000000
   30       15.476388     15.476388   0.000000   0.000000
   31       15.955968     15.955967   0.000000   0.000000
   32       17.107322     17.107322   0.000000   0.000000
 
  0.5000000E+00  0.1666667E+00  0.4440892E-15  0.1388889E-01
    1      -32.847656    -32.847662   1.000000   1.000000
    2      -28.935795    -28.935795   1.000000   1.000000
    3      -28.840468    -28.840468   1.000000   1.000000
    4      -28.723579    -28.723579   1.000000   1.000000
    5      -15.599684    -15.599687   1.000000   1.000000
    6      -14.872244    -14.872245   1.000000   1.000000
    7      -14.801118    -14.801120   1.000000   1.000000
    8       -3.480150     -3.480150   1.000000   1.000000
    9       -2.376720     -2.376720   1.000000   1.000000
   10       -1.767347     -1.767347   1.000000   1.000000
   11       -1.449165     -1.449165   1.000000   1.000000
   12       -0.988262     -0.988261   1.000000   1.000000
   13        0.358874      0.358874   1.000000   1.000000
   14        1.250049      1.250048   1.000000   1.000000
   15        3.771162      3.771162   0.000000   0.000000
   16        5.125225      5.125224   0.000000   0.000000
   17        5.398846      5.398847   0.000000   0.000000
   18        6.554274      6.554273   0.000000   0.000000
   19        6.630040      6.630040   0.000000   0.000000
   20        7.886285      7.886283   0.000000   0.000000
   21        8.419367      8.419367   0.000000   0.000000
   22        9.203412      9.203412   0.000000   0.000000
   23       10.388894     10.388894   0.000000   0.000000
   24       10.962498     10.962499   0.000000   0.000000
   25       11.584586     11.584586   0.000000   0.000000
   26       12.381853     12.381849   0.000000   0.000000
   27       12.638407     12.638408   0.000000   0.000000
   28       13.365491     13.365491   0.000000   0.000000
   29       13.622646     13.622646   0.000000   0.000000
   30       14.895546     14.895545   0.000000   0.000000
   31       15.750453     15.750450   0.000000   0.000000
   32       16.795930     16.795930   0.000000   0.000000
 
 -0.3750000E+00  0.1666667E+00  0.2775558E-15  0.1388889E-01
    1      -32.861875    -32.861881   1.000000   1.000000
    2      -28.898322    -28.898321   1.000000   1.000000
    3      -28.845249    -28.845249   1.000000   1.000000
    4      -28.726559    -28.726559   1.000000   1.000000
    5      -15.473160    -15.473162   1.000000   1.000000
    6      -14.891513    -14.891515   1.000000   1.000000
    7      -14.827255    -14.827257   1.000000   1.000000
    8       -3.858615     -3.858615   1.000000   1.000000
    9       -2.247608     -2.247608   1.000000   1.000000
   10       -2.031518     -2.031518   1.000000   1.000000
   11       -1.428727     -1.428727   1.000000   1.000000
   12       -0.866262     -0.866261   1.000000   1.000000
   13        0.286185      0.286185   1.000000   1.000000
   14        1.665178      1.665178   1.040624   1.040624
   15        4.051158      4.051158   0.000000   0.000000
   16        5.053974      5.053973   0.000000   0.000000
   17        5.545620      5.545620   0.000000   0.000000
   18        6.322983      6.322983   0.000000   0.000000
   19        7.191040      7.191040   0.000000   0.000000
   20        7.966866      7.966866   0.000000   0.000000
   21        8.357118      8.357117   0.000000   0.000000
   22        8.832578      8.832578   0.000000   0.000000
   23        9.840578      9.840576   0.000000   0.000000
   24       10.075183     10.075183   0.000000   0.000000
   25       11.185592     11.185592   0.000000   0.000000
   26       12.323556     12.323555   0.000000   0.000000
   27       12.766886     12.766886   0.000000   0.000000
   28       13.475339     13.475339   0.000000   0.000000
   29       14.422838     14.422838   0.000000   0.000000
   30       15.048995     15.048995   0.000000   0.000000
   31       16.404715     16.404713   0.000000   0.000000
   32       17.079886     17.079886   0.000000   0.000000
 
 -0.2500000E+00  0.1666667E+00  0.3469447E-15  0.1388889E-01
    1      -32.895548    -32.895555   1.000000   1.000000
    2      -28.857418    -28.857418   1.000000   1.000000
    3      -28.806626    -28.806626   1.000000   1.000000
    4      -28.734523    -28.734524   1.000000   1.000000
    5      -15.148159    -15.148162   1.000000   1.000000
    6      -14.938343    -14.938344   1.000000   1.000000
    7      -14.884976    -14.884978   1.000000   1.000000
    8       -4.754680     -4.754680   1.000000   1.000000
    9       -2.530114     -2.530114   1.000000   1.000000
   10       -1.803335     -1.803334   1.000000   1.000000
   11       -1.503129     -1.503129   1.000000   1.000000
   12       -0.214141     -0.214141   1.000000   1.000000
   13        0.114243      0.114244   1.000000   1.000000
   14        2.396945      2.396945   0.377012   0.377012
   15        4.308915      4.308915   0.000000   0.000000
   16        4.710790      4.710789   0.000000   0.000000
   17        5.518695      5.518695   0.000000   0.000000
   18        6.357834      6.357833   0.000000   0.000000
   19        7.133173      7.133173   0.000000   0.000000
   20        7.800180      7.800179   0.000000   0.000000
   21        8.335300      8.335298   0.000000   0.000000
   22        8.696911      8.696910   0.000000   0.000000
   23        9.420519      9.420518   0.000000   0.000000
   24        9.793881      9.793880   0.000000   0.000000
   25       10.910685     10.910685   0.000000   0.000000
   26       12.162840     12.162840   0.000000   0.000000
   27       13.415893     13.415893   0.000000   0.000000
   28       13.860871     13.860871   0.000000   0.000000
   29       15.268798     15.268798   0.000000   0.000000
   30       15.770940     15.770939   0.000000   0.000000
   31       16.303989     16.303989   0.000000   0.000000
   32       16.944105     16.944105   0.000000   0.000000
 
 -0.1250000E+00  0.1666667E+00  0.3989864E-15  0.1388889E-01
    1      -32.928590    -32.928597   1.000000   1.000000
    2      -28.869245    -28.869245   1.000000   1.000000
    3      -28.742992    -28.742993   1.000000   1.000000
    4      -28.713933    -28.713933   1.000000   1.000000
    5      -14.986764    -14.986765   1.000000   1.000000
    6      -14.937004    -14.937006   1.000000   1.000000
    7      -14.793683    -14.793686   1.000000   1.000000
    8       -5.522708     -5.522709   1.000000   1.000000
    9       -2.867251     -2.867252   1.000000   1.000000
   10       -1.857314     -1.857314   1.000000   1.000000
   11       -1.325899     -1.325899   1.000000   1.000000
   12       -0.070982     -0.070981   1.000000   1.000000
   13        0.944944      0.944945   1.000000   1.000000
   14        3.139708      3.139708   0.000000   0.000000
   15        3.892955      3.892955   0.000000   0.000000
   16        4.276680      4.276680   0.000000   0.000000
   17        4.589494      4.589493   0.000000   0.000000
   18        6.349188      6.349188   0.000000   0.000000
   19        7.267754      7.267753   0.000000   0.000000
   20        8.276322      8.276322   0.000000   0.000000
   21        8.683948      8.683946   0.000000   0.000000
   22        8.913720      8.913718   0.000000   0.000000
   23        9.636968      9.636968   0.000000   0.000000
   24       10.061793     10.061792   0.000000   0.000000
   25       10.802800     10.802800   0.000000   0.000000
   26       12.082311     12.082311   0.000000   0.000000
   27       13.046813     13.046813   0.000000   0.000000
   28       13.881950     13.881950   0.000000   0.000000
   29       14.345087     14.345087   0.000000   0.000000
   30       16.327102     16.327102   0.000000   0.000000
   31       16.825389     16.825389   0.000000   0.000000
   32       17.183692     17.183692   0.000000   0.000000
 
  0.3851086E-15  0.3333333E+00  0.4163336E-15  0.1388889E-01
    1      -32.937623    -32.937629   1.000000   1.000000
    2      -28.890701    -28.890701   1.000000   1.000000
    3      -28.744854    -28.744855   1.000000   1.000000
    4      -28.674370    -28.674370   1.000000   1.000000
    5      -15.105848    -15.105850   1.000000   1.000000
    6      -14.955501    -14.955503   1.000000   1.000000
    7      -14.633132    -14.633135   1.000000   1.000000
    8       -5.001943     -5.001943   1.000000   1.000000
    9       -2.669694     -2.669694   1.000000   1.000000
   10       -2.304100     -2.304100   1.000000   1.000000
   11       -1.550041     -1.550041   1.000000   1.000000
   12       -0.942858     -0.942858   1.000000   1.000000
   13        2.032881      2.032881   0.998964   0.998964
   14        3.087709      3.087709   0.000000   0.000000
   15        3.690632      3.690632   0.000000   0.000000
   16        4.058552      4.058551   0.000000   0.000000
   17        4.906442      4.906442   0.000000   0.000000
   18        5.255279      5.255279   0.000000   0.000000
   19        7.800854      7.800853   0.000000   0.000000
   20        8.025662      8.025661   0.000000   0.000000
   21        8.715306      8.715305   0.000000   0.000000
   22        9.070818      9.070816   0.000000   0.000000
   23        9.514998      9.514998   0.000000   0.000000
   24        9.882847      9.882845   0.000000   0.000000
   25       11.620946     11.620945   0.000000   0.000000
   26       12.461914     12.461914   0.000000   0.000000
   27       13.352969     13.352969   0.000000   0.000000
   28       14.335532     14.335531   0.000000   0.000000
   29       15.188444     15.188444   0.000000   0.000000
   30       16.291037     16.291037   0.000000   0.000000
   31       16.817564     16.817563   0.000000   0.000000
   32       16.929652     16.929652   0.000000   0.000000
 
  0.1250000E+00  0.3333333E+00  0.3053113E-15  0.1388889E-01
    1      -32.924175    -32.924181   1.000000   1.000000
    2      -28.885642    -28.885642   1.000000   1.000000
    3      -28.741248    -28.741249   1.000000   1.000000
    4      -28.713167    -28.713167   1.000000   1.000000
    5      -15.083145    -15.083147   1.000000   1.000000
    6      -14.938272    -14.938275   1.000000   1.000000
    7      -14.784236    -14.784238   1.000000   1.000000
    8       -4.573763     -4.573763   1.000000   1.000000
    9       -2.626402     -2.626402   1.000000   1.000000
   10       -2.232710     -2.232711   1.000000   1.000000
   11       -1.624077     -1.624077   1.000000   1.000000
   12       -1.046067     -1.046067   1.000000   1.000000
   13        1.032080      1.032080   1.000000   1.000000
   14        3.158746      3.158746  -0.074408  -0.074408
   15        3.498201      3.498201   0.000000   0.000000
   16        4.625724      4.625723   0.000000   0.000000
   17        5.356237      5.356237   0.000000   0.000000
   18        6.040333      6.040333   0.000000   0.000000
   19        7.102227      7.102226   0.000000   0.000000
   20        7.835155      7.835155   0.000000   0.000000
   21        8.552733      8.552732   0.000000   0.000000
   22        9.183985      9.183984   0.000000   0.000000
   23        9.528094      9.528092   0.000000   0.000000
   24       10.035684     10.035683   0.000000   0.000000
   25       11.384622     11.384621   0.000000   0.000000
   26       12.159325     12.159325   0.000000   0.000000
   27       13.609127     13.609126   0.000000   0.000000
   28       14.413786     14.413784   0.000000   0.000000
   29       15.262605     15.262605   0.000000   0.000000
   30       15.867960     15.867960   0.000000   0.000000
   31       16.649291     16.649291   0.000000   0.000000
   32       17.183697     17.183697   0.000000   0.000000
 
  0.2500000E+00  0.3333333E+00  0.3885781E-15  0.1388889E-01
    1      -32.891116    -32.891123   1.000000   1.000000
    2      -28.873369    -28.873369   1.000000   1.000000
    3      -28.805848    -28.805848   1.000000   1.000000
    4      -28.733228    -28.733229   1.000000   1.000000
    5      -15.130218    -15.130220   1.000000   1.000000
    6      -15.027033    -15.027035   1.000000   1.000000
    7      -14.883061    -14.883063   1.000000   1.000000
    8       -3.774682     -3.774681   1.000000   1.000000
    9       -2.632049     -2.632049   1.000000   1.000000
   10       -2.051421     -2.051421   1.000000   1.000000
   11       -1.610558     -1.610558   1.000000   1.000000
   12       -0.883191     -0.883191   1.000000   1.000000
   13        0.015382      0.015382   1.000000   1.000000
   14        2.246902      2.246902   0.641815   0.641815
   15        3.642621      3.642621   0.000000   0.000000
   16        5.448120      5.448120   0.000000   0.000000