   19   19   60    1
  0.9372650E+01  0.3660140E-09  0.5508622E-09  0.9393027E-09  0.5000000E-15
  1.000000000000000E-004
  CAR 
 unknown system                          
     66    221     44
 
  0.3742002E-15  0.3742002E-15  0.3742002E-15  0.2272727E-02
    1      -32.219011   1.000000
    2      -32.176010   1.000000
    3      -32.031293   1.000000
    4      -27.980060   1.000000
    5      -27.969857   1.000000
    6      -27.965017   1.000000
    7      -27.878065   1.000000
    8      -27.814277   1.000000
    9      -27.803727   1.000000
   10      -14.728687   1.000000
   11      -14.463811   1.000000
   12      -14.421031   1.000000
   13      -14.176526   1.000000
   14      -14.101715   1.000000
   15      -14.037691   1.000000
   16      -14.033936   1.000000
   17      -13.992896   1.000000
   18      -13.854433   1.000000
   19       -5.775516   1.000000
   20       -4.184381   1.000000
   21       -2.832503   1.000000
   22       -2.137049   1.000000
   23       -1.874807   1.000000
   24       -1.724110   1.000000
   25       -1.138635   1.000000
   26       -1.110681   1.000000
   27       -1.059708   1.000000
   28       -0.455039   1.000000
   29       -0.285808   1.000000
   30        1.530565   1.000000
   31        2.596445   1.000000
   32        2.725223   1.000000
   33        3.834306   0.941590
   34        4.019680  -0.023631
   35        4.273668   0.000002
   36        4.502541   0.000000
   37        4.713404   0.000000
   38        4.935600   0.000000
   39        5.667088   0.000000
   40        5.836918   0.000000
   41        6.382773   0.000000
   42        6.633829   0.000000
   43        6.894518   0.000000
   44        7.328543   0.000000
 
  0.9090909E-01  0.3716645E-15  0.3747003E-15  0.4545455E-02
    1      -32.215341   1.000000
    2      -32.173791   1.000000
    3      -32.028189   1.000000
    4      -27.978803   1.000000
    5      -27.968734   1.000000
    6      -27.964156   1.000000
    7      -27.877642   1.000000
    8      -27.823346   1.000000
    9      -27.812985   1.000000
   10      -14.722198   1.000000
   11      -14.457152   1.000000
   12      -14.408804   1.000000
   13      -14.173192   1.000000
   14      -14.143695   1.000000
   15      -14.083291   1.000000
   16      -14.029367   1.000000
   17      -13.989208   1.000000
   18      -13.901397   1.000000
   19       -5.655194   1.000000
   20       -4.099714   1.000000
   21       -2.755341   1.000000
   22       -2.064487   1.000000
   23       -1.819542   1.000000
   24       -1.691561   1.000000
   25       -1.172882   1.000000
   26       -1.121566   1.000000
   27       -1.059287   1.000000
   28       -0.511202   1.000000
   29       -0.307477   1.000000
   30        1.354037   1.000000
   31        2.038674   1.000000
   32        2.479967   1.000000
   33        3.792609   1.051148
   34        4.272338   0.000002
   35        4.315192   0.000000
   36        4.674420   0.000000
   37        5.011277   0.000000
   38        5.241940   0.000000
   39        5.708424   0.000000
   40        5.787391   0.000000
   41        6.348872   0.000000
   42        6.514645   0.000000
   43        6.615086   0.000000
   44        7.097457   0.000000
 
  0.1818182E+00  0.3710140E-15  0.4024558E-15  0.4545455E-02
    1      -32.205356   1.000000
    2      -32.167963   1.000000
    3      -32.019845   1.000000
    4      -27.975578   1.000000
    5      -27.965910   1.000000
    6      -27.961994   1.000000
    7      -27.877545   1.000000
    8      -27.846903   1.000000
    9      -27.837952   1.000000
   10      -14.705174   1.000000
   11      -14.444418   1.000000
   12      -14.374855   1.000000
   13      -14.251822   1.000000
   14      -14.199807   1.000000
   15      -14.165632   1.000000
   16      -14.025674   1.000000
   17      -14.016462   1.000000
   18      -13.979657   1.000000
   19       -5.311887   1.000000
   20       -3.868913   1.000000
   21       -2.551915   1.000000
   22       -1.870254   1.000000
   23       -1.695575   1.000000
   24       -1.635117   1.000000
   25       -1.260752   1.000000
   26       -1.163523   1.000000
   27       -1.027909   1.000000
   28       -0.666691   1.000000
   29       -0.390209   1.000000
   30        0.933429   1.000000
   31        1.191523   1.000000
   32        2.022730   1.000000
   33        3.484463   0.999999
   34        4.471632   0.000000
   35        4.712534   0.000000
   36        5.028655   0.000000
   37        5.166346   0.000000
   38        5.621563   0.000000
   39        5.774063   0.000000
   40        5.869714   0.000000
   41        6.116410   0.000000
   42        6.442464   0.000000
   43        6.798141   0.000000
   44        7.220092   0.000000
 
  0.2727273E+00  0.3621235E-15  0.3608225E-15  0.4545455E-02
    1      -32.191821   1.000000
    2      -32.160710   1.000000
    3      -32.008877   1.000000
    4      -27.971401   1.000000
    5      -27.962456   1.000000
    6      -27.958698   1.000000
    7      -27.888052   1.000000
    8      -27.870196   1.000000
    9      -27.866605   1.000000
   10      -14.685440   1.000000
   11      -14.461692   1.000000
   12      -14.389103   1.000000
   13      -14.325723   1.000000
   14      -14.310294   1.000000
   15      -14.176241   1.000000
   16      -14.160138   1.000000
   17      -13.999430   1.000000
   18      -13.970064   1.000000
   19       -4.787750   1.000000
   20       -3.561489   1.000000
   21       -2.313941   1.000000
   22       -1.643382   1.000000
   23       -1.623512   1.000000
   24       -1.551686   1.000000
   25       -1.356854   1.000000
   26       -1.214651   1.000000
   27       -0.920036   1.000000
   28       -0.874584   1.000000
   29       -0.541806   1.000000
   30        0.437190   1.000000
   31        0.479153   1.000000
   32        1.709450   1.000000
   33        3.055463   1.000000
   34        4.560679   0.000000
   35        4.975521   0.000000
   36        5.053651   0.000000
   37        5.349711   0.000000
   38        5.548373   0.000000
   39        5.727118   0.000000
   40        5.896787   0.000000
   41        6.327340   0.000000
   42        6.798232   0.000000
   43        6.962159   0.000000
   44        7.320230   0.000000
 
  0.3636364E+00  0.3491131E-15  0.3330669E-15  0.4545455E-02
    1      -32.178640   1.000000
    2      -32.154715   1.000000
    3      -31.998769   1.000000
    4      -27.967807   1.000000
    5      -27.959760   1.000000
    6      -27.955333   1.000000
    7      -27.914298   1.000000
    8      -27.899227   1.000000
    9      -27.868199   1.000000
   10      -14.677177   1.000000
   11      -14.546780   1.000000
   12      -14.508648   1.000000
   13      -14.344882   1.000000
   14      -14.294316   1.000000
   15      -14.271302   1.000000
   16      -14.164150   1.000000
   17      -13.983084   1.000000
   18      -13.960915   1.000000
   19       -4.149786   1.000000
   20       -3.280942   1.000000
   21       -2.299828   1.000000
   22       -1.614404   1.000000
   23       -1.562462   1.000000
   24       -1.429086   1.000000
   25       -1.302857   1.000000
   26       -1.229021   1.000000
   27       -1.072111   1.000000
   28       -0.762168   1.000000
   29       -0.738558   1.000000
   30       -0.096081   1.000000
   31        0.090954   1.000000
   32        1.573211   1.000000
   33        2.706075   1.000000
   34        4.317409   0.000000
   35        4.907785   0.000000
   36        5.344747   0.000000
   37        5.381157   0.000000
   38        5.438140   0.000000
   39        5.704389   0.000000
   40        6.154919   0.000000
   41        6.236846   0.000000
   42        6.813861   0.000000
   43        7.128404   0.000000
   44        7.609096   0.000000
 
  0.4545455E+00  0.3634246E-15  0.3608225E-15  0.4545455E-02
    1      -32.170144   1.000000
    2      -32.151778   1.000000
    3      -31.992742   1.000000
    4      -27.965983   1.000000
    5      -27.958444   1.000000
    6      -27.953245   1.000000
    7      -27.931051   1.000000
    8      -27.916131   1.000000
    9      -27.867698   1.000000
   10      -14.690208   1.000000
   11      -14.613482   1.000000
   12      -14.560279   1.000000
   13      -14.399767   1.000000
   14      -14.308846   1.000000
   15      -14.222588   1.000000
   16      -14.182743   1.000000
   17      -13.973215   1.000000
   18      -13.955645   1.000000
   19       -3.501691   1.000000
   20       -3.125258   1.000000
   21       -2.683785   1.000000
   22       -1.575787   1.000000
   23       -1.454336   1.000000
   24       -1.419220   1.000000
   25       -1.277618   1.000000
   26       -1.160285   1.000000
   27       -1.098888   1.000000
   28       -0.948925   1.000000
   29       -0.568457   1.000000
   30       -0.374642   1.000000
   31       -0.197304   1.000000
   32        1.537857   1.000000
   33        2.528143   1.000000
   34        4.080212   0.004786
   35        5.068834   0.000000
   36        5.304545   0.000000
   37        5.405077   0.000000
   38        5.522262   0.000000
   39        5.705587   0.000000
   40        6.012105   0.000000
   41        6.055269   0.000000
   42        6.982806   0.000000
   43        7.190585   0.000000
   44        7.558072   0.000000
 
  0.3754592E-15  0.1250000E+00  0.3816392E-15  0.4545455E-02
    1      -32.217693   1.000000
    2      -32.177510   1.000000
    3      -32.031185   1.000000
    4      -27.979956   1.000000
    5      -27.969949   1.000000
    6      -27.965194   1.000000
    7      -27.878038   1.000000
    8      -27.814254   1.000000
    9      -27.803747   1.000000
   10      -14.734647   1.000000
   11      -14.465187   1.000000
   12      -14.409681   1.000000
   13      -14.182760   1.000000
   14      -14.099390   1.000000
   15      -14.039980   1.000000
   16      -14.038285   1.000000
   17      -13.993442   1.000000
   18      -13.854611   1.000000
   19       -5.677028   1.000000
   20       -4.181731   1.000000
   21       -2.840069   1.000000
   22       -2.147265   1.000000
   23       -1.911213   1.000000
   24       -1.765684   1.000000
   25       -1.250948   1.000000
   26       -1.115704   1.000000
   27       -0.902165   1.000000
   28       -0.488948   1.000000
   29       -0.267714   1.000000
   30        1.512722   1.000000
   31        2.476743   1.000000
   32        2.582744   1.000000
   33        3.772578   1.044403
   34        4.138492   0.001851
   35        4.270785   0.000002
   36        4.305122   0.000000
   37        4.596259   0.000000
   38        5.372337   0.000000
   39        5.552619   0.000000
   40        5.827849   0.000000
   41        6.347104   0.000000
   42        6.660278   0.000000
   43        6.859902   0.000000
   44        7.232622   0.000000
 
  0.9090909E-01  0.1250000E+00  0.3608225E-15  0.4545455E-02
    1      -32.213879   1.000000
    2      -32.175470   1.000000
    3      -32.028014   1.000000
    4      -27.978758   1.000000
    5      -27.968884   1.000000
    6      -27.964285   1.000000
    7      -27.877635   1.000000
    8      -27.823359   1.000000
    9      -27.813057   1.000000
   10      -14.729169   1.000000
   11      -14.456901   1.000000
   12      -14.397579   1.000000
   13      -14.178872   1.000000
   14      -14.140415   1.000000
   15      -14.083877   1.000000
   16      -14.034614   1.000000
   17      -13.992016   1.000000
   18      -13.901776   1.000000
   19       -5.552640   1.000000
   20       -4.112081   1.000000
   21       -2.751013   1.000000
   22       -2.075633   1.000000
   23       -1.859436   1.000000
   24       -1.725102   1.000000
   25       -1.259772   1.000000
   26       -1.151195   1.000000
   27       -0.913326   1.000000
   28       -0.553245   1.000000
   29       -0.250710   1.000000
   30        1.336251   1.000000
   31        1.893551   1.000000
   32        2.348032   1.000000
   33        3.844522   0.876852
   34        4.178600   0.000396
   35        4.376838   0.000000
   36        4.664770   0.000000
   37        4.768819   0.000000
   38        5.465284   0.000000
   39        5.591832   0.000000
   40        5.915303   0.000000
   41        6.254089   0.000000
   42        6.558574   0.000000
   43        6.857146   0.000000
   44        7.227209   0.000000
 
  0.1818182E+00  0.1250000E+00  0.3885781E-15  0.4545455E-02
    1      -32.203875   1.000000
    2      -32.169646   1.000000
    3      -32.019637   1.000000
    4      -27.975567   1.000000
    5      -27.966012   1.000000
    6      -27.962017   1.000000
    7      -27.877554   1.000000
    8      -27.847005   1.000000
    9      -27.837908   1.000000
   10      -14.710927   1.000000
   11      -14.441250   1.000000
   12      -14.371952   1.000000
   13      -14.247697   1.000000
   14      -14.204218   1.000000
   15      -14.159992   1.000000
   16      -14.029779   1.000000
   17      -14.019406   1.000000
   18      -13.983132   1.000000
   19       -5.212528   1.000000
   20       -3.883940   1.000000
   21       -2.537663   1.000000
   22       -1.873282   1.000000
   23       -1.728602   1.000000
   24       -1.679677   1.000000
   25       -1.288047   1.000000
   26       -1.237438   1.000000
   27       -0.909359   1.000000
   28       -0.682068   1.000000
   29       -0.311311   1.000000
   30        0.910774   1.000000
   31        1.097638   1.000000
   32        1.832703   1.000000
   33        3.539692   0.999972
   34        4.383170   0.000000
   35        4.665988   0.000000
   36        5.070219   0.000000
   37        5.160424   0.000000
   38        5.669084   0.000000
   39        5.729765   0.000000
   40        5.795809   0.000000
   41        6.204008   0.000000
   42        6.746306   0.000000
   43        6.774327   0.000000
   44        7.263217   0.000000
 
  0.2727273E+00  0.1250000E+00  0.3608225E-15  0.4545455E-02
    1      -32.190475   1.000000
    2      -32.162192   1.000000
    3      -32.008678   1.000000
    4      -27.971457   1.000000
    5      -27.962543   1.000000
    6      -27.958715   1.000000
    7      -27.888129   1.000000
    8      -27.870150   1.000000
    9      -27.866644   1.000000
   10      -14.687849   1.000000
   11      -14.460373   1.000000
   12      -14.398992   1.000000
   13      -14.335430   1.000000
   14      -14.283026   1.000000
   15      -14.180060   1.000000
   16      -14.156566   1.000000
   17      -14.004582   1.000000
   18      -13.974400   1.000000
   19       -4.698637   1.000000
   20       -3.564753   1.000000
   21       -2.284475   1.000000
   22       -1.713074   1.000000
   23       -1.653155   1.000000
   24       -1.580940   1.000000
   25       -1.336370   1.000000
   26       -1.281884   1.000000
   27       -0.861114   1.000000
   28       -0.810501   1.000000
   29       -0.469197   1.000000
   30        0.362711   1.000000
   31        0.466669   1.000000
   32        1.488748   1.000000
   33        3.114098   1.000000
   34        4.476731   0.000000
   35        4.821002   0.000000
   36        5.043215   0.000000
   37        5.469389   0.000000
   38        5.696288   0.000000
   39        5.739386   0.000000
   40        5.894436   0.000000
   41        6.469483   0.000000
   42        6.871100   0.000000
   43        6.993267   0.000000
   44        7.136695   0.000000
 
  0.3636364E+00  0.1250000E+00  0.3885781E-15  0.4545455E-02
    1      -32.177619   1.000000
    2      -32.155787   1.000000
    3      -31.998618   1.000000
    4      -27.968008   1.000000
    5      -27.959962   1.000000
    6      -27.955466   1.000000
    7      -27.914515   1.000000
    8      -27.899337   1.000000
    9      -27.868280   1.000000
   10      -14.674483   1.000000
   11      -14.549816   1.000000
   12      -14.513765   1.000000
   13      -14.340153   1.000000
   14      -14.305101   1.000000
   15      -14.259017   1.000000
   16      -14.159788   1.000000
   17      -13.987018   1.000000
   18      -13.965133   1.000000
   19       -4.080289   1.000000
   20       -3.256734   1.000000
   21       -2.273339   1.000000
   22       -1.722404   1.000000
   23       -1.631696   1.000000
   24       -1.425630   1.000000
   25       -1.316903   1.000000
   26       -1.220051   1.000000
   27       -1.016457   1.000000
   28       -0.688990   1.000000
   29       -0.652399   1.000000
   30       -0.130281   1.000000
   31        0.044525   1.000000
   32        1.343680   1.000000
   33        2.759296   1.000000
   34        4.275958   0.000001
   35        4.909460   0.000000
   36        5.036525   0.000000
   37        5.348272   0.000000
   38        5.630694   0.000000
   39        5.770144   0.000000
   40        6.271622   0.000000
   41        6.386619   0.000000
   42        6.858670   0.000000
   43        7.268311   0.000000
   44        7.428810   0.000000
 
  0.4545455E+00  0.1250000E+00  0.4718448E-15  0.4545455E-02
    1      -32.169655   1.000000
    2      -32.152227   1.000000
    3      -31.992654   1.000000
    4      -27.966123   1.000000
    5      -27.958512   1.000000
    6      -27.953384   1.000000
    7      -27.931214   1.000000
    8      -27.916212   1.000000
    9      -27.867646   1.000000
   10      -14.684876   1.000000
   11      -14.615193   1.000000
   12      -14.564953   1.000000
   13      -14.400156   1.000000
   14      -14.313183   1.000000
   15      -14.219416   1.000000
   16      -14.176881   1.000000
   17      -13.975575   1.000000
   18      -13.958198   1.000000
   19       -3.460703   1.000000
   20       -3.072555   1.000000
   21       -2.662770   1.000000
   22       -1.618547   1.000000
   23       -1.530614   1.000000
   24       -1.389702   1.000000
   25       -1.325820   1.000000
   26       -1.246042   1.000000
   27       -1.010545   1.000000
   28       -0.821612   1.000000
   29       -0.496874   1.000000
   30       -0.371245   1.000000
   31       -0.262439   1.000000
   32        1.307298   1.000000
   33        2.557632   1.000000
   34        4.080277   0.004789
   35        4.998163   0.000000
   36        5.142307   0.000000
   37        5.335533   0.000000
   38        5.463742   0.000000
   39        5.809754   0.000000
   40        6.065123   0.000000
   41        6.398549   0.000000
   42        6.988718   0.000000
   43        7.339101   0.000000
   44        7.581528   0.000000
 
 -0.4545455E+00  0.1250000E+00  0.3330669E-15  0.4545455E-02
    1      -32.170083   1.000000
    2      -32.151738   1.000000
    3      -31.992718   1.000000
    4      -27.966178   1.000000
    5      -27.958475   1.000000
    6      -27.953345   1.000000
    7      -27.931138   1.000000
    8      -27.916199   1.000000
    9      -27.867638   1.000000
   10      -14.684892   1.000000
   11      -14.617013   1.000000
   12      -14.559341   1.000000
   13      -14.404312   1.000000
   14      -14.313813   1.000000
   15      -14.214283   1.000000
   16      -14.184173   1.000000
   17      -13.974880   1.000000
   18      -13.955401   1.000000
   19       -3.498043   1.000000
   20       -3.044127   1.000000
   21       -2.630414   1.000000
   22       -1.600538   1.000000
   23       -1.501252   1.000000
   24       -1.398361   1.000000
   25       -1.342287   1.000000
   26       -1.235276   1.000000
   27       -1.052111   1.000000
   28       -0.828569   1.000000
   29       -0.595838   1.000000
   30       -0.372791   1.000000
   31       -0.168429   1.000000
   32        1.309280   1.000000
   33        2.538520   1.000000
   34        4.107999   0.004000
   35        5.003063   0.000000
   36        5.136427   0.000000
   37        5.297672   0.000000
   38        5.587707   0.000000
   39        5.809892   0.000000
   40        5.968801   0.000000
   41        6.338067   0.000000
   42        7.022008   0.000000
   43        7.347743   0.000000
   44        7.637936   0.000000
 
 -0.3636364E+00  0.1250000E+00  0.3330669E-15  0.4545455E-02
    1      -32.178517   1.000000
    2      -32.154727   1.000000
    3      -31.998793   1.000000
    4      -27.967972   1.000000
    5      -27.959820   1.000000
    6      -27.955438   1.000000
    7      -27.914376   1.000000
    8      -27.899283   1.000000
    9      -27.868204   1.000000
   10      -14.673809   1.000000
   11      -14.547963   1.000000
   12      -14.506776   1.000000
   13      -14.361766   1.000000
   14      -14.293123   1.000000
   15      -14.258898   1.000000
   16      -14.168042   1.000000
   17      -13.984566   1.000000
   18      -13.958453   1.000000
   19       -4.119787   1.000000
   20       -3.186080   1.000000
   21       -2.261229   1.000000
   22       -1.668562   1.000000
   23       -1.609145   1.000000
   24       -1.410837   1.000000
   25       -1.373395   1.000000
   26       -1.234437   1.000000
   27       -1.037840   1.000000
   28       -0.740377   1.000000
   29       -0.722202   1.000000
   30       -0.123408   1.000000
   31        0.122731   1.000000
   32        1.354511   1.000000
   33        2.709965   1.000000
   34        4.352609   0.000000
   35        4.912718   0.000000
   36        5.036934   0.000000
   37        5.325883   0.000000
   38        5.703309   0.000000
   39        5.848991   0.000000
   40        6.103259   0.000000
   41        6.260649   0.000000
   42        6.935023   0.000000
   43        7.273919   0.000000
   44        7.694956   0.000000
 
 -0.2727273E+00  0.1250000E+00  0.3261280E-15  0.4545455E-02
    1      -32.191390   1.000000
    2      -32.161067   1.000000
    3      -32.008916   1.000000
    4      -27.971531   1.000000
    5      -27.962540   1.000000
    6      -27.958772   1.000000
    7      -27.888113   1.000000
    8      -27.870245   1.000000
    9      -27.866540   1.000000
   10      -14.683396   1.000000
   11      -14.460248   1.000000
   12      -14.398165   1.000000
   13      -14.331252   1.000000
   14      -14.301557   1.000000
   15      -14.175671   1.000000
   16      -14.163942   1.000000
   17      -14.000809   1.000000
   18      -13.966732   1.000000
   19       -4.732780   1.000000
   20       -3.477251   1.000000
   21       -2.326403   1.000000
   22       -1.683524   1.000000
   23       -1.637030   1.000000
   24       -1.582734   1.000000
   25       -1.352049   1.000000
   26       -1.296229   1.000000
   27       -0.882246   1.000000
   28       -0.779234   1.000000
   29       -0.582611   1.000000
   30        0.373124   1.000000
   31        0.518748   1.000000
   32        1.504936   1.000000
   33        3.051607   1.000000
   34        4.588728   0.000000
   35        4.890410   0.000000
   36        5.049583   0.000000
   37        5.300705   0.000000
   38        5.626014   0.000000
   39        5.812716   0.000000
   40        6.043194   0.000000
   41        6.382727   0.000000
   42        6.799595   0.000000
   43        7.050610   0.000000
   44        7.077228   0.000000
 
 -0.1818182E+00  0.1250000E+00  0.3608225E-15  0.4545455E-02
    1      -32.204580   1.000000
    2      -32.168743   1.000000
    3      -32.019858   1.000000
    4      -27.975639   1.000000
    5      -27.966000   1.000000
    6      -27.962105   1.000000
    7      -27.877507   1.000000
    8      -27.846948   1.000000
    9      -27.837941   1.000000
   10      -14.705214   1.000000
   11      -14.448938   1.000000
   12      -14.370805   1.000000
   13      -14.246939   1.000000
   14      -14.210003   1.000000
   15      -14.167219   1.000000
   16      -14.024218   1.000000
   17      -14.018261   1.000000
   18      -13.976911   1.000000
   19       -5.237237   1.000000
   20       -3.810985   1.000000
   21       -2.580565   1.000000
   22       -1.872622   1.000000
   23       -1.728086   1.000000
   24       -1.681445   1.000000
   25       -1.287654   1.000000
   26       -1.235379   1.000000
   27       -0.916779   1.000000
   28       -0.608054   1.000000
   29       -0.447022   1.000000
   30        0.921622   1.000000
   31        1.143080   1.000000
   32        1.842460   1.000000
   33        3.475314   1.000000
   34        4.467959   0.000000
   35        4.859063   0.000000
   36        4.951706   0.000000
   37        5.154851   0.000000
   38        5.504049   0.000000
   39        5.755779   0.000000
   40        6.022172   0.000000
   41        6.128685   0.000000
   42        6.513914   0.000000
   43        6.863995   0.000000
   44        7.177238   0.000000
 
 -0.9090909E-01  0.1250000E+00  0.3781697E-15  0.4545455E-02
    1      -32.214258   1.000000
    2      -32.174971   1.000000
    3      -32.028148   1.000000
    4      -27.978721   1.000000
    5      -27.968828   1.000000
    6      -27.964345   1.000000
    7      -27.877615   1.000000
    8      -27.823308   1.000000
    9      -27.812998   1.000000
   10      -14.725328   1.000000
   11      -14.460719   1.000000
   12      -14.399724   1.000000
   13      -14.181300   1.000000
   14      -14.141456   1.000000
   15      -14.085693   1.000000
   16      -14.031946   1.000000
   17      -13.987125   1.000000
   18      -13.901498   1.000000
   19       -5.565749   1.000000
   20       -4.071078   1.000000
   21       -2.775273   1.000000
   22       -2.069206   1.000000
   23       -1.849027   1.000000
   24       -1.748678   1.000000
   25       -1.258205   1.000000
   26       -1.146648   1.000000
   27       -0.913243   1.000000
   28       -0.496457   1.000000
   29       -0.342351   1.000000
   30        1.341228   1.000000
   31        1.958200   1.000000
   32        2.317174   1.000000
   33        3.791049   1.051471
   34        4.248483   0.000009
   35        4.523878   0.000000
   36        4.547038   0.000000
   37        4.755089   0.000000
   38        5.518811   0.000000
   39        5.620626   0.000000
   40        5.894412   0.000000
   41        6.243045   0.000000
   42        6.496800   0.000000
   43        6.764490   0.000000
   44        7.196836   0.000000
 
  0.3716645E-15  0.2500000E+00  0.3469447E-15  0.4545455E-02
    1      -32.213989   1.000000
    2      -32.181639   1.000000
    3      -32.030907   1.000000
    4      -27.979691   1.000000
    5      -27.970112   1.000000
    6      -27.965480   1.000000
    7      -27.878037   1.000000
    8      -27.814186   1.000000
    9      -27.803769   1.000000
   10      -14.745767   1.000000
   11      -14.476368   1.000000
   12      -14.377518   1.000000
   13      -14.196303   1.000000
   14      -14.093003   1.000000
   15      -14.052261   1.000000
   16      -14.046058   1.000000
   17      -13.992026   1.000000
   18      -13.854983   1.000000
   19       -5.405685   1.000000
   20       -4.156149   1.000000
   21       -2.949526   1.000000
   22       -2.213260   1.000000
   23       -2.000506   1.000000
   24       -1.807837   1.000000
   25       -1.364125   1.000000
   26       -1.068403   1.000000
   27       -0.818537   1.000000
   28       -0.439787   1.000000
   29       -0.210455   1.000000
   30        1.471215   1.000000
   31        2.072637   1.000000
   32        2.371424   1.000000
   33        3.746784   1.020729
   34        3.901632   0.325943
   35        4.245732   0.000011
   36        4.464387   0.000000
   37        4.668261   0.000000
   38        5.213632   0.000000
   39        5.383047   0.000000
   40        6.313637   0.000000
   41        6.443546   0.000000
   42        6.655876   0.000000
   43        7.157574   0.000000
   44        7.170617   0.000000
 
  0.9090909E-01  0.2500000E+00  0.3608225E-15  0.4545455E-02
    1      -32.210177   1.000000
    2      -32.179584   1.000000
    3      -32.027727   1.000000
    4      -27.978663   1.000000
    5      -27.969148   1.000000
    6      -27.964576   1.000000
    7      -27.877723   1.000000
    8      -27.823319   1.000000
    9      -27.813117   1.000000
   10      -14.739363   1.000000
   11      -14.468757   1.000000
   12      -14.365824   1.000000
   13      -14.194465   1.000000
   14      -14.131838   1.000000
   15      -14.088087   1.000000
   16      -14.049439   1.000000
   17      -13.990991   1.000000
   18      -13.902242   1.000000
   19       -5.287107   1.000000
   20       -4.083575   1.000000
   21       -2.854503   1.000000
   22       -2.182532   1.000000
   23       -1.946471   1.000000
   24       -1.723235   1.000000
   25       -1.390154   1.000000
   26       -1.092376   1.000000
   27       -0.840068   1.000000
   28       -0.488140   1.000000
   29       -0.170486   1.000000
   30        1.296081   1.000000
   31        1.607541   1.000000
   32        2.013160   1.000000
   33        3.907688   0.267595
   34        4.119874   0.003119
   35        4.291688   0.000000
   36        4.565096   0.000000
   37        4.837512   0.000000
   38        5.319521   0.000000
   39        5.498369   0.000000
   40        6.108002   0.000000
   41        6.421141   0.000000
   42        6.855610   0.000000
   43        7.073678   0.000000
   44        7.222535   0.000000
 
  0.1818182E+00  0.2500000E+00  0.3885781E-15  0.4545455E-02
    1      -32.200491   1.000000
    2      -32.173328   1.000000
    3      -32.019359   1.000000
    4      -27.975632   1.000000
    5      -27.966279   1.000000
    6      -27.962141   1.000000
    7      -27.877591   1.000000
    8      -27.847125   1.000000
    9      -27.837860   1.000000
   10      -14.718132   1.000000
   11      -14.447258   1.000000
   12      -14.357131   1.000000
   13      -14.249853   1.000000
   14      -14.204686   1.000000
   15      -14.156419   1.000000
   16      -14.039876   1.000000
   17      -14.023917   1.000000
   18      -13.983540   1.000000
   19       -4.967292   1.000000
   20       -3.837155   1.000000
   21       -2.623793   1.000000
   22       -2.041729   1.000000
   23       -1.774690   1.000000
   24       -1.657606   1.000000
   25       -1.443923   1.000000
   26       -1.153347   1.000000
   27       -0.843547   1.000000
   28       -0.573021   1.000000
   29       -0.190110   1.000000