unknown system                          
           1
     2.819351    0.002387    0.014001
     0.018416    4.279832    0.027766
     1.410057    2.162848    8.161725
   H 
  17
Direct configuration=     1
   0.84911925  0.96586784  0.13216287
   0.64898840  0.84216912  0.14746755
   0.12098635  0.42931024  0.18230755
   0.34403151  0.34376783  0.16094842
   0.72364238  0.06401326  0.41683799
   0.67298091  0.54442209  0.41126724
   0.50142079  0.03271847  0.38608904
   0.00511046  0.56517745  0.41319973
   0.34204571  0.55666734  0.41199165
   0.73609780  0.59787239  0.92739736
   0.95796009  0.50391614  0.91862755
   0.45340766  0.07789931  0.91378779
   0.27577834  0.05416366  0.86198994
   0.57888579  0.54303667  0.69138324
   0.40663669  0.66035109  0.65412170
   0.90168441  0.04313926  0.65869518
   0.10498948  0.16590483  0.62359421
unknown system                          
           1
     2.819880    0.002002    0.014097
     0.017833    4.279810    0.028504
     1.410322    2.164075    8.158300
   H 
  17
Direct configuration=     2
   0.84889305  0.96567702  0.13223429
   0.64898320  0.84222147  0.14747475
   0.12078702  0.42926088  0.18217455
   0.34408853  0.34364666  0.16088459
   0.72368177  0.06366877  0.41688741
   0.67449901  0.54450421  0.41117684
   0.50144277  0.03300261  0.38619874
   0.00385209  0.56524288  0.41310382
   0.34194049  0.55683375  0.41189184
   0.73628521  0.59799639  0.92731892
   0.95827604  0.50391457  0.91852434
   0.45343135  0.07802137  0.91381360
   0.27598692  0.05392587  0.86217036
   0.57870053  0.54308463  0.69136327
   0.40654866  0.66042451  0.65413998
   0.90161313  0.04320223  0.65881323
   0.10475623  0.16576917  0.62369846
unknown system                          
           1
     2.819955    0.001947    0.014111
     0.017749    4.279807    0.028610
     1.410360    2.164251    8.157808
   H 
  17
Direct configuration=     3
   0.84886059  0.96564963  0.13224455
   0.64898245  0.84222899  0.14747579
   0.12075843  0.42925381  0.18215546
   0.34409671  0.34362928  0.16087543
   0.72368740  0.06361934  0.41689451
   0.67471679  0.54451602  0.41116386
   0.50144592  0.03304337  0.38621448
   0.00367159  0.56525225  0.41309006
   0.34192541  0.55685764  0.41187751
   0.73631211  0.59801419  0.92730767
   0.95832136  0.50391435  0.91850952
   0.45343475  0.07803889  0.91381730
   0.27601683  0.05389174  0.86219626
   0.57867395  0.54309151  0.69136040
   0.40653604  0.66043504  0.65414260
   0.90160290  0.04321126  0.65883018
   0.10472277  0.16574970  0.62371343
