  21  21   0   0
  0.5901568E+01  0.3437579E-09  0.5202979E-09  0.7092939E-09  0.5000000E-15
  1.000000000000000E-004
  CAR 
 unknown system                          
     12.11286175    -13.14870636  301     -2.01765397      1.00000000
    -13.149  0.0000E+00  0.0000E+00
    -13.065  0.0000E+00  0.0000E+00
    -12.980  0.0000E+00  0.0000E+00
    -12.896  0.0000E+00  0.0000E+00
    -12.812  0.1252E-29  0.1054E-30
    -12.728  0.3781E-24  0.3184E-25
    -12.643  0.2653E-19  0.2234E-20
    -12.559  0.4289E-15  0.3612E-16
    -12.475  0.1571E-11  0.1323E-12
    -12.391  0.1280E-08  0.1079E-09
    -12.307  0.2222E-06  0.1882E-07
    -12.222  0.7149E-05  0.6208E-06
    -12.138  0.9953E-05  0.1459E-05
    -12.054 -0.1325E-03 -0.9701E-05
    -11.970  0.1424E-02  0.1102E-03
    -11.886  0.7156E-02  0.7128E-03
    -11.801  0.1538E-01  0.2007E-02
    -11.717  0.1766E-01  0.3494E-02
    -11.633  0.1807E-01  0.5016E-02
    -11.549  0.2336E-01  0.6983E-02
    -11.465  0.2548E-01  0.9128E-02
    -11.380  0.2032E-01  0.1084E-01
    -11.296  0.9709E-02  0.1166E-01
    -11.212  0.1049E-01  0.1254E-01
    -11.128  0.1442E-01  0.1375E-01
    -11.044  0.1330E-01  0.1487E-01
    -10.959  0.1294E-01  0.1596E-01
    -10.875  0.1888E-01  0.1755E-01
    -10.791  0.1561E-01  0.1887E-01
    -10.707  0.1953E-01  0.2051E-01
    -10.623  0.2660E-01  0.2275E-01
    -10.538  0.2773E-01  0.2509E-01
    -10.454  0.3805E-01  0.2829E-01
    -10.370  0.2842E-01  0.3069E-01
    -10.286  0.2654E-01  0.3292E-01
    -10.202  0.3212E-01  0.3562E-01
    -10.117  0.2681E-01  0.3788E-01
    -10.033  0.2148E-01  0.3969E-01
     -9.949  0.2250E-01  0.4158E-01
     -9.865  0.2650E-01  0.4382E-01
     -9.780  0.2763E-01  0.4614E-01
     -9.696  0.3856E-01  0.4939E-01
     -9.612  0.4032E-01  0.5279E-01
     -9.528  0.3498E-01  0.5573E-01
     -9.444  0.4602E-01  0.5961E-01
     -9.359  0.5421E-01  0.6417E-01
     -9.275  0.5056E-01  0.6843E-01
     -9.191  0.4193E-01  0.7196E-01
     -9.107  0.4808E-01  0.7601E-01
     -9.023  0.4861E-01  0.8010E-01
     -8.938  0.4565E-01  0.8394E-01
     -8.854  0.4443E-01  0.8769E-01
     -8.770  0.3608E-01  0.9072E-01
     -8.686  0.4763E-01  0.9473E-01
     -8.602  0.5779E-01  0.9960E-01
     -8.517  0.5666E-01  0.1044E+00
     -8.433  0.4966E-01  0.1086E+00
     -8.349  0.5895E-01  0.1135E+00
     -8.265  0.6098E-01  0.1187E+00
     -8.181  0.7824E-01  0.1252E+00
     -8.096  0.8023E-01  0.1320E+00
     -8.012  0.6955E-01  0.1379E+00
     -7.928  0.8018E-01  0.1446E+00
     -7.844  0.8877E-01  0.1521E+00
     -7.760  0.6642E-01  0.1577E+00
     -7.675  0.8831E-01  0.1651E+00
     -7.591  0.1174E+00  0.1750E+00
     -7.507  0.1020E+00  0.1836E+00
     -7.423  0.1026E+00  0.1922E+00
     -7.339  0.1055E+00  0.2011E+00
     -7.254  0.9988E-01  0.2095E+00
     -7.170  0.7586E-01  0.2159E+00
     -7.086  0.7754E-01  0.2224E+00
     -7.002  0.1108E+00  0.2318E+00
     -6.918  0.1271E+00  0.2425E+00
     -6.833  0.1163E+00  0.2522E+00
     -6.749  0.1228E+00  0.2626E+00
     -6.665  0.1379E+00  0.2742E+00
     -6.581  0.1153E+00  0.2839E+00
     -6.496  0.1120E+00  0.2933E+00
     -6.412  0.9430E-01  0.3013E+00
     -6.328  0.6623E-01  0.3069E+00
     -6.244  0.7640E-01  0.3133E+00
     -6.160  0.4900E-01  0.3174E+00
     -6.075  0.1650E-01  0.3188E+00
     -5.991  0.2781E-01  0.3211E+00
     -5.907  0.3435E-01  0.3240E+00
     -5.823  0.3644E-01  0.3271E+00
     -5.739  0.2975E-01  0.3296E+00
     -5.654  0.2708E-01  0.3319E+00
     -5.570  0.2600E-01  0.3341E+00
     -5.486  0.2037E-01  0.3358E+00
     -5.402  0.4025E-02  0.3361E+00
     -5.318 -0.2337E-03  0.3361E+00
     -5.233 -0.1014E-02  0.3360E+00
     -5.149  0.1107E-01  0.3370E+00
     -5.065  0.2942E-01  0.3394E+00
     -4.981  0.2267E-01  0.3413E+00
     -4.897  0.4421E-02  0.3417E+00
     -4.812 -0.7081E-03  0.3417E+00
     -4.728  0.6741E-04  0.3417E+00
     -4.644  0.1870E-04  0.3417E+00
     -4.560  0.3855E-06  0.3417E+00
     -4.476  0.1485E-08  0.3417E+00
     -4.391  0.1230E-11  0.3417E+00
     -4.307  0.1134E-13  0.3417E+00
     -4.223  0.4502E-10  0.3417E+00
     -4.139  0.3979E-07  0.3417E+00
     -4.055  0.7012E-05  0.3417E+00
     -3.970  0.1807E-03  0.3417E+00
     -3.886 -0.7495E-03  0.3416E+00
     -3.802 -0.4743E-03  0.3416E+00
     -3.718  0.4305E-01  0.3452E+00
     -3.634  0.2713E-01  0.3475E+00
     -3.549 -0.3337E-02  0.3472E+00
     -3.465  0.8325E-04  0.3472E+00
     -3.381  0.8276E-04  0.3472E+00
     -3.297  0.1615E-05  0.3472E+00
     -3.212  0.5373E-08  0.3472E+00
     -3.128  0.3701E-11  0.3472E+00
     -3.044  0.5637E-15  0.3472E+00
     -2.960  0.0000E+00  0.3472E+00
     -2.876  0.1437E-30  0.3472E+00
     -2.791  0.8278E-25  0.3472E+00
     -2.707  0.1120E-19  0.3472E+00
     -2.623  0.3524E-15  0.3472E+00
     -2.539  0.2535E-11  0.3472E+00
     -2.455  0.4025E-08  0.3472E+00
     -2.370  0.1322E-05  0.3472E+00
     -2.286  0.7463E-04  0.3472E+00
     -2.202  0.1377E-03  0.3472E+00
     -2.118 -0.3441E-02  0.3470E+00
     -2.034  0.2548E-01  0.3491E+00
     -1.949  0.4445E-01  0.3528E+00
     -1.865 -0.7311E-04  0.3528E+00
     -1.781 -0.8491E-03  0.3528E+00
     -1.697  0.1912E-03  0.3528E+00
     -1.613  0.7656E-05  0.3528E+00
     -1.528  0.4393E-07  0.3528E+00
     -1.444  0.4981E-10  0.3528E+00
     -1.360  0.1225E-13  0.3528E+00
     -1.276  0.0000E+00  0.3528E+00
     -1.192  0.0000E+00  0.3528E+00
     -1.107  0.0000E+00  0.3528E+00
     -1.023  0.0000E+00  0.3528E+00
     -0.939  0.0000E+00  0.3528E+00
     -0.855  0.2793E-28  0.3528E+00
     -0.771  0.9570E-23  0.3528E+00
     -0.686  0.7633E-18  0.3528E+00
     -0.602  0.1399E-13  0.3528E+00
     -0.518  0.5743E-10  0.3528E+00
     -0.434  0.5059E-07  0.3528E+00
     -0.350  0.8683E-05  0.3528E+00
     -0.265  0.2069E-03  0.3528E+00
     -0.181 -0.1005E-02  0.3527E+00
     -0.097  0.5980E-03  0.3528E+00
     -0.013  0.4632E-01  0.3567E+00
      0.072  0.2308E-01  0.3586E+00
      0.156 -0.3501E-02  0.3583E+00
      0.240  0.2003E-03  0.3583E+00
      0.324  0.6409E-04  0.3583E+00
      0.408  0.9945E-06  0.3583E+00
      0.493  0.2678E-08  0.3583E+00
      0.577  0.1489E-11  0.3583E+00
      0.661  0.1824E-15  0.3583E+00
      0.745  0.1327E-15  0.3583E+00
      0.829  0.5645E-12  0.3583E+00
      0.914  0.5126E-09  0.3583E+00
      0.998  0.9050E-07  0.3583E+00
      1.082  0.2313E-05  0.3583E+00
      1.166 -0.4868E-05  0.3583E+00
      1.250  0.2029E-04  0.3583E+00
      1.335  0.2804E-03  0.3584E+00
      1.419  0.1691E-02  0.3585E+00
      1.503  0.5962E-02  0.3590E+00
      1.587  0.4596E-02  0.3594E+00
      1.671  0.2012E-02  0.3596E+00
      1.756  0.7218E-02  0.3602E+00
      1.840  0.1044E-01  0.3610E+00
      1.924  0.9841E-02  0.3619E+00
      2.008  0.6982E-02  0.3625E+00
      2.092  0.7416E-02  0.3631E+00
      2.177  0.3578E-01  0.3661E+00
      2.261  0.4276E-01  0.3697E+00
      2.345  0.2212E-01  0.3716E+00
      2.429  0.1683E-01  0.3730E+00
      2.513  0.2750E-01  0.3753E+00
      2.598  0.2573E-01  0.3775E+00
      2.682  0.1886E-01  0.3791E+00
      2.766  0.4481E-01  0.3828E+00
      2.850  0.5637E-01  0.3876E+00
      2.934  0.6229E-01  0.3928E+00
      3.019  0.5869E-01  0.3978E+00
      3.103  0.5701E-01  0.4026E+00
      3.187  0.6224E-01  0.4078E+00
      3.271  0.6003E-01  0.4129E+00
      3.356  0.6634E-01  0.4184E+00
      3.440  0.6067E-01  0.4235E+00
      3.524  0.7285E-01  0.4297E+00
      3.608  0.7358E-01  0.4359E+00
      3.692  0.8395E-01  0.4429E+00
      3.777  0.8833E-01  0.4504E+00
      3.861  0.7328E-01  0.4566E+00
      3.945  0.7265E-01  0.4627E+00
      4.029  0.7713E-01  0.4692E+00
      4.113  0.6998E-01  0.4751E+00
      4.198  0.6943E-01  0.4809E+00
      4.282  0.6576E-01  0.4864E+00
      4.366  0.6428E-01  0.4919E+00
      4.450  0.6831E-01  0.4976E+00
      4.534  0.7625E-01  0.5040E+00
      4.619  0.7598E-01  0.5104E+00
      4.703  0.7682E-01  0.5169E+00
      4.787  0.6384E-01  0.5223E+00
      4.871  0.7846E-01  0.5289E+00
      4.955  0.8305E-01  0.5359E+00
      5.040  0.6901E-01  0.5417E+00
      5.124  0.6491E-01  0.5471E+00
      5.208  0.6588E-01  0.5527E+00
      5.292  0.7923E-01  0.5594E+00
      5.376  0.6828E-01  0.5651E+00
      5.461  0.6216E-01  0.5704E+00
      5.545  0.6637E-01  0.5759E+00
      5.629  0.6816E-01  0.5817E+00
      5.713  0.6423E-01  0.5871E+00
      5.797  0.5146E-01  0.5914E+00
      5.882  0.4970E-01  0.5956E+00
      5.966  0.5713E-01  0.6004E+00
      6.050  0.6921E-01  0.6062E+00
      6.134  0.5946E-01  0.6113E+00
      6.218  0.6673E-01  0.6169E+00
      6.303  0.6150E-01  0.6220E+00
      6.387  0.4867E-01  0.6261E+00
      6.471  0.5320E-01  0.6306E+00
      6.555  0.6274E-01  0.6359E+00
      6.640  0.6227E-01  0.6412E+00
      6.724  0.5691E-01  0.6459E+00
      6.808  0.5619E-01  0.6507E+00
      6.892  0.5076E-01  0.6550E+00
      6.976  0.5056E-01  0.6592E+00
      7.061  0.5196E-01  0.6636E+00
      7.145  0.6032E-01  0.6687E+00
      7.229  0.5202E-01  0.6730E+00
      7.313  0.3736E-01  0.6762E+00
      7.397  0.5319E-01  0.6807E+00
      7.482  0.7580E-01  0.6871E+00
      7.566  0.6461E-01  0.6925E+00
      7.650  0.4566E-01  0.6963E+00
      7.734  0.5136E-01  0.7007E+00
      7.818  0.6153E-01  0.7058E+00
      7.903  0.4877E-01  0.7099E+00
      7.987  0.3167E-01  0.7126E+00
      8.071  0.3382E-01  0.7155E+00
      8.155  0.4866E-01  0.7196E+00
      8.239  0.6192E-01  0.7248E+00
      8.324  0.5617E-01  0.7295E+00
      8.408  0.5580E-01  0.7342E+00
      8.492  0.5282E-01  0.7387E+00
      8.576  0.4469E-01  0.7424E+00
      8.660  0.4994E-01  0.7466E+00
      8.745  0.4120E-01  0.7501E+00
      8.829  0.3830E-01  0.7533E+00
      8.913  0.4270E-01  0.7569E+00
      8.997  0.3523E-01  0.7599E+00
      9.081  0.3769E-01  0.7630E+00
      9.166  0.4949E-01  0.7672E+00
      9.250  0.4889E-01  0.7713E+00
      9.334  0.3399E-01  0.7742E+00
      9.418  0.2838E-01  0.7766E+00
      9.502  0.3675E-01  0.7797E+00
      9.587  0.2601E-01  0.7819E+00
      9.671  0.2273E-01  0.7838E+00
      9.755  0.2327E-01  0.7857E+00
      9.839  0.1995E-01  0.7874E+00
      9.924  0.1948E-01  0.7891E+00
     10.008  0.1472E-01  0.7903E+00
     10.092  0.1377E-01  0.7915E+00
     10.176  0.2158E-01  0.7933E+00
     10.260  0.1995E-01  0.7950E+00
     10.345  0.1967E-01  0.7966E+00
     10.429  0.8090E-02  0.7973E+00
     10.513  0.4016E-02  0.7976E+00
     10.597  0.9261E-02  0.7984E+00
     10.681  0.7466E-02  0.7990E+00
     10.766  0.2784E-02  0.7993E+00
     10.850  0.2674E-02  0.7995E+00
     10.934  0.3735E-02  0.7998E+00
     11.018  0.2321E-02  0.8000E+00
     11.102 -0.1367E-03  0.8000E+00
     11.187 -0.1707E-04  0.8000E+00
     11.271  0.9105E-05  0.8000E+00
     11.355  0.3099E-06  0.8000E+00
     11.439  0.1731E-08  0.8000E+00
     11.523  0.2008E-11  0.8000E+00
     11.608  0.5182E-15  0.8000E+00
     11.692  0.0000E+00  0.8000E+00
     11.776  0.0000E+00  0.8000E+00
     11.860  0.0000E+00  0.8000E+00
     11.944  0.0000E+00  0.8000E+00
     12.029  0.0000E+00  0.8000E+00
     12.113  0.0000E+00  0.8000E+00
