       N       E                     dE             d eps       ncg     rms          rms(c)
DAV:   1     0.649462574177E+03    0.64946E+03   -0.31742E+04  8192   0.108E+03
DAV:   2    -0.504107727479E+02   -0.69987E+03   -0.65818E+03  8192   0.408E+02
DAV:   3    -0.989373881534E+02   -0.48527E+02   -0.46932E+02 14208   0.103E+02
DAV:   4    -0.100464408635E+03   -0.15270E+01   -0.15114E+01 12384   0.132E+01
DAV:   5    -0.100531268638E+03   -0.66860E-01   -0.66840E-01 12656   0.260E+00    0.584E+01
RMM:   6    -0.984744681237E+02    0.20568E+01   -0.12963E+01  9134   0.133E+01    0.242E+01
RMM:   7    -0.986794616850E+02   -0.20499E+00   -0.32906E+00  8999   0.775E+00    0.825E+00
RMM:   8    -0.986278702763E+02    0.51591E-01   -0.37329E-01  9189   0.325E+00    0.481E+00
RMM:   9    -0.985688510749E+02    0.59019E-01   -0.96856E-02  9149   0.130E+00    0.264E+00
RMM:  10    -0.985871126730E+02   -0.18262E-01   -0.36388E-02  9051   0.797E-01    0.150E+00
RMM:  11    -0.985732505110E+02    0.13862E-01   -0.14405E-02  8821   0.518E-01    0.418E-01
RMM:  12    -0.985748984406E+02   -0.16479E-02   -0.22753E-03  6556   0.244E-01    0.211E-01
RMM:  13    -0.985757428250E+02   -0.84438E-03   -0.65988E-04  5921   0.174E-01
   1 F= -.98575743E+02 E0= -.98575743E+02  d E =-.985757E+02  mag=    -0.0042
       N       E                     dE             d eps       ncg     rms          rms(c)
DAV:   1    -0.988997209614E+02   -0.32482E+00   -0.60277E+00 10208   0.138E+01    0.697E+00
RMM:   2    -0.986689315927E+02    0.23079E+00   -0.67943E-01  9203   0.397E+00    0.140E+00
RMM:   3    -0.986364878352E+02    0.32444E-01   -0.96058E-02  8792   0.186E+00    0.739E-01
RMM:   4    -0.986381310469E+02   -0.16432E-02   -0.16721E-02  9036   0.629E-01    0.686E-01
RMM:   5    -0.986324199990E+02    0.57110E-02   -0.28474E-03  6248   0.386E-01    0.709E-01
RMM:   6    -0.986329390930E+02   -0.51909E-03   -0.39376E-03  6983   0.239E-01
   2 F= -.98632939E+02 E0= -.98632939E+02  d E =-.571963E-01  mag=    -0.0000
       N       E                     dE             d eps       ncg     rms          rms(c)
DAV:   1    -0.986800016929E+02   -0.47582E-01   -0.11797E+00  8768   0.609E+00    0.332E+00
RMM:   2    -0.986350433673E+02    0.44958E-01   -0.13010E-01  8696   0.187E+00    0.613E-01
RMM:   3    -0.986290690681E+02    0.59743E-02   -0.23713E-02  8649   0.891E-01    0.334E-01
RMM:   4    -0.986299521861E+02   -0.88312E-03   -0.29832E-03  6590   0.281E-01
   3 F= -.98629952E+02 E0= -.98629952E+02  d E =-.542094E-01  mag=     0.0000
       N       E                     dE             d eps       ncg     rms          rms(c)
DAV:   1    -0.986318520914E+02   -0.27830E-02   -0.16191E+00  9312   0.853E+00    0.135E+00
RMM:   2    -0.986390353527E+02   -0.71833E-02   -0.24721E-01  9555   0.214E+00    0.473E-01
RMM:   3    -0.986380172697E+02    0.10181E-02   -0.16827E-02  7852   0.114E+00    0.519E-01
RMM:   4    -0.986382006323E+02   -0.18336E-03   -0.38396E-03  6978   0.322E-01
   4 F= -.98638201E+02 E0= -.98638201E+02  d E =-.824845E-02  mag=    -0.0000
       N       E                     dE             d eps       ncg     rms          rms(c)
DAV:   1    -0.986331766548E+02    0.48406E-02   -0.70365E-01  9600   0.557E+00    0.885E-01
RMM:   2    -0.986371541347E+02   -0.39775E-02   -0.11191E-01  9526   0.142E+00    0.338E-01
RMM:   3    -0.986370223707E+02    0.13176E-03   -0.76320E-03  7049   0.766E-01
   5 F= -.98637022E+02 E0= -.98637022E+02  d E =-.707018E-02  mag=     0.0000
