  17  17   0   0
  0.9004003E+01  0.4323776E-09  0.6289266E-09  0.6925724E-09  0.5000000E-15
  1.000000000000000E-004
  CAR 
 unknown system                          
      9.33676873    -35.69714098  301      2.30153163      1.00000000
    -35.697  0.0000E+00  0.0000E+00
    -35.547  0.0000E+00  0.0000E+00
    -35.397  0.0000E+00  0.0000E+00
    -35.247  0.0000E+00  0.0000E+00
    -35.097  0.0000E+00  0.0000E+00
    -34.947  0.0000E+00  0.0000E+00
    -34.796  0.0000E+00  0.0000E+00
    -34.646  0.0000E+00  0.0000E+00
    -34.496  0.9594E-30  0.1440E-30
    -34.346  0.6335E-20  0.9509E-21
    -34.196  0.3927E-12  0.5895E-13
    -34.046  0.1986E-06  0.2981E-07
    -33.896  0.4831E-03  0.7255E-04
    -33.746 -0.1188E-01 -0.1711E-02
    -33.596  0.2221E+00  0.3162E-01
    -33.445  0.7138E-02  0.3269E-01
    -33.295  0.1256E+00  0.5156E-01
    -33.145  0.1024E+00  0.6693E-01
    -32.995 -0.1796E-02  0.6666E-01
    -32.845  0.5337E-04  0.6667E-01
    -32.695  0.2592E-08  0.6667E-01
    -32.545  0.8241E-15  0.6667E-01
    -32.395  0.0000E+00  0.6667E-01
    -32.245  0.0000E+00  0.6667E-01
    -32.094  0.0000E+00  0.6667E-01
    -31.944  0.0000E+00  0.6667E-01
    -31.794  0.0000E+00  0.6667E-01
    -31.644  0.0000E+00  0.6667E-01
    -31.494  0.0000E+00  0.6667E-01
    -31.344  0.0000E+00  0.6667E-01
    -31.194  0.0000E+00  0.6667E-01
    -31.044  0.0000E+00  0.6667E-01
    -30.894  0.0000E+00  0.6667E-01
    -30.743  0.0000E+00  0.6667E-01
    -30.593  0.0000E+00  0.6667E-01
    -30.443  0.0000E+00  0.6667E-01
    -30.293  0.0000E+00  0.6667E-01
    -30.143  0.0000E+00  0.6667E-01
    -29.993  0.4177E-33  0.6667E-01
    -29.843  0.1109E-22  0.6667E-01
    -29.693  0.2832E-14  0.6667E-01
    -29.543  0.6270E-08  0.6667E-01
    -29.392  0.8738E-04  0.6668E-01
    -29.242 -0.3461E-02  0.6616E-01
    -29.092  0.1255E+00  0.8499E-01
    -28.942  0.2373E+00  0.1206E+00
    -28.792  0.3178E+00  0.1683E+00
    -28.642 -0.1179E-01  0.1666E+00
    -28.492  0.7337E-03  0.1667E+00
    -28.342  0.5206E-06  0.1667E+00
    -28.191  0.1651E-11  0.1667E+00
    -28.041  0.0000E+00  0.1667E+00
    -27.891  0.0000E+00  0.1667E+00
    -27.741  0.0000E+00  0.1667E+00
    -27.591  0.0000E+00  0.1667E+00
    -27.441  0.0000E+00  0.1667E+00
    -27.291  0.0000E+00  0.1667E+00
    -27.141  0.0000E+00  0.1667E+00
    -26.991  0.0000E+00  0.1667E+00
    -26.840  0.0000E+00  0.1667E+00
    -26.690  0.0000E+00  0.1667E+00
    -26.540  0.0000E+00  0.1667E+00
    -26.390  0.0000E+00  0.1667E+00
    -26.240  0.0000E+00  0.1667E+00
    -26.090  0.0000E+00  0.1667E+00
    -25.940  0.0000E+00  0.1667E+00
    -25.790  0.0000E+00  0.1667E+00
    -25.640  0.0000E+00  0.1667E+00
    -25.489  0.0000E+00  0.1667E+00
    -25.339  0.0000E+00  0.1667E+00
    -25.189  0.0000E+00  0.1667E+00
    -25.039  0.0000E+00  0.1667E+00
    -24.889  0.0000E+00  0.1667E+00
    -24.739  0.0000E+00  0.1667E+00
    -24.589  0.0000E+00  0.1667E+00
    -24.439  0.0000E+00  0.1667E+00
    -24.289  0.0000E+00  0.1667E+00
    -24.138  0.0000E+00  0.1667E+00
    -23.988  0.0000E+00  0.1667E+00
    -23.838  0.0000E+00  0.1667E+00
    -23.688  0.0000E+00  0.1667E+00
    -23.538  0.0000E+00  0.1667E+00
    -23.388  0.0000E+00  0.1667E+00
    -23.238  0.0000E+00  0.1667E+00
    -23.088  0.0000E+00  0.1667E+00
    -22.938  0.0000E+00  0.1667E+00
    -22.787  0.0000E+00  0.1667E+00
    -22.637  0.0000E+00  0.1667E+00
    -22.487  0.0000E+00  0.1667E+00
    -22.337  0.0000E+00  0.1667E+00
    -22.187  0.0000E+00  0.1667E+00
    -22.037  0.0000E+00  0.1667E+00
    -21.887  0.0000E+00  0.1667E+00
    -21.737  0.0000E+00  0.1667E+00
    -21.587  0.0000E+00  0.1667E+00
    -21.436  0.0000E+00  0.1667E+00
    -21.286  0.0000E+00  0.1667E+00
    -21.136  0.0000E+00  0.1667E+00
    -20.986  0.0000E+00  0.1667E+00
    -20.836  0.0000E+00  0.1667E+00
    -20.686  0.0000E+00  0.1667E+00
    -20.536  0.0000E+00  0.1667E+00
    -20.386  0.0000E+00  0.1667E+00
    -20.235  0.0000E+00  0.1667E+00
    -20.085  0.0000E+00  0.1667E+00
    -19.935  0.0000E+00  0.1667E+00
    -19.785  0.0000E+00  0.1667E+00
    -19.635  0.0000E+00  0.1667E+00
    -19.485  0.0000E+00  0.1667E+00
    -19.335  0.0000E+00  0.1667E+00
    -19.185  0.0000E+00  0.1667E+00
    -19.035  0.0000E+00  0.1667E+00
    -18.884  0.0000E+00  0.1667E+00
    -18.734  0.0000E+00  0.1667E+00
    -18.584  0.0000E+00  0.1667E+00
    -18.434  0.0000E+00  0.1667E+00
    -18.284  0.0000E+00  0.1667E+00
    -18.134  0.0000E+00  0.1667E+00
    -17.984  0.0000E+00  0.1667E+00
    -17.834  0.0000E+00  0.1667E+00
    -17.684  0.0000E+00  0.1667E+00
    -17.533  0.0000E+00  0.1667E+00
    -17.383  0.0000E+00  0.1667E+00
    -17.233  0.0000E+00  0.1667E+00
    -17.083  0.0000E+00  0.1667E+00
    -16.933  0.0000E+00  0.1667E+00
    -16.783  0.8872E-38  0.1667E+00
    -16.633  0.1441E-26  0.1667E+00
    -16.483  0.1979E-17  0.1667E+00
    -16.333  0.2620E-10  0.1667E+00
    -16.182  0.2850E-05  0.1667E+00
    -16.032  0.1118E-02  0.1668E+00
    -15.882 -0.2202E-02  0.1665E+00
    -15.732  0.4100E+00  0.2281E+00
    -15.582  0.2601E+00  0.2671E+00
    -15.432  0.1392E+00  0.2880E+00
    -15.282  0.5088E+00  0.3644E+00
    -15.132  0.1393E-01  0.3665E+00
    -14.982  0.1372E-02  0.3667E+00
    -14.831  0.1139E-04  0.3667E+00
    -14.681  0.2995E-09  0.3667E+00
    -14.531  0.6298E-16  0.3667E+00
    -14.381  0.0000E+00  0.3667E+00
    -14.231  0.0000E+00  0.3667E+00
    -14.081  0.0000E+00  0.3667E+00
    -13.931  0.0000E+00  0.3667E+00
    -13.781  0.0000E+00  0.3667E+00
    -13.631  0.0000E+00  0.3667E+00
    -13.480  0.0000E+00  0.3667E+00
    -13.330  0.0000E+00  0.3667E+00
    -13.180  0.0000E+00  0.3667E+00
    -13.030  0.0000E+00  0.3667E+00
    -12.880  0.0000E+00  0.3667E+00
    -12.730  0.0000E+00  0.3667E+00
    -12.580  0.0000E+00  0.3667E+00
    -12.430  0.0000E+00  0.3667E+00
    -12.280  0.0000E+00  0.3667E+00
    -12.129  0.0000E+00  0.3667E+00
    -11.979  0.0000E+00  0.3667E+00
    -11.829  0.0000E+00  0.3667E+00
    -11.679  0.0000E+00  0.3667E+00
    -11.529  0.0000E+00  0.3667E+00
    -11.379  0.0000E+00  0.3667E+00
    -11.229  0.0000E+00  0.3667E+00
    -11.079  0.0000E+00  0.3667E+00
    -10.928  0.0000E+00  0.3667E+00
    -10.778  0.0000E+00  0.3667E+00
    -10.628  0.0000E+00  0.3667E+00
    -10.478  0.0000E+00  0.3667E+00
    -10.328  0.0000E+00  0.3667E+00
    -10.178  0.0000E+00  0.3667E+00
    -10.028  0.0000E+00  0.3667E+00
     -9.878  0.0000E+00  0.3667E+00
     -9.728  0.0000E+00  0.3667E+00
     -9.577  0.0000E+00  0.3667E+00
     -9.427  0.0000E+00  0.3667E+00
     -9.277  0.0000E+00  0.3667E+00
     -9.127  0.0000E+00  0.3667E+00
     -8.977  0.3959E-39  0.3667E+00
     -8.827  0.3893E-28  0.3667E+00
     -8.677  0.3730E-19  0.3667E+00
     -8.527  0.3249E-12  0.3667E+00
     -8.377  0.2256E-07  0.3667E+00
     -8.226  0.9946E-05  0.3667E+00
     -8.076 -0.1328E-03  0.3666E+00
     -7.926  0.5436E-02  0.3675E+00
     -7.776  0.1595E-01  0.3699E+00
     -7.626  0.3032E-01  0.3744E+00
     -7.476  0.4773E-01  0.3816E+00
     -7.326  0.3449E-01  0.3868E+00
     -7.176  0.3243E-01  0.3916E+00
     -7.026  0.4433E-01  0.3983E+00
     -6.875  0.1187E-01  0.4001E+00
     -6.725  0.2052E-02  0.4004E+00
     -6.575  0.1145E+00  0.4175E+00
     -6.425  0.1083E+00  0.4338E+00
     -6.275 -0.3308E-02  0.4333E+00
     -6.125  0.2135E-03  0.4333E+00
     -5.975  0.1531E-04  0.4333E+00
     -5.825 -0.1536E-03  0.4333E+00
     -5.675  0.7152E-02  0.4344E+00
     -5.524  0.3055E-01  0.4390E+00
     -5.374  0.8403E-01  0.4516E+00
     -5.224  0.8844E-01  0.4649E+00
     -5.074  0.1217E-01  0.4667E+00
     -4.924 -0.1551E-03  0.4667E+00
     -4.774  0.1296E-04  0.4667E+00
     -4.624  0.3388E-08  0.4667E+00
     -4.474  0.2161E-07  0.4667E+00
     -4.324  0.1209E-04  0.4667E+00
     -4.173 -0.1028E-03  0.4667E+00
     -4.023  0.6574E-02  0.4676E+00
     -3.873  0.4642E-01  0.4746E+00
     -3.723  0.1507E+00  0.4972E+00
     -3.573  0.1780E-01  0.4999E+00
     -3.423  0.6633E-03  0.5000E+00
     -3.273  0.4303E-04  0.5000E+00
     -3.123 -0.3541E-03  0.4999E+00
     -2.972  0.1235E-01  0.5018E+00
     -2.822  0.4542E-01  0.5086E+00
     -2.672  0.7006E-01  0.5191E+00
     -2.522  0.7875E-01  0.5310E+00
     -2.372  0.7237E-01  0.5418E+00
     -2.222  0.1413E+00  0.5630E+00
     -2.072  0.1007E+00  0.5782E+00
     -1.922  0.1331E+00  0.5981E+00
     -1.772  0.3427E-01  0.6033E+00
     -1.621  0.1190E+00  0.6211E+00
     -1.471  0.8406E-01  0.6338E+00
     -1.321  0.2612E-01  0.6377E+00
     -1.171  0.1041E+00  0.6533E+00
     -1.021  0.7890E-01  0.6652E+00
     -0.871  0.8752E-01  0.6783E+00
     -0.721  0.1110E+00  0.6950E+00
     -0.571  0.3735E-01  0.7006E+00
     -0.421  0.3571E-01  0.7059E+00
     -0.270  0.6068E-01  0.7150E+00
     -0.120  0.2052E-01  0.7181E+00
      0.030  0.2405E-01  0.7217E+00
      0.180  0.1649E-01  0.7242E+00
      0.330  0.2446E-01  0.7279E+00
      0.480  0.3136E-01  0.7326E+00
      0.630  0.5131E-02  0.7334E+00
      0.780 -0.1210E-03  0.7333E+00
      0.930  0.5796E-05  0.7333E+00
      1.081  0.9924E-09  0.7333E+00
      1.231  0.1146E-14  0.7333E+00
      1.381  0.6342E-18  0.7333E+00
      1.531  0.4474E-11  0.7333E+00
      1.681  0.2776E-06  0.7333E+00
      1.831  0.7629E-04  0.7333E+00
      1.981 -0.2035E-03  0.7333E+00
      2.131  0.3365E-01  0.7384E+00
      2.281  0.6872E-01  0.7487E+00
      2.432  0.5196E-01  0.7565E+00
      2.582  0.3559E-01  0.7618E+00
      2.732  0.2336E-01  0.7653E+00
      2.882  0.8586E-02  0.7666E+00
      3.032  0.3062E-03  0.7667E+00
      3.182  0.1475E-03  0.7667E+00
      3.332  0.5657E-02  0.7675E+00
      3.482  0.2138E-01  0.7707E+00
      3.632  0.4562E-01  0.7776E+00
      3.783  0.5412E-01  0.7857E+00
      3.933  0.7407E-01  0.7968E+00
      4.083  0.6095E-01  0.8060E+00
      4.233  0.1340E+00  0.8261E+00
      4.383  0.9636E-01  0.8406E+00
      4.533  0.1008E+00  0.8557E+00
      4.683  0.9041E-01  0.8693E+00
      4.833  0.8867E-01  0.8826E+00
      4.983  0.9715E-01  0.8972E+00
      5.134  0.7743E-01  0.9088E+00
      5.284  0.9243E-01  0.9227E+00
      5.434  0.5493E-01  0.9309E+00
      5.584  0.9515E-01  0.9452E+00
      5.734  0.9167E-01  0.9589E+00
      5.884  0.6401E-01  0.9686E+00
      6.034  0.7911E-01  0.9804E+00
      6.184  0.7129E-01  0.9911E+00
      6.335  0.1008E+00  0.1006E+01
      6.485  0.9544E-01  0.1021E+01
      6.635  0.9516E-01  0.1035E+01
      6.785  0.9248E-01  0.1049E+01
      6.935  0.6982E-01  0.1059E+01
      7.085  0.3769E-01  0.1065E+01
      7.235  0.9802E-02  0.1066E+01
      7.385  0.2039E-02  0.1067E+01
      7.535 -0.5105E-04  0.1067E+01
      7.686  0.2888E-05  0.1067E+01
      7.836  0.9952E-09  0.1067E+01
      7.986  0.1998E-14  0.1067E+01
      8.136  0.0000E+00  0.1067E+01
      8.286  0.0000E+00  0.1067E+01
      8.436  0.0000E+00  0.1067E+01
      8.586  0.0000E+00  0.1067E+01
      8.736  0.0000E+00  0.1067E+01
      8.886  0.0000E+00  0.1067E+01
      9.037  0.0000E+00  0.1067E+01
      9.187  0.0000E+00  0.1067E+01
      9.337  0.0000E+00  0.1067E+01
