       N       E                     dE             d eps       ncg     rms          rms(c)
DAV:   1     0.170120327243E+03    0.17012E+03   -0.12858E+04 20232   0.733E+02
DAV:   2    -0.275374569035E+02   -0.19766E+03   -0.19285E+03 24196   0.287E+02
DAV:   3    -0.414704709249E+02   -0.13933E+02   -0.13842E+02 32404   0.576E+01
DAV:   4    -0.422752581640E+02   -0.80479E+00   -0.80270E+00 31016   0.116E+01
DAV:   5    -0.422935701080E+02   -0.18312E-01   -0.18308E-01 31668   0.170E+00    0.358E+01
DAV:   6    -0.397938971919E+02    0.24997E+01   -0.63247E+00 28688   0.140E+01    0.164E+01
DAV:   7    -0.393053842456E+02    0.48851E+00   -0.13223E+00 27052   0.476E+00    0.784E+00
DAV:   8    -0.393120666016E+02   -0.66824E-02   -0.42978E-01 32524   0.290E+00    0.218E+00
DAV:   9    -0.393056065242E+02    0.64601E-02   -0.54558E-02 23716   0.921E-01    0.515E-01
DAV:  10    -0.393048866273E+02    0.71990E-03   -0.84430E-03 33736   0.420E-01    0.177E-01
DAV:  11    -0.393051654532E+02   -0.27883E-03   -0.30074E-04 20212   0.874E-02    0.838E-02
DAV:  12    -0.393053183351E+02   -0.15288E-03   -0.19299E-04 19736   0.710E-02    0.128E-02
DAV:  13    -0.393053221823E+02   -0.38472E-05   -0.13550E-05 13868   0.259E-02
   1 F= -.39305322E+02 E0= -.39304775E+02  d E =-.393053E+02
       N       E                     dE             d eps       ncg     rms          rms(c)
DAV:   1    -0.393525312923E+02   -0.47213E-01   -0.16121E+00 19580   0.766E+00    0.109E+00
DAV:   2    -0.393391737597E+02    0.13358E-01   -0.67587E-02 26912   0.190E+00    0.499E-01
DAV:   3    -0.393351613751E+02    0.40124E-02   -0.62637E-03 25484   0.476E-01    0.223E-01
DAV:   4    -0.393342105692E+02    0.95081E-03   -0.21795E-03 27184   0.275E-01    0.165E-01
DAV:   5    -0.393342290183E+02   -0.18449E-04   -0.40471E-04 26760   0.101E-01
   2 F= -.39334229E+02 E0= -.39333929E+02  d E =-.289068E-01
       N       E                     dE             d eps       ncg     rms          rms(c)
DAV:   1    -0.394392157607E+02   -0.10501E+00   -0.73380E+00 19432   0.163E+01    0.230E+00
DAV:   2    -0.393785127546E+02    0.60703E-01   -0.30664E-01 26696   0.402E+00    0.107E+00
DAV:   3    -0.393600387415E+02    0.18474E-01   -0.29292E-02 25512   0.991E-01    0.469E-01
DAV:   4    -0.393558292235E+02    0.42095E-02   -0.94706E-03 27496   0.575E-01    0.369E-01
DAV:   5    -0.393559179783E+02   -0.88755E-04   -0.17048E-03 33304   0.202E-01    0.133E-01
DAV:   6    -0.393559193074E+02   -0.13291E-05   -0.19847E-04 19924   0.824E-02
   3 F= -.39355919E+02 E0= -.39356180E+02  d E =-.505971E-01
       N       E                     dE             d eps       ncg     rms          rms(c)
DAV:   1    -0.393781603798E+02   -0.22242E-01   -0.14484E+00 20104   0.829E+00    0.679E-01
DAV:   2    -0.393792093873E+02   -0.10490E-02   -0.96924E-02 23456   0.201E+00    0.412E-01
DAV:   3    -0.393781278235E+02    0.10816E-02   -0.37389E-03 27456   0.352E-01    0.226E-01
DAV:   4    -0.393776971169E+02    0.43071E-03   -0.11722E-03 27704   0.213E-01    0.110E-01
DAV:   5    -0.393777028385E+02   -0.57216E-05   -0.16420E-04 17228   0.806E-02
   4 F= -.39377703E+02 E0= -.39378060E+02  d E =-.217835E-01
       N       E                     dE             d eps       ncg     rms          rms(c)
DAV:   1    -0.394115348385E+02   -0.33838E-01   -0.12988E+01 19432   0.248E+01    0.201E+00
DAV:   2    -0.394219755929E+02   -0.10441E-01   -0.88557E-01 23420   0.611E+00    0.127E+00
DAV:   3    -0.394119392628E+02    0.10036E-01   -0.34483E-02 26492   0.108E+00    0.698E-01
DAV:   4    -0.394074487705E+02    0.44905E-02   -0.11138E-02 27400   0.659E-01    0.355E-01
DAV:   5    -0.394075154940E+02   -0.66723E-04   -0.20647E-03 32836   0.252E-01    0.191E-01
DAV:   6    -0.394075439061E+02   -0.28412E-04   -0.17311E-04 16904   0.856E-02
   5 F= -.39407544E+02 E0= -.39407482E+02  d E =-.516246E-01
       N       E                     dE             d eps       ncg     rms          rms(c)
DAV:   1    -0.394177243447E+02   -0.10209E-01   -0.15643E+00 22216   0.955E+00    0.669E-01
DAV:   2    -0.394275304296E+02   -0.98061E-02   -0.16500E-01 21824   0.235E+00    0.348E-01
DAV:   3    -0.394273043802E+02    0.22605E-03   -0.40440E-03 30484   0.347E-01    0.226E-01
DAV:   4    -0.394271233017E+02    0.18108E-03   -0.93650E-04 31396   0.176E-01    0.129E-01
DAV:   5    -0.394271373165E+02   -0.14015E-04   -0.14062E-04 17044   0.664E-02
   6 F= -.39427137E+02 E0= -.39427042E+02  d E =-.195934E-01
       N       E                     dE             d eps       ncg     rms          rms(c)
DAV:   1    -0.394197001102E+02    0.74232E-02   -0.29112E+00 22208   0.130E+01    0.896E-01
DAV:   2    -0.394377742921E+02   -0.18074E-01   -0.30610E-01 21808   0.321E+00    0.484E-01
DAV:   3    -0.394373388418E+02    0.43545E-03   -0.74585E-03 30596   0.469E-01    0.315E-01
DAV:   4    -0.394369978813E+02    0.34096E-03   -0.18552E-03 33216   0.244E-01    0.176E-01
DAV:   5    -0.394370262087E+02   -0.28327E-04   -0.27439E-04 21668   0.884E-02
   7 F= -.39437026E+02 E0= -.39437047E+02  d E =-.294823E-01
       N       E                     dE             d eps       ncg     rms          rms(c)
DAV:   1    -0.394440349325E+02   -0.70371E-02   -0.49492E-01 19452   0.493E+00    0.453E-01
DAV:   2    -0.394452165623E+02   -0.11816E-02   -0.35792E-02 22832   0.126E+00    0.179E-01
DAV:   3    -0.394449989028E+02    0.21766E-03   -0.15032E-03 31624   0.211E-01    0.102E-01
DAV:   4    -0.394449272577E+02    0.71645E-04   -0.23322E-04 19120   0.830E-02
   8 F= -.39444927E+02 E0= -.39444969E+02  d E =-.790105E-02
       N       E                     dE             d eps       ncg     rms          rms(c)
DAV:   1    -0.394457515501E+02   -0.75265E-03   -0.44543E+00 19432   0.148E+01    0.132E+00
DAV:   2    -0.394566315082E+02   -0.10880E-01   -0.32111E-01 22900   0.377E+00    0.532E-01
DAV:   3    -0.394547226802E+02    0.19088E-02   -0.13410E-02 31996   0.636E-01    0.307E-01
DAV:   4    -0.394540656574E+02    0.65702E-03   -0.25308E-03 33120   0.243E-01    0.258E-01
DAV:   5    -0.394541468137E+02   -0.81156E-04   -0.60292E-04 30172   0.127E-01
   9 F= -.39454147E+02 E0= -.39454174E+02  d E =-.171206E-01
       N       E                     dE             d eps       ncg     rms          rms(c)
DAV:   1    -0.394580480918E+02   -0.39824E-02   -0.11775E+00 19432   0.750E+00    0.522E-01
DAV:   2    -0.394630599791E+02   -0.50119E-02   -0.80633E-02 22392   0.177E+00    0.250E-01
DAV:   3    -0.394628859897E+02    0.17399E-03   -0.28653E-03 33396   0.276E-01    0.143E-01
DAV:   4    -0.394627775362E+02    0.10845E-03   -0.39537E-04 22368   0.128E-01    0.473E-02
DAV:   5    -0.394627824263E+02   -0.48900E-05   -0.61306E-05 13860   0.550E-02
  10 F= -.39462782E+02 E0= -.39462762E+02  d E =-.863561E-02
       N       E                     dE             d eps       ncg     rms          rms(c)
DAV:   1    -0.394570159658E+02    0.57616E-02   -0.25617E+00 19432   0.111E+01    0.775E-01
DAV:   2    -0.394679349938E+02   -0.10919E-01   -0.17521E-01 22428   0.262E+00    0.368E-01
DAV:   3    -0.394675726278E+02    0.36237E-03   -0.61059E-03 33184   0.405E-01    0.212E-01
DAV:   4    -0.394673678497E+02    0.20478E-03   -0.87043E-04 25136   0.187E-01    0.736E-02
DAV:   5    -0.394673814548E+02   -0.13605E-04   -0.12303E-04 15652   0.727E-02
  11 F= -.39467381E+02 E0= -.39467281E+02  d E =-.132346E-01
       N       E                     dE             d eps       ncg     rms          rms(c)
DAV:   1    -0.394673332486E+02    0.34601E-04   -0.56132E-01 22072   0.572E+00    0.467E-01
DAV:   2    -0.394707529488E+02   -0.34197E-02   -0.62060E-02 21740   0.138E+00    0.200E-01
DAV:   3    -0.394703267647E+02    0.42618E-03   -0.18067E-03 30300   0.244E-01    0.119E-01
DAV:   4    -0.394702256422E+02    0.10112E-03   -0.41562E-04 23444   0.119E-01    0.783E-02
DAV:   5    -0.394702340139E+02   -0.83717E-05   -0.67448E-05 13756   0.594E-02
  12 F= -.39470234E+02 E0= -.39470122E+02  d E =-.285256E-02
       N       E                     dE             d eps       ncg     rms          rms(c)
DAV:   1    -0.394702422552E+02   -0.16613E-04   -0.14736E-04 15832   0.920E-02    0.197E-02
DAV:   2    -0.394702443721E+02   -0.21169E-05   -0.29334E-05 12464   0.434E-02
  13 F= -.39470244E+02 E0= -.39470133E+02  d E =-.286292E-02
       N       E                     dE             d eps       ncg     rms          rms(c)
DAV:   1    -0.394713776613E+02   -0.11354E-02   -0.17507E-01 19528   0.284E+00    0.216E-01
DAV:   2    -0.394719874894E+02   -0.60983E-03   -0.11424E-02 23728   0.673E-01    0.108E-01
DAV:   3    -0.394719087898E+02    0.78700E-04   -0.38046E-04 26640   0.109E-01
  14 F= -.39471909E+02 E0= -.39471785E+02  d E =-.166442E-02
       N       E                     dE             d eps       ncg     rms          rms(c)
DAV:   1    -0.394715558084E+02    0.43168E-03   -0.25336E-01 19496   0.342E+00    0.264E-01
DAV:   2    -0.394724015919E+02   -0.84578E-03   -0.16585E-02 23992   0.814E-01    0.135E-01
DAV:   3    -0.394722833599E+02    0.11823E-03   -0.60043E-04 29960   0.133E-01    0.710E-02
DAV:   4    -0.394722483014E+02    0.35058E-04   -0.93138E-05 13880   0.698E-02
  15 F= -.39472248E+02 E0= -.39472113E+02  d E =-.200393E-02
       N       E                     dE             d eps       ncg     rms          rms(c)
DAV:   1    -0.394729565262E+02   -0.67317E-03   -0.15812E-01 19476   0.256E+00    0.234E-01
DAV:   2    -0.394732893743E+02   -0.33285E-03   -0.91964E-03 23272   0.647E-01    0.114E-01
DAV:   3    -0.394731768125E+02    0.11256E-03   -0.42153E-04 27160   0.116E-01    0.581E-02
DAV:   4    -0.394731520454E+02    0.24767E-04   -0.79895E-05 13684   0.625E-02
  16 F= -.39473152E+02 E0= -.39473004E+02  d E =-.903744E-03
       N       E                     dE             d eps       ncg     rms          rms(c)
DAV:   1    -0.394731467407E+02    0.30072E-04   -0.15871E-01 19452   0.258E+00    0.232E-01
DAV:   2    -0.394734696439E+02   -0.32290E-03   -0.91454E-03 23288   0.639E-01    0.114E-01
DAV:   3    -0.394733588161E+02    0.11083E-03   -0.45195E-04 28396   0.117E-01    0.604E-02
DAV:   4    -0.394733366368E+02    0.22179E-04   -0.77785E-05 13700   0.610E-02
  17 F= -.39473337E+02 E0= -.39473177E+02  d E =-.108834E-02
       N       E                     dE             d eps       ncg     rms          rms(c)
DAV:   1    -0.394744816745E+02   -0.11229E-02   -0.51353E-02 19516   0.144E+00    0.156E-01
DAV:   2    -0.394743700910E+02    0.11158E-03   -0.24334E-03 25208   0.316E-01    0.746E-02
DAV:   3    -0.394742769714E+02    0.93120E-04   -0.13527E-04 15584   0.714E-02
  18 F= -.39474277E+02 E0= -.39474108E+02  d E =-.940335E-03
       N       E                     dE             d eps       ncg     rms          rms(c)
DAV:   1    -0.394759872148E+02   -0.16171E-02   -0.36618E-01 19432   0.387E+00    0.410E-01
DAV:   2    -0.394751774751E+02    0.80974E-03   -0.17582E-02 25272   0.842E-01    0.201E-01
DAV:   3    -0.394745241158E+02    0.65336E-03   -0.10761E-03 26196   0.191E-01    0.972E-02
DAV:   4    -0.394744111771E+02    0.11294E-03   -0.30238E-04 21544   0.105E-01    0.552E-02
DAV:   5    -0.394744127804E+02   -0.16033E-05   -0.39162E-05 13416   0.447E-02
  19 F= -.39474413E+02 E0= -.39474220E+02  d E =-.107614E-02
       N       E                     dE             d eps       ncg     rms          rms(c)
DAV:   1    -0.394750195856E+02   -0.60841E-03   -0.17593E-01 20344   0.318E+00    0.292E-01
DAV:   2    -0.394760318316E+02   -0.10122E-02   -0.22067E-02 22088   0.806E-01    0.124E-01
DAV:   3    -0.394758129878E+02    0.21884E-03   -0.63296E-04 28120   0.153E-01    0.727E-02
DAV:   4    -0.394757390734E+02    0.73914E-04   -0.15825E-04 14516   0.813E-02
  20 F= -.39475739E+02 E0= -.39475548E+02  d E =-.132629E-02
       N       E                     dE             d eps       ncg     rms          rms(c)
DAV:   1    -0.394757380421E+02    0.74946E-04   -0.68943E-04 21288   0.212E-01    0.315E-02
DAV:   2    -0.394757440034E+02   -0.59613E-05   -0.89991E-05 14592   0.518E-02
  21 F= -.39475744E+02 E0= -.39475553E+02  d E =-.133122E-02
       N       E                     dE             d eps       ncg     rms          rms(c)
DAV:   1    -0.394760395309E+02   -0.30149E-03   -0.10670E-01 19432   0.236E+00    0.230E-01
DAV:   2    -0.394764305735E+02   -0.39104E-03   -0.99926E-03 22160   0.611E-01    0.104E-01
DAV:   3    -0.394762813823E+02    0.14919E-03   -0.33871E-04 27132   0.112E-01    0.536E-02
DAV:   4    -0.394762483524E+02    0.33030E-04   -0.88741E-05 13532   0.621E-02
  22 F= -.39476248E+02 E0= -.39476059E+02  d E =-.504349E-03
       N       E                     dE             d eps       ncg     rms          rms(c)
DAV:   1    -0.394762471670E+02    0.34215E-04   -0.47521E-04 21220   0.171E-01    0.218E-02
DAV:   2    -0.394762501994E+02   -0.30324E-05   -0.46231E-05 11720   0.418E-02
  23 F= -.39476250E+02 E0= -.39476060E+02  d E =-.506196E-03
