   10   10   99    2
  0.8805749E+01  0.3372882E-09  0.5172171E-09  0.6114001E-09  0.5000000E-15
  1.000000000000000E-004
  CAR 
 unknown system                          
     29     71     32
 
  0.3742002E-15  0.3742002E-15  0.3742002E-15  0.7142857E-02
    1      -33.852093    -33.851237   1.000000   1.000000
    2      -29.876620    -29.742400   1.000000   1.000000
    3      -29.771015    -29.685200   1.000000   1.000000
    4      -29.702111    -29.538735   1.000000   1.000000
    5      -15.941812    -15.942037   1.000000   1.000000
    6      -15.868168    -15.867077   1.000000   1.000000
    7      -15.600358    -15.598150   1.000000   1.000000
    8       -7.775015     -7.741431   1.000000   1.000000
    9       -4.717560     -4.692141   1.000000   1.000000
   10       -2.943826     -2.919032   1.000000   1.000000
   11       -2.654331     -2.641067   1.000000   1.000000
   12       -1.787149     -1.715529   1.000000   1.000000
   13       -1.589693     -1.561762   1.000000   1.000000
   14       -0.209085     -0.179021   1.000000   1.000000
   15        1.922393      2.162397   0.000000   0.000000
   16        2.775846      2.859266   0.000000   0.000000
   17        3.024862      3.059413   0.000000   0.000000
   18        4.776982      4.902910   0.000000   0.000000
   19        5.388136      5.407285   0.000000   0.000000
   20        6.039396      6.086571   0.000000   0.000000
   21        6.095537      6.126780   0.000000   0.000000
   22        7.235115      7.238467   0.000000   0.000000
   23        7.537213      7.561608   0.000000   0.000000
   24        7.580696      7.605790   0.000000   0.000000
   25        7.865072      7.887283   0.000000   0.000000
   26        8.618727      8.670926   0.000000   0.000000
   27        9.790516      9.852996   0.000000   0.000000
   28       11.141391     11.203568   0.000000   0.000000
   29       11.512670     11.533710   0.000000   0.000000
   30       12.582657     12.617546   0.000000   0.000000
   31       12.917282     12.966949   0.000000   0.000000
   32       14.369128     14.404777   0.000000   0.000000
 
  0.1428571E+00  0.3584372E-15  0.3608225E-15  0.1428571E-01
    1      -33.840507    -33.839655   1.000000   1.000000
    2      -29.898369    -29.774590   1.000000   1.000000
    3      -29.777957    -29.681787   1.000000   1.000000
    4      -29.699005    -29.535655   1.000000   1.000000
    5      -15.922007    -15.922196   1.000000   1.000000
    6      -15.852000    -15.850965   1.000000   1.000000
    7      -15.745810    -15.743523   1.000000   1.000000
    8       -7.531298     -7.497283   1.000000   1.000000
    9       -4.603130     -4.579809   1.000000   1.000000
   10       -2.884096     -2.864585   1.000000   1.000000
   11       -2.598434     -2.574907   1.000000   1.000000
   12       -1.921175     -1.879069   1.000000   1.000000
   13       -1.413996     -1.360750   1.000000   1.000000
   14       -0.732820     -0.702006   1.000000   1.000000
   15        1.468828      1.693514   0.268753   0.006456
   16        3.077360      3.147391   0.000000   0.000000
   17        3.599875      3.642449   0.000000   0.000000
   18        4.760779      4.874095   0.000000   0.000000
   19        5.271148      5.302372   0.000000   0.000000
   20        5.780551      5.818091   0.000000   0.000000
   21        5.949647      6.001033   0.000000   0.000000
   22        6.931239      6.961950   0.000000   0.000000
   23        7.693873      7.714189   0.000000   0.000000
   24        7.893241      7.933121   0.000000   0.000000
   25        8.134210      8.154444   0.000000   0.000000
   26        8.441327      8.481291   0.000000   0.000000
   27       10.323278     10.378541   0.000000   0.000000
   28       10.745493     10.799900   0.000000   0.000000
   29       11.409620     11.432314   0.000000   0.000000
   30       12.017272     12.069015   0.000000   0.000000
   31       12.868616     12.890640   0.000000   0.000000
   32       13.763613     13.801696   0.000000   0.000000
 
  0.2857143E+00  0.4111295E-15  0.3885781E-15  0.1428571E-01
    1      -33.814243    -33.813402   1.000000   1.000000
    2      -29.959004    -29.847205   1.000000   1.000000
    3      -29.781036    -29.673098   1.000000   1.000000
    4      -29.692161    -29.528837   1.000000   1.000000
    5      -16.054784    -16.052339   1.000000   1.000000
    6      -15.875825    -15.875959   1.000000   1.000000
    7      -15.811952    -15.811084   1.000000   1.000000
    8       -7.009064     -6.973256   1.000000   1.000000
    9       -4.214366     -4.195832   1.000000   1.000000
   10       -2.954020     -2.938094   1.000000   1.000000
   11       -2.467847     -2.432881   1.000000   1.000000
   12       -2.164126     -2.125454   1.000000   1.000000
   13       -1.516224     -1.485782   1.000000   1.000000
   14       -1.162412     -1.125636   1.000000   1.000000
   15        0.972689      1.213806   1.069421   0.905332
   16        3.479980      3.543121   0.000000   0.000000
   17        4.360191      4.410306   0.000000   0.000000
   18        4.504348      4.572568   0.000000   0.000000
   19        5.238670      5.287034   0.000000   0.000000
   20        5.673474      5.712125   0.000000   0.000000
   21        6.101479      6.151669   0.000000   0.000000
   22        6.720011      6.760674   0.000000   0.000000
   23        7.401751      7.456141   0.000000   0.000000
   24        7.915465      7.959828   0.000000   0.000000
   25        8.255242      8.303624   0.000000   0.000000
   26        8.915913      8.940823   0.000000   0.000000
   27        9.806158      9.827414   0.000000   0.000000
   28       10.614033     10.652659   0.000000   0.000000
   29       11.109743     11.152102   0.000000   0.000000
   30       11.981978     12.032709   0.000000   0.000000
   31       12.744171     12.768524   0.000000   0.000000
   32       13.314698     13.344708   0.000000   0.000000
 
  0.4285714E+00  0.3317659E-15  0.3330669E-15  0.1428571E-01
    1      -33.792945    -33.792117   1.000000   1.000000
    2      -30.012292    -29.904963   1.000000   1.000000
    3      -29.778103    -29.665871   1.000000   1.000000
    4      -29.686807    -29.523489   1.000000   1.000000
    5      -16.286280    -16.283754   1.000000   1.000000
    6      -15.837895    -15.837980   1.000000   1.000000
    7      -15.776532    -15.775831   1.000000   1.000000
    8       -6.630490     -6.592308   1.000000   1.000000
    9       -3.737818     -3.725016   1.000000   1.000000
   10       -3.009919     -2.989084   1.000000   1.000000
   11       -2.644913     -2.610230   1.000000   1.000000
   12       -2.159525     -2.117887   1.000000   1.000000
   13       -1.985286     -1.955633   1.000000   1.000000
   14       -1.249661     -1.228488   1.000000   1.000000
   15        1.054217      1.325034   1.000000   0.998154
   16        3.789330      3.870588   0.000000   0.000000
   17        4.329673      4.376962   0.000000   0.000000
   18        4.535964      4.574261   0.000000   0.000000
   19        5.034127      5.091320   0.000000   0.000000
   20        5.633484      5.667081   0.000000   0.000000
   21        6.272551      6.297635   0.000000   0.000000
   22        6.679601      6.753084   0.000000   0.000000
   23        7.197643      7.237598   0.000000   0.000000
   24        8.008354      8.043531   0.000000   0.000000
   25        8.780525      8.831977   0.000000   0.000000
   26        9.214112      9.254562   0.000000   0.000000
   27        9.667791      9.718949   0.000000   0.000000
   28       10.286764     10.305547   0.000000   0.000000
   29       10.948205     10.983145   0.000000   0.000000
   30       11.739158     11.768213   0.000000   0.000000
   31       12.124365     12.158098   0.000000   0.000000
   32       13.333868     13.367656   0.000000   0.000000
 
  0.3720982E-15  0.2000000E+00  0.3816392E-15  0.1428571E-01
    1      -33.852106    -33.851247   1.000000   1.000000
    2      -29.876666    -29.742397   1.000000   1.000000
    3      -29.771102    -29.685336   1.000000   1.000000
    4      -29.702003    -29.538631   1.000000   1.000000
    5      -15.944885    -15.945099   1.000000   1.000000
    6      -15.872746    -15.871619   1.000000   1.000000
    7      -15.600307    -15.598098   1.000000   1.000000
    8       -7.661345     -7.627939   1.000000   1.000000
    9       -4.812434     -4.787972   1.000000   1.000000
   10       -3.052882     -3.027719   1.000000   1.000000
   11       -2.576936     -2.558895   1.000000   1.000000
   12       -1.974222     -1.937392   1.000000   1.000000
   13       -1.508118     -1.448918   1.000000   1.000000
   14       -0.164138     -0.131495   1.000000   1.000000
   15        1.884444      2.117641   0.000000   0.000000
   16        2.815867      2.894675   0.000000   0.000000
   17        3.119926      3.170364   0.000000   0.000000
   18        4.701044      4.806981   0.000000   0.000000
   19        5.269646      5.301441   0.000000   0.000000
   20        5.991622      6.024653   0.000000   0.000000
   21        6.528463      6.567950   0.000000   0.000000
   22        7.004975      7.026578   0.000000   0.000000
   23        7.343625      7.354516   0.000000   0.000000
   24        7.944661      7.972396   0.000000   0.000000
   25        8.194580      8.220602   0.000000   0.000000
   26        8.396819      8.439876   0.000000   0.000000
   27       10.255263     10.318295   0.000000   0.000000
   28       10.718140     10.756421   0.000000   0.000000
   29       11.216106     11.260895   0.000000   0.000000
   30       12.466245     12.517428   0.000000   0.000000
   31       13.408389     13.434877   0.000000   0.000000
   32       14.082911     14.134960   0.000000   0.000000
 
  0.1428571E+00  0.2000000E+00  0.3885781E-15  0.1428571E-01
    1      -33.840536    -33.839680   1.000000   1.000000
    2      -29.898421    -29.774608   1.000000   1.000000
    3      -29.778068    -29.681930   1.000000   1.000000
    4      -29.698825    -29.535480   1.000000   1.000000
    5      -15.924352    -15.924533   1.000000   1.000000
    6      -15.857971    -15.856888   1.000000   1.000000
    7      -15.745119    -15.742842   1.000000   1.000000
    8       -7.419103     -7.385315   1.000000   1.000000
    9       -4.619162     -4.595659   1.000000   1.000000
   10       -2.893042     -2.870176   1.000000   1.000000
   11       -2.682593     -2.659655   1.000000   1.000000
   12       -2.105544     -2.072036   1.000000   1.000000
   13       -1.481103     -1.425938   1.000000   1.000000
   14       -0.670162     -0.636061   1.000000   1.000000
   15        1.468170      1.691701   0.211578  -0.030657
   16        3.245992      3.323199   0.000000   0.000000
   17        3.733119      3.794005   0.000000   0.000000
   18        4.720585      4.799068   0.000000   0.000000
   19        5.182448      5.231182   0.000000   0.000000
   20        5.728152      5.768773   0.000000   0.000000
   21        6.056552      6.091680   0.000000   0.000000
   22        6.984851      7.013378   0.000000   0.000000
   23        7.464123      7.504958   0.000000   0.000000
   24        7.952444      7.982230   0.000000   0.000000
   25        8.441329      8.477210   0.000000   0.000000
   26        9.106511      9.125224   0.000000   0.000000
   27        9.964073     10.003616   0.000000   0.000000
   28       10.682590     10.738559   0.000000   0.000000
   29       11.517893     11.571594   0.000000   0.000000
   30       12.019463     12.049567   0.000000   0.000000
   31       12.939872     12.968102   0.000000   0.000000
   32       13.324336     13.375131   0.000000   0.000000
 
  0.2857143E+00  0.2000000E+00  0.3885781E-15  0.1428571E-01
    1      -33.814207    -33.813366   1.000000   1.000000
    2      -29.959063    -29.847252   1.000000   1.000000
    3      -29.781158    -29.673231   1.000000   1.000000
    4      -29.692165    -29.528843   1.000000   1.000000
    5      -16.053481    -16.051048   1.000000   1.000000
    6      -15.877575    -15.877716   1.000000   1.000000
    7      -15.814715    -15.813828   1.000000   1.000000
    8       -6.941444     -6.905749   1.000000   1.000000
    9       -4.169787     -4.150817   1.000000   1.000000
   10       -2.989123     -2.971779   1.000000   1.000000
   11       -2.502262     -2.467252   1.000000   1.000000
   12       -2.324613     -2.288420   1.000000   1.000000
   13       -1.660325     -1.625347   1.000000   1.000000
   14       -1.132137     -1.098880   1.000000   1.000000
   15        1.145111      1.398489   1.022153   0.301476
   16        3.707175      3.768926   0.000000   0.000000
   17        4.430856      4.492734   0.000000   0.000000
   18        4.582754      4.634938   0.000000   0.000000
   19        5.126105      5.183238   0.000000   0.000000
   20        5.492649      5.532004   0.000000   0.000000
   21        6.434936      6.486127   0.000000   0.000000
   22        6.794784      6.832343   0.000000   0.000000
   23        7.276459      7.319518   0.000000   0.000000
   24        7.607293      7.641894   0.000000   0.000000
   25        8.365268      8.391313   0.000000   0.000000
   26        9.309824      9.358390   0.000000   0.000000
   27        9.911695      9.930312   0.000000   0.000000
   28       10.402324     10.439409   0.000000   0.000000
   29       10.876894     10.929762   0.000000   0.000000
   30       12.010781     12.055932   0.000000   0.000000
   31       12.445578     12.477976   0.000000   0.000000
   32       13.480835     13.512980   0.000000   0.000000
 
  0.4285714E+00  0.2000000E+00  0.3885781E-15  0.1428571E-01
    1      -33.792890    -33.792062   1.000000   1.000000
    2      -30.012301    -29.904962   1.000000   1.000000
    3      -29.778226    -29.666003   1.000000   1.000000
    4      -29.686886    -29.523570   1.000000   1.000000
    5      -16.285735    -16.283213   1.000000   1.000000
    6      -15.839543    -15.839632   1.000000   1.000000
    7      -15.777718    -15.777000   1.000000   1.000000
    8       -6.589452     -6.551770   1.000000   1.000000
    9       -3.738689     -3.726727   1.000000   1.000000
   10       -3.081587     -3.057530   1.000000   1.000000
   11       -2.644967     -2.613905   1.000000   1.000000
   12       -2.149010     -2.109800   1.000000   1.000000
   13       -2.038723     -2.003349   1.000000   1.000000
   14       -1.264531     -1.241680   1.000000   1.000000
   15        1.157180      1.434963   1.000000   0.373071
   16        3.771222      3.846564   0.000000   0.000000
   17        4.548408      4.596946   0.000000   0.000000
   18        4.682752      4.722809   0.000000   0.000000
   19        5.037261      5.097332   0.000000   0.000000
   20        5.887453      5.911662   0.000000   0.000000
   21        6.275099      6.333212   0.000000   0.000000
   22        6.410865      6.448931   0.000000   0.000000
   23        7.055329      7.101589   0.000000   0.000000
   24        7.740035      7.753639   0.000000   0.000000
   25        8.739912      8.778596   0.000000   0.000000
   26        9.209405      9.263318   0.000000   0.000000
   27        9.613433      9.672831   0.000000   0.000000
   28       10.335795     10.367679   0.000000   0.000000
   29       10.577900     10.599626   0.000000   0.000000
   30       11.591856     11.626329   0.000000   0.000000
   31       12.603273     12.638485   0.000000   0.000000
   32       13.142969     13.169061   0.000000   0.000000
 
 -0.4285714E+00  0.2000000E+00  0.3885781E-15  0.1428571E-01
    1      -33.792899    -33.792071   1.000000   1.000000
    2      -30.012240    -29.904898   1.000000   1.000000
    3      -29.778226    -29.666006   1.000000   1.000000
    4      -29.686883    -29.523567   1.000000   1.000000
    5      -16.286727    -16.284195   1.000000   1.000000
    6      -15.839526    -15.839614   1.000000   1.000000
    7      -15.777580    -15.776847   1.000000   1.000000
    8       -6.605866     -6.568650   1.000000   1.000000
    9       -3.822647     -3.811224   1.000000   1.000000
   10       -3.022624     -3.000967   1.000000   1.000000
   11       -2.625405     -2.591880   1.000000   1.000000
   12       -2.033740     -1.993454   1.000000   1.000000
   13       -1.971536     -1.939125   1.000000   1.000000
   14       -1.274563     -1.248332   1.000000   1.000000
   15        1.042177      1.317557   1.000000   0.945831
   16        3.701486      3.774665   0.000000   0.000000
   17        4.315405      4.368171   0.000000   0.000000
   18        4.751712      4.800124   0.000000   0.000000
   19        4.978212      5.011780   0.000000   0.000000
   20        5.735814      5.772094   0.000000   0.000000
   21        6.519018      6.563955   0.000000   0.000000
   22        6.731967      6.770682   0.000000   0.000000
   23        7.019570      7.060028   0.000000   0.000000
   24        7.685447      7.720447   0.000000   0.000000
   25        8.341375      8.404130   0.000000   0.000000
   26        9.062055      9.113718   0.000000   0.000000
   27        9.633362      9.649531   0.000000   0.000000
   28       10.154420     10.185945   0.000000   0.000000
   29       10.827642     10.868683   0.000000   0.000000
   30       11.973334     12.009109   0.000000   0.000000
   31       12.807112     12.838679   0.000000   0.000000
   32       13.270491     13.307629   0.000000   0.000000
 
 -0.2857143E+00  0.2000000E+00  0.3608225E-15  0.1428571E-01
    1      -33.814163    -33.813324   1.000000   1.000000
    2      -29.958972    -29.847160   1.000000   1.000000
    3      -29.781147    -29.673223   1.000000   1.000000
    4      -29.692349    -29.529024   1.000000   1.000000
    5      -16.054898    -16.052451   1.000000   1.000000
    6      -15.878056    -15.878191   1.000000   1.000000
    7      -15.811225    -15.810348   1.000000   1.000000
    8       -6.988628     -6.953439   1.000000   1.000000
    9       -4.286239     -4.268636   1.000000   1.000000
   10       -3.039366     -3.023617   1.000000   1.000000
   11       -2.446730     -2.411066   1.000000   1.000000
   12       -2.102118     -2.060125   1.000000   1.000000
   13       -1.482505     -1.456302   1.000000   1.000000
   14       -0.959457     -0.921716   1.000000   1.000000
   15        0.928468      1.182029   1.071491   0.871023
   16        3.302744      3.360712   0.000000   0.000000
   17        4.259007      4.304331   0.000000   0.000000
   18        4.639843      4.711372   0.000000   0.000000
   19        5.055067      5.092936   0.000000   0.000000
   20        5.906164      5.955764   0.000000   0.000000
   21        6.309787      6.348656   0.000000   0.000000
   22        6.592631      6.624233   0.000000   0.000000
   23        7.491840      7.541753   0.000000   0.000000
   24        7.707394      7.761481   0.000000   0.000000
   25        8.180461      8.213509   0.000000   0.000000
   26        8.575593      8.601809   0.000000   0.000000
   27        9.777371      9.815753   0.000000   0.000000
   28       10.456961     10.486830   0.000000   0.000000
   29       10.769210     10.828802   0.000000   0.000000
   30       12.663982     12.686346   0.000000   0.000000
   31       13.182846     13.214992   0.000000   0.000000
   32       13.851265     13.894286   0.000000   0.000000
 
 -0.1428571E+00  0.2000000E+00  0.3816392E-15  0.1428571E-01
    1      -33.840437    -33.839586   1.000000   1.000000
    2      -29.898390    -29.774587   1.000000   1.000000
    3      -29.778058    -29.681915   1.000000   1.000000
    4      -29.699160    -29.535807   1.000000   1.000000
    5      -15.925036    -15.925222   1.000000   1.000000
    6      -15.851913    -15.850880   1.000000   1.000000
    7      -15.745551    -15.743263   1.000000   1.000000
    8       -7.466695     -7.432770   1.000000   1.000000
    9       -4.707290     -4.685165   1.000000   1.000000
   10       -3.027999     -3.008077   1.000000   1.000000
   11       -2.475786     -2.450387   1.000000   1.000000
   12       -2.079303     -2.037218   1.000000   1.000000
   13       -1.140479     -1.088420   1.000000   1.000000
   14       -0.695298     -0.661879   1.000000   1.000000
   15        1.464892      1.699608   0.293834   0.033151
   16        3.123908      3.192780   0.000000   0.000000
   17        3.545350      3.581530   0.000000   0.000000
   18        4.646342      4.741966   0.000000   0.000000
   19        5.028031      5.062374   0.000000   0.000000
   20        6.028293      6.087926   0.000000   0.000000
   21        6.110801      6.148763   0.000000   0.000000
   22        6.879786      6.909616   0.000000   0.000000
   23        7.625985      7.650762   0.000000   0.000000
   24        7.986277      8.003269   0.000000   0.000000
   25        8.031280      8.048561   0.000000   0.000000
   26        8.343333      8.394036   0.000000   0.000000
   27       10.370969     10.417352   0.000000   0.000000
   28       10.749956     10.803891   0.000000   0.000000
   29       10.903382     10.945174   0.000000   0.000000
   30       12.595702     12.647172   0.000000   0.000000
   31       13.012642     13.039404   0.000000   0.000000
   32       13.691387     13.729096   0.000000   0.000000
 
  0.3677614E-15  0.4000000E+00  0.4163336E-15  0.1428571E-01
    1      -33.852127    -33.851262   1.000000   1.000000
    2      -29.876741    -29.742392   1.000000   1.000000
    3      -29.771245    -29.685558   1.000000   1.000000
    4      -29.701828    -29.538463   1.000000   1.000000
    5      -15.950550    -15.950724   1.000000   1.000000
    6      -15.879371    -15.878209   1.000000   1.000000
    7      -15.600217    -15.598005   1.000000   1.000000
    8       -7.455491     -7.422340   1.000000   1.000000
    9       -4.971970     -4.949319   1.000000   1.000000
   10       -3.212540     -3.184824   1.000000   1.000000
   11       -2.586027     -2.556915   1.000000   1.000000
   12       -2.153824     -2.130691   1.000000   1.000000
   13       -1.371930     -1.313358   1.000000   1.000000
   14       -0.086607     -0.046887   1.000000   1.000000
   15        1.864857      2.093774   0.000000   0.000000
   16        2.766061      2.855036   0.000000   0.000000
   17        3.416926      3.476308   0.000000   0.000000
   18        4.505928      4.573257   0.000000   0.000000
   19        4.998247      5.034557   0.000000   0.000000
   20        6.365283      6.394573   0.000000   0.000000
   21        6.598158      6.627177   0.000000   0.000000
   22        6.945393      6.999949   0.000000   0.000000
   23        7.313113      7.321958   0.000000   0.000000
   24        7.760855      7.799648   0.000000   0.000000
   25        8.411640      8.443239   0.000000   0.000000
   26        9.064515      9.089608   0.000000   0.000000
   27       10.008795     10.035249   0.000000   0.000000
   28       11.001072     11.066957   0.000000   0.000000
   29       11.431872     11.483380   0.000000   0.000000
   30       12.300251     12.341060   0.000000   0.000000
   31       13.223992     13.258497   0.000000   0.000000
   32       13.382720     13.444628   0.000000   0.000000
 
  0.1428571E+00  0.4000000E+00  0.3330669E-15  0.1428571E-01
    1      -33.840486    -33.839627   1.000000   1.000000
    2      -29.898474    -29.774615   1.000000   1.000000
    3      -29.778236    -29.682147   1.000000   1.000000
    4      -29.698867    -29.535524   1.000000   1.000000
    5      -15.929392    -15.929551   1.000000   1.000000
    6      -15.860915    -15.859821   1.000000   1.000000
    7      -15.744478    -15.742204   1.000000   1.000000
    8       -7.271257     -7.237712   1.000000   1.000000
    9       -4.734443     -4.712353   1.000000   1.000000
   10       -3.154608     -3.130431   1.000000   1.000000
   11       -2.595605     -2.565438   1.000000   1.000000
   12       -2.246942     -2.217326   1.000000   1.000000
   13       -1.310068     -1.262367   1.000000   1.000000
   14       -0.574452     -0.533992   1.000000   1.000000
   15        1.519626      1.759390   0.143977  -0.046853
   16        3.277946      3.357954   0.000000   0.000000
   17        3.865261      3.924362   0.000000   0.000000
   18        4.582297      4.641552   0.000000   0.000000
   19        4.949316      4.978238   0.000000   0.000000
   20        5.750471      5.795970   0.000000   0.000000
   21        6.127593      6.165772   0.000000   0.000000
   22        6.860095      6.913410   0.000000   0.000000
   23        7.459116      7.476687   0.000000   0.000000
   24        8.352424      8.373887   0.000000   0.000000
   25        8.683241      8.728347   0.000000   0.000000
   26        9.229697      9.248684   0.000000   0.000000
   27        9.812322      9.841653   0.000000   0.000000
   28       10.724143     10.764411   0.000000   0.000000
   29       11.350115     11.415626   0.000000   0.000000
   30       12.088448     12.145745   0.000000   0.000000
   31       12.669600     12.716319   0.000000   0.000000
   32       13.546968     13.582629   0.000000   0.000000
 
  0.2857143E+00  0.4000000E+00  0.3330669E-15  0.1428571E-01
    1      -33.814106    -33.813265   1.000000   1.000000
    2      -29.959070    -29.847237   1.000000   1.000000
    3      -29.781348    -29.673444   1.000000   1.000000
    4      -29.692354    -29.529033   1.000000   1.000000
    5      -16.052791    -16.050363   1.000000   1.000000
    6      -15.881249    -15.881387   1.000000   1.000000
    7      -15.815319    -15.814420   1.000000   1.000000
    8       -6.874124     -6.839169   1.000000   1.000000
    9       -4.232319     -4.213850   1.000000   1.000000
   10       -3.130577     -3.112207   1.000000   1.000000
   11       -2.472228     -2.435797   1.000000   1.000000
   12       -2.332659     -2.296511   1.000000   1.000000
   13       -1.635201     -1.602338   1.000000   1.000000
   14       -1.013783     -0.979035   1.000000   1.000000
   15        1.215101      1.489178   0.961511   0.004146
   16        3.856378      3.914396   0.000000   0.000000
   17        4.156612      4.212541   0.000000   0.000000
   18        4.679899      4.715742   0.000000   0.000000
   19        5.093744      5.152375   0.000000   0.000000
   20        5.472823      5.515496   0.000000   0.000000
   21        6.231000      6.266229   0.000000   0.000000
   22        6.889311      6.940554   0.000000   0.000000
   23        7.598506      7.634447   0.000000   0.000000
   24        7.815668      7.837652   0.000000   0.000000
   25        8.391129      8.411996   0.000000   0.000000
   26        9.218793      9.269509   0.000000   0.000000
   27        9.407103      9.433487   0.000000   0.000000
   28       10.079578     10.121785   0.000000   0.000000
   29       10.690450     10.743958   0.000000   0.000000
   30       12.351541     12.406329   0.000000   0.000000
   31       12.573465     12.608341   0.000000   0.000000
   32       13.602048     13.633590   0.000000   0.000000
 
  0.4285714E+00  0.4000000E+00  0.3885781E-15  0.1428571E-01
    1      -33.792811    -33.791983   1.000000   1.000000
    2      -30.012254    -29.904895   1.000000   1.000000
    3      -29.778420    -29.666213   1.000000   1.000000
    4      -29.687008    -29.523695   1.000000   1.000000
    5      -16.285845    -16.283321   1.000000   1.000000
    6      -15.842360    -15.842450   1.000000   1.000000
    7      -15.779305    -15.778547   1.000000   1.000000
    8       -6.537523     -6.501168   1.000000   1.000000
    9       -3.835252     -3.824820   1.000000   1.000000
   10       -3.122895     -3.097303   1.000000   1.000000
   11       -2.642125     -2.613904   1.000000   1.000000
   12       -2.029886     -1.991858   1.000000   1.000000
   13       -1.960132     -1.920053   1.000000   1.000000
   14       -1.391331     -1.361554   1.000000   1.000000
   15        1.209864      1.497889   1.000000  -0.030788
   16        3.863800      3.936522   0.000000   0.000000
   17        4.443148      4.486022   0.000000   0.000000
   18        5.055139      5.108794   0.000000   0.000000
   19        5.263274      5.295756   0.000000   0.000000
   20        5.691010      5.721809   0.000000   0.000000
   21        6.263882      6.312811   0.000000   0.000000
   22        6.723325      6.764493   0.000000   0.000000
   23        7.046789      7.091473   0.000000   0.000000
   24        7.411268      7.431974   0.000000   0.000000
   25        7.755505      7.786581   0.000000   0.000000
   26        9.103447      9.144443   0.000000   0.000000
   27        9.438449      9.486967   0.000000   0.000000
   28        9.933450      9.970403   0.000000   0.000000
   29       10.942998     10.971361   0.000000   0.000000
   30       11.893563     11.932596   0.000000   0.000000
   31       12.939459     12.975806   0.000000   0.000000
   32       13.515675     13.553244   0.000000   0.000000
 
 -0.4285714E+00  0.4000000E+00  0.3608225E-15  0.1428571E-01
    1      -33.792817    -33.791989   1.000000   1.000000
    2      -30.012217    -29.904856   1.000000   1.000000
    3      -29.778421    -29.666216   1.000000   1.000000
    4      -29.687007    -29.523694   1.000000   1.000000
    5      -16.286460    -16.283929   1.000000   1.000000
    6      -15.842338    -15.842429   1.000000   1.000000
    7      -15.779237    -15.778469   1.000000   1.000000
    8       -6.549212     -6.513145   1.000000   1.000000
    9       -3.870702     -3.860856   1.000000   1.000000
   10       -3.101610     -3.076956   1.000000   1.000000
   11       -2.612545     -2.583707   1.000000   1.000000
   12       -1.981022     -1.936999   1.000000   1.000000
   13       -1.906446     -1.874988   1.000000   1.000000
   14       -1.417727     -1.382655   1.000000   1.000000
   15        1.159730      1.447015   1.000000   0.218813
   16        3.818623      3.888196   0.000000   0.000000