Automatically generated mesh
     562
Reciprocal lattice
    0.00000000000000    0.00000000000000    0.00000000000000             1
    0.14285714285714    0.00000000000000    0.00000000000000             2
    0.28571428571429    0.00000000000000    0.00000000000000             2
    0.42857142857143    0.00000000000000    0.00000000000000             2
    0.00000000000000    0.06250000000000    0.00000000000000             2
    0.14285714285714    0.06250000000000    0.00000000000000             2
    0.28571428571429    0.06250000000000    0.00000000000000             2
    0.42857142857143    0.06250000000000    0.00000000000000             2
   -0.42857142857143    0.06250000000000    0.00000000000000             2
   -0.28571428571429    0.06250000000000    0.00000000000000             2
   -0.14285714285714    0.06250000000000    0.00000000000000             2
    0.00000000000000    0.12500000000000    0.00000000000000             2
    0.14285714285714    0.12500000000000    0.00000000000000             2
    0.28571428571429    0.12500000000000    0.00000000000000             2
    0.42857142857143    0.12500000000000    0.00000000000000             2
   -0.42857142857143    0.12500000000000    0.00000000000000             2
   -0.28571428571429    0.12500000000000    0.00000000000000             2
   -0.14285714285714    0.12500000000000    0.00000000000000             2
    0.00000000000000    0.18750000000000    0.00000000000000             2
    0.14285714285714    0.18750000000000    0.00000000000000             2
    0.28571428571429    0.18750000000000    0.00000000000000             2
    0.42857142857143    0.18750000000000    0.00000000000000             2
   -0.42857142857143    0.18750000000000    0.00000000000000             2
   -0.28571428571429    0.18750000000000    0.00000000000000             2
   -0.14285714285714    0.18750000000000    0.00000000000000             2
    0.00000000000000    0.25000000000000    0.00000000000000             2
    0.14285714285714    0.25000000000000    0.00000000000000             2
    0.28571428571429    0.25000000000000    0.00000000000000             2
    0.42857142857143    0.25000000000000    0.00000000000000             2
   -0.42857142857143    0.25000000000000    0.00000000000000             2
   -0.28571428571429    0.25000000000000    0.00000000000000             2
   -0.14285714285714    0.25000000000000    0.00000000000000             2
    0.00000000000000    0.31250000000000    0.00000000000000             2
    0.14285714285714    0.31250000000000    0.00000000000000             2
    0.28571428571429    0.31250000000000    0.00000000000000             2
    0.42857142857143    0.31250000000000    0.00000000000000             2
   -0.42857142857143    0.31250000000000    0.00000000000000             2
   -0.28571428571429    0.31250000000000    0.00000000000000             2
   -0.14285714285714    0.31250000000000    0.00000000000000             2
    0.00000000000000    0.37500000000000    0.00000000000000             2
    0.14285714285714    0.37500000000000    0.00000000000000             2
    0.28571428571429    0.37500000000000    0.00000000000000             2
    0.42857142857143    0.37500000000000    0.00000000000000             2
   -0.42857142857143    0.37500000000000    0.00000000000000             2
   -0.28571428571429    0.37500000000000    0.00000000000000             2
   -0.14285714285714    0.37500000000000    0.00000000000000             2
    0.00000000000000    0.43750000000000    0.00000000000000             2
    0.14285714285714    0.43750000000000    0.00000000000000             2
    0.28571428571429    0.43750000000000    0.00000000000000             2
    0.42857142857143    0.43750000000000    0.00000000000000             2
   -0.42857142857143    0.43750000000000    0.00000000000000             2
   -0.28571428571429    0.43750000000000    0.00000000000000             2
   -0.14285714285714    0.43750000000000    0.00000000000000             2
    0.00000000000000    0.50000000000000    0.00000000000000             1
    0.14285714285714    0.50000000000000    0.00000000000000             2
    0.28571428571429    0.50000000000000    0.00000000000000             2
    0.42857142857143    0.50000000000000    0.00000000000000             2
    0.00000000000000    0.00000000000000    0.10000000000000             2
    0.14285714285714    0.00000000000000    0.10000000000000             2
    0.28571428571429    0.00000000000000    0.10000000000000             2
    0.42857142857143    0.00000000000000    0.10000000000000             2
   -0.42857142857143    0.00000000000000    0.10000000000000             2
   -0.28571428571429    0.00000000000000    0.10000000000000             2
   -0.14285714285714    0.00000000000000    0.10000000000000             2
    0.00000000000000    0.06250000000000    0.10000000000000             2
    0.14285714285714    0.06250000000000    0.10000000000000             2
    0.28571428571429    0.06250000000000    0.10000000000000             2
    0.42857142857143    0.06250000000000    0.10000000000000             2
   -0.42857142857143    0.06250000000000    0.10000000000000             2
   -0.28571428571429    0.06250000000000    0.10000000000000             2
   -0.14285714285714    0.06250000000000    0.10000000000000             2
    0.00000000000000    0.12500000000000    0.10000000000000             2
    0.14285714285714    0.12500000000000    0.10000000000000             2
    0.28571428571429    0.12500000000000    0.10000000000000             2
    0.42857142857143    0.12500000000000    0.10000000000000             2
   -0.42857142857143    0.12500000000000    0.10000000000000             2
   -0.28571428571429    0.12500000000000    0.10000000000000             2
   -0.14285714285714    0.12500000000000    0.10000000000000             2
    0.00000000000000    0.18750000000000    0.10000000000000             2
    0.14285714285714    0.18750000000000    0.10000000000000             2
    0.28571428571429    0.18750000000000    0.10000000000000             2
    0.42857142857143    0.18750000000000    0.10000000000000             2
   -0.42857142857143    0.18750000000000    0.10000000000000             2
   -0.28571428571429    0.18750000000000    0.10000000000000             2
   -0.14285714285714    0.18750000000000    0.10000000000000             2
    0.00000000000000    0.25000000000000    0.10000000000000             2
    0.14285714285714    0.25000000000000    0.10000000000000             2
    0.28571428571429    0.25000000000000    0.10000000000000             2
    0.42857142857143    0.25000000000000    0.10000000000000             2
   -0.42857142857143    0.25000000000000    0.10000000000000             2
   -0.28571428571429    0.25000000000000    0.10000000000000             2
   -0.14285714285714    0.25000000000000    0.10000000000000             2
    0.00000000000000    0.31250000000000    0.10000000000000             2
    0.14285714285714    0.31250000000000    0.10000000000000             2
    0.28571428571429    0.31250000000000    0.10000000000000             2
    0.42857142857143    0.31250000000000    0.10000000000000             2
   -0.42857142857143    0.31250000000000    0.10000000000000             2
   -0.28571428571429    0.31250000000000    0.10000000000000             2
   -0.14285714285714    0.31250000000000    0.10000000000000             2
    0.00000000000000    0.37500000000000    0.10000000000000             2
    0.14285714285714    0.37500000000000    0.10000000000000             2
    0.28571428571429    0.37500000000000    0.10000000000000             2
    0.42857142857143    0.37500000000000    0.10000000000000             2
   -0.42857142857143    0.37500000000000    0.10000000000000             2
   -0.28571428571429    0.37500000000000    0.10000000000000             2
   -0.14285714285714    0.37500000000000    0.10000000000000             2
    0.00000000000000    0.43750000000000    0.10000000000000             2
    0.14285714285714    0.43750000000000    0.10000000000000             2
    0.28571428571429    0.43750000000000    0.10000000000000             2
    0.42857142857143    0.43750000000000    0.10000000000000             2
   -0.42857142857143    0.43750000000000    0.10000000000000             2
   -0.28571428571429    0.43750000000000    0.10000000000000             2
   -0.14285714285714    0.43750000000000    0.10000000000000             2
    0.00000000000000    0.50000000000000    0.10000000000000             2
    0.14285714285714    0.50000000000000    0.10000000000000             2
    0.28571428571429    0.50000000000000    0.10000000000000             2
    0.42857142857143    0.50000000000000    0.10000000000000             2
   -0.42857142857143    0.50000000000000    0.10000000000000             2
   -0.28571428571429    0.50000000000000    0.10000000000000             2
   -0.14285714285714    0.50000000000000    0.10000000000000             2
    0.00000000000000   -0.43750000000000    0.10000000000000             2
    0.14285714285714   -0.43750000000000    0.10000000000000             2
    0.28571428571429   -0.43750000000000    0.10000000000000             2
    0.42857142857143   -0.43750000000000    0.10000000000000             2
   -0.42857142857143   -0.43750000000000    0.10000000000000             2
   -0.28571428571429   -0.43750000000000    0.10000000000000             2
   -0.14285714285714   -0.43750000000000    0.10000000000000             2
    0.00000000000000   -0.37500000000000    0.10000000000000             2
    0.14285714285714   -0.37500000000000    0.10000000000000             2
    0.28571428571429   -0.37500000000000    0.10000000000000             2
    0.42857142857143   -0.37500000000000    0.10000000000000             2
   -0.42857142857143   -0.37500000000000    0.10000000000000             2
   -0.28571428571429   -0.37500000000000    0.10000000000000             2
   -0.14285714285714   -0.37500000000000    0.10000000000000             2
    0.00000000000000   -0.31250000000000    0.10000000000000             2
    0.14285714285714   -0.31250000000000    0.10000000000000             2
    0.28571428571429   -0.31250000000000    0.10000000000000             2
    0.42857142857143   -0.31250000000000    0.10000000000000             2
   -0.42857142857143   -0.31250000000000    0.10000000000000             2
   -0.28571428571429   -0.31250000000000    0.10000000000000             2
   -0.14285714285714   -0.31250000000000    0.10000000000000             2
    0.00000000000000   -0.25000000000000    0.10000000000000             2
    0.14285714285714   -0.25000000000000    0.10000000000000             2
    0.28571428571429   -0.25000000000000    0.10000000000000             2
    0.42857142857143   -0.25000000000000    0.10000000000000             2
   -0.42857142857143   -0.25000000000000    0.10000000000000             2
   -0.28571428571429   -0.25000000000000    0.10000000000000             2
   -0.14285714285714   -0.25000000000000    0.10000000000000             2
    0.00000000000000   -0.18750000000000    0.10000000000000             2
    0.14285714285714   -0.18750000000000    0.10000000000000             2
    0.28571428571429   -0.18750000000000    0.10000000000000             2
    0.42857142857143   -0.18750000000000    0.10000000000000             2
   -0.42857142857143   -0.18750000000000    0.10000000000000             2
   -0.28571428571429   -0.18750000000000    0.10000000000000             2
   -0.14285714285714   -0.18750000000000    0.10000000000000             2
    0.00000000000000   -0.12500000000000    0.10000000000000             2
    0.14285714285714   -0.12500000000000    0.10000000000000             2
    0.28571428571429   -0.12500000000000    0.10000000000000             2
    0.42857142857143   -0.12500000000000    0.10000000000000             2
   -0.42857142857143   -0.12500000000000    0.10000000000000             2
   -0.28571428571429   -0.12500000000000    0.10000000000000             2
   -0.14285714285714   -0.12500000000000    0.10000000000000             2
    0.00000000000000   -0.06250000000000    0.10000000000000             2
    0.14285714285714   -0.06250000000000    0.10000000000000             2
    0.28571428571429   -0.06250000000000    0.10000000000000             2
    0.42857142857143   -0.06250000000000    0.10000000000000             2
   -0.42857142857143   -0.06250000000000    0.10000000000000             2
   -0.28571428571429   -0.06250000000000    0.10000000000000             2
   -0.14285714285714   -0.06250000000000    0.10000000000000             2
    0.00000000000000    0.00000000000000    0.20000000000000             2
    0.14285714285714    0.00000000000000    0.20000000000000             2
    0.28571428571429    0.00000000000000    0.20000000000000             2
    0.42857142857143    0.00000000000000    0.20000000000000             2
   -0.42857142857143    0.00000000000000    0.20000000000000             2
   -0.28571428571429    0.00000000000000    0.20000000000000             2
   -0.14285714285714    0.00000000000000    0.20000000000000             2
    0.00000000000000    0.06250000000000    0.20000000000000             2
    0.14285714285714    0.06250000000000    0.20000000000000             2
    0.28571428571429    0.06250000000000    0.20000000000000             2
    0.42857142857143    0.06250000000000    0.20000000000000             2
   -0.42857142857143    0.06250000000000    0.20000000000000             2
   -0.28571428571429    0.06250000000000    0.20000000000000             2
   -0.14285714285714    0.06250000000000    0.20000000000000             2
    0.00000000000000    0.12500000000000    0.20000000000000             2
    0.14285714285714    0.12500000000000    0.20000000000000             2
    0.28571428571429    0.12500000000000    0.20000000000000             2
    0.42857142857143    0.12500000000000    0.20000000000000             2
   -0.42857142857143    0.12500000000000    0.20000000000000             2
   -0.28571428571429    0.12500000000000    0.20000000000000             2
   -0.14285714285714    0.12500000000000    0.20000000000000             2
    0.00000000000000    0.18750000000000    0.20000000000000             2
    0.14285714285714    0.18750000000000    0.20000000000000             2
    0.28571428571429    0.18750000000000    0.20000000000000             2
    0.42857142857143    0.18750000000000    0.20000000000000             2
   -0.42857142857143    0.18750000000000    0.20000000000000             2
   -0.28571428571429    0.18750000000000    0.20000000000000             2
   -0.14285714285714    0.18750000000000    0.20000000000000             2
    0.00000000000000    0.25000000000000    0.20000000000000             2
    0.14285714285714    0.25000000000000    0.20000000000000             2
    0.28571428571429    0.25000000000000    0.20000000000000             2
    0.42857142857143    0.25000000000000    0.20000000000000             2
   -0.42857142857143    0.25000000000000    0.20000000000000             2
   -0.28571428571429    0.25000000000000    0.20000000000000             2
   -0.14285714285714    0.25000000000000    0.20000000000000             2
    0.00000000000000    0.31250000000000    0.20000000000000             2
    0.14285714285714    0.31250000000000    0.20000000000000             2
    0.28571428571429    0.31250000000000    0.20000000000000             2
    0.42857142857143    0.31250000000000    0.20000000000000             2
   -0.42857142857143    0.31250000000000    0.20000000000000             2
   -0.28571428571429    0.31250000000000    0.20000000000000             2
   -0.14285714285714    0.31250000000000    0.20000000000000             2
    0.00000000000000    0.37500000000000    0.20000000000000             2
    0.14285714285714    0.37500000000000    0.20000000000000             2
    0.28571428571429    0.37500000000000    0.20000000000000             2
    0.42857142857143    0.37500000000000    0.20000000000000             2
   -0.42857142857143    0.37500000000000    0.20000000000000             2
   -0.28571428571429    0.37500000000000    0.20000000000000             2
   -0.14285714285714    0.37500000000000    0.20000000000000             2
    0.00000000000000    0.43750000000000    0.20000000000000             2
    0.14285714285714    0.43750000000000    0.20000000000000             2
    0.28571428571429    0.43750000000000    0.20000000000000             2
    0.42857142857143    0.43750000000000    0.20000000000000             2
   -0.42857142857143    0.43750000000000    0.20000000000000             2
   -0.28571428571429    0.43750000000000    0.20000000000000             2
   -0.14285714285714    0.43750000000000    0.20000000000000             2
    0.00000000000000    0.50000000000000    0.20000000000000             2
    0.14285714285714    0.50000000000000    0.20000000000000             2
    0.28571428571429    0.50000000000000    0.20000000000000             2
    0.42857142857143    0.50000000000000    0.20000000000000             2
   -0.42857142857143    0.50000000000000    0.20000000000000             2
   -0.28571428571429    0.50000000000000    0.20000000000000             2
   -0.14285714285714    0.50000000000000    0.20000000000000             2
    0.00000000000000   -0.43750000000000    0.20000000000000             2
    0.14285714285714   -0.43750000000000    0.20000000000000             2
    0.28571428571429   -0.43750000000000    0.20000000000000             2
    0.42857142857143   -0.43750000000000    0.20000000000000             2
   -0.42857142857143   -0.43750000000000    0.20000000000000             2
   -0.28571428571429   -0.43750000000000    0.20000000000000             2
   -0.14285714285714   -0.43750000000000    0.20000000000000             2
    0.00000000000000   -0.37500000000000    0.20000000000000             2
    0.14285714285714   -0.37500000000000    0.20000000000000             2
    0.28571428571429   -0.37500000000000    0.20000000000000             2
    0.42857142857143   -0.37500000000000    0.20000000000000             2
   -0.42857142857143   -0.37500000000000    0.20000000000000             2
   -0.28571428571429   -0.37500000000000    0.20000000000000             2
   -0.14285714285714   -0.37500000000000    0.20000000000000             2
    0.00000000000000   -0.31250000000000    0.20000000000000             2
    0.14285714285714   -0.31250000000000    0.20000000000000             2
    0.28571428571429   -0.31250000000000    0.20000000000000             2
    0.42857142857143   -0.31250000000000    0.20000000000000             2
   -0.42857142857143   -0.31250000000000    0.20000000000000             2
   -0.28571428571429   -0.31250000000000    0.20000000000000             2
   -0.14285714285714   -0.31250000000000    0.20000000000000             2
    0.00000000000000   -0.25000000000000    0.20000000000000             2
    0.14285714285714   -0.25000000000000    0.20000000000000             2
    0.28571428571429   -0.25000000000000    0.20000000000000             2
    0.42857142857143   -0.25000000000000    0.20000000000000             2
   -0.42857142857143   -0.25000000000000    0.20000000000000             2
   -0.28571428571429   -0.25000000000000    0.20000000000000             2
   -0.14285714285714   -0.25000000000000    0.20000000000000             2
    0.00000000000000   -0.18750000000000    0.20000000000000             2
    0.14285714285714   -0.18750000000000    0.20000000000000             2
    0.28571428571429   -0.18750000000000    0.20000000000000             2
    0.42857142857143   -0.18750000000000    0.20000000000000             2
   -0.42857142857143   -0.18750000000000    0.20000000000000             2
   -0.28571428571429   -0.18750000000000    0.20000000000000             2
   -0.14285714285714   -0.18750000000000    0.20000000000000             2
    0.00000000000000   -0.12500000000000    0.20000000000000             2
    0.14285714285714   -0.12500000000000    0.20000000000000             2
    0.28571428571429   -0.12500000000000    0.20000000000000             2
    0.42857142857143   -0.12500000000000    0.20000000000000             2
   -0.42857142857143   -0.12500000000000    0.20000000000000             2
   -0.28571428571429   -0.12500000000000    0.20000000000000             2
   -0.14285714285714   -0.12500000000000    0.20000000000000             2
    0.00000000000000   -0.06250000000000    0.20000000000000             2
    0.14285714285714   -0.06250000000000    0.20000000000000             2
    0.28571428571429   -0.06250000000000    0.20000000000000             2
    0.42857142857143   -0.06250000000000    0.20000000000000             2
   -0.42857142857143   -0.06250000000000    0.20000000000000             2
   -0.28571428571429   -0.06250000000000    0.20000000000000             2
   -0.14285714285714   -0.06250000000000    0.20000000000000             2
    0.00000000000000    0.00000000000000    0.30000000000000             2
    0.14285714285714    0.00000000000000    0.30000000000000             2
    0.28571428571429    0.00000000000000    0.30000000000000             2
    0.42857142857143    0.00000000000000    0.30000000000000             2
   -0.42857142857143    0.00000000000000    0.30000000000000             2
   -0.28571428571429    0.00000000000000    0.30000000000000             2
   -0.14285714285714    0.00000000000000    0.30000000000000             2
    0.00000000000000    0.06250000000000    0.30000000000000             2
    0.14285714285714    0.06250000000000    0.30000000000000             2
    0.28571428571429    0.06250000000000    0.30000000000000             2
    0.42857142857143    0.06250000000000    0.30000000000000             2
   -0.42857142857143    0.06250000000000    0.30000000000000             2
   -0.28571428571429    0.06250000000000    0.30000000000000             2
   -0.14285714285714    0.06250000000000    0.30000000000000             2
    0.00000000000000    0.12500000000000    0.30000000000000             2
    0.14285714285714    0.12500000000000    0.30000000000000             2
    0.28571428571429    0.12500000000000    0.30000000000000             2
    0.42857142857143    0.12500000000000    0.30000000000000             2
   -0.42857142857143    0.12500000000000    0.30000000000000             2
   -0.28571428571429    0.12500000000000    0.30000000000000             2
   -0.14285714285714    0.12500000000000    0.30000000000000             2
    0.00000000000000    0.18750000000000    0.30000000000000             2
    0.14285714285714    0.18750000000000    0.30000000000000             2
    0.28571428571429    0.18750000000000    0.30000000000000             2
    0.42857142857143    0.18750000000000    0.30000000000000             2
   -0.42857142857143    0.18750000000000    0.30000000000000             2
   -0.28571428571429    0.18750000000000    0.30000000000000             2
   -0.14285714285714    0.18750000000000    0.30000000000000             2
    0.00000000000000    0.25000000000000    0.30000000000000             2
    0.14285714285714    0.25000000000000    0.30000000000000             2
    0.28571428571429    0.25000000000000    0.30000000000000             2
    0.42857142857143    0.25000000000000    0.30000000000000             2
   -0.42857142857143    0.25000000000000    0.30000000000000             2
   -0.28571428571429    0.25000000000000    0.30000000000000             2
   -0.14285714285714    0.25000000000000    0.30000000000000             2
    0.00000000000000    0.31250000000000    0.30000000000000             2
    0.14285714285714    0.31250000000000    0.30000000000000             2
    0.28571428571429    0.31250000000000    0.30000000000000             2
    0.42857142857143    0.31250000000000    0.30000000000000             2
   -0.42857142857143    0.31250000000000    0.30000000000000             2
   -0.28571428571429    0.31250000000000    0.30000000000000             2
   -0.14285714285714    0.31250000000000    0.30000000000000             2
    0.00000000000000    0.37500000000000    0.30000000000000             2
    0.14285714285714    0.37500000000000    0.30000000000000             2
    0.28571428571429    0.37500000000000    0.30000000000000             2
    0.42857142857143    0.37500000000000    0.30000000000000             2
   -0.42857142857143    0.37500000000000    0.30000000000000             2
   -0.28571428571429    0.37500000000000    0.30000000000000             2
   -0.14285714285714    0.37500000000000    0.30000000000000             2
    0.00000000000000    0.43750000000000    0.30000000000000             2
    0.14285714285714    0.43750000000000    0.30000000000000             2
    0.28571428571429    0.43750000000000    0.30000000000000             2
    0.42857142857143    0.43750000000000    0.30000000000000             2
   -0.42857142857143    0.43750000000000    0.30000000000000             2
   -0.28571428571429    0.43750000000000    0.30000000000000             2
   -0.14285714285714    0.43750000000000    0.30000000000000             2
    0.00000000000000    0.50000000000000    0.30000000000000             2
    0.14285714285714    0.50000000000000    0.30000000000000             2
    0.28571428571429    0.50000000000000    0.30000000000000             2
    0.42857142857143    0.50000000000000    0.30000000000000             2
   -0.42857142857143    0.50000000000000    0.30000000000000             2
   -0.28571428571429    0.50000000000000    0.30000000000000             2
   -0.14285714285714    0.50000000000000    0.30000000000000             2
    0.00000000000000   -0.43750000000000    0.30000000000000             2
    0.14285714285714   -0.43750000000000    0.30000000000000             2
    0.28571428571429   -0.43750000000000    0.30000000000000             2
    0.42857142857143   -0.43750000000000    0.30000000000000             2
   -0.42857142857143   -0.43750000000000    0.30000000000000             2
   -0.28571428571429   -0.43750000000000    0.30000000000000             2
   -0.14285714285714   -0.43750000000000    0.30000000000000             2
    0.00000000000000   -0.37500000000000    0.30000000000000             2
    0.14285714285714   -0.37500000000000    0.30000000000000             2
    0.28571428571429   -0.37500000000000    0.30000000000000             2
    0.42857142857143   -0.37500000000000    0.30000000000000             2
   -0.42857142857143   -0.37500000000000    0.30000000000000             2
   -0.28571428571429   -0.37500000000000    0.30000000000000             2
   -0.14285714285714   -0.37500000000000    0.30000000000000             2
    0.00000000000000   -0.31250000000000    0.30000000000000             2
    0.14285714285714   -0.31250000000000    0.30000000000000             2
    0.28571428571429   -0.31250000000000    0.30000000000000             2
    0.42857142857143   -0.31250000000000    0.30000000000000             2
   -0.42857142857143   -0.31250000000000    0.30000000000000             2
   -0.28571428571429   -0.31250000000000    0.30000000000000             2
   -0.14285714285714   -0.31250000000000    0.30000000000000             2
    0.00000000000000   -0.25000000000000    0.30000000000000             2
    0.14285714285714   -0.25000000000000    0.30000000000000             2
    0.28571428571429   -0.25000000000000    0.30000000000000             2
    0.42857142857143   -0.25000000000000    0.30000000000000             2
   -0.42857142857143   -0.25000000000000    0.30000000000000             2
   -0.28571428571429   -0.25000000000000    0.30000000000000             2
   -0.14285714285714   -0.25000000000000    0.30000000000000             2
    0.00000000000000   -0.18750000000000    0.30000000000000             2
    0.14285714285714   -0.18750000000000    0.30000000000000             2
    0.28571428571429   -0.18750000000000    0.30000000000000             2
    0.42857142857143   -0.18750000000000    0.30000000000000             2
   -0.42857142857143   -0.18750000000000    0.30000000000000             2
   -0.28571428571429   -0.18750000000000    0.30000000000000             2
   -0.14285714285714   -0.18750000000000    0.30000000000000             2
    0.00000000000000   -0.12500000000000    0.30000000000000             2
    0.14285714285714   -0.12500000000000    0.30000000000000             2
    0.28571428571429   -0.12500000000000    0.30000000000000             2
    0.42857142857143   -0.12500000000000    0.30000000000000             2
   -0.42857142857143   -0.12500000000000    0.30000000000000             2
   -0.28571428571429   -0.12500000000000    0.30000000000000             2
   -0.14285714285714   -0.12500000000000    0.30000000000000             2
    0.00000000000000   -0.06250000000000    0.30000000000000             2
    0.14285714285714   -0.06250000000000    0.30000000000000             2
    0.28571428571429   -0.06250000000000    0.30000000000000             2
    0.42857142857143   -0.06250000000000    0.30000000000000             2
   -0.42857142857143   -0.06250000000000    0.30000000000000             2
   -0.28571428571429   -0.06250000000000    0.30000000000000             2
   -0.14285714285714   -0.06250000000000    0.30000000000000             2
    0.00000000000000    0.00000000000000    0.40000000000000             2
    0.14285714285714    0.00000000000000    0.40000000000000             2
    0.28571428571429    0.00000000000000    0.40000000000000             2
    0.42857142857143    0.00000000000000    0.40000000000000             2
   -0.42857142857143    0.00000000000000    0.40000000000000             2
   -0.28571428571429    0.00000000000000    0.40000000000000             2