unknown system                          
           1
     3.314444   -0.127115   -0.528885
     0.169523    3.408144    0.241025
    -0.398733    1.494923    7.764414
   H    Nb   H    Sr   H    Nb
   3   1   1   1   3   1
Direct configuration=     1
   0.02487681  0.30214034  0.00482814
   0.60115385  0.03212718  0.15757436
   0.09912752  0.64550218  0.15225339
   0.54449345  0.60431808  0.04167490
   0.84256615  0.81579195  0.63505058
   0.22166963  0.92449941  0.39611308
   0.67706777  0.46142807  0.30919459
   0.33770414  0.27260613  0.62648228
   0.42513909  0.54380963  0.80251385
   0.91152160  0.24162403  0.77496184
unknown system                          
           1
     3.315258   -0.127163   -0.529475
     0.169557    3.410790    0.240918
    -0.399614    1.495615    7.768135
   H    Nb   H    Sr   H    Nb
   3   1   1   1   3   1
Direct configuration=     2
   0.02491810  0.30202612  0.00467752
   0.60125248  0.03200076  0.15758667
   0.09926991  0.64532912  0.15231704
   0.54393064  0.60473313  0.04112243
   0.84231646  0.81586704  0.63491089
   0.22160212  0.92439399  0.39611006
   0.67728037  0.46138344  0.30928869
   0.33761057  0.27291042  0.62638553
   0.42521275  0.54403509  0.80264312
   0.91192661  0.24116790  0.77560505
unknown system                          
           1
     3.315216   -0.127161   -0.529444
     0.169555    3.410654    0.240923
    -0.399569    1.495580    7.767943
   H    Nb   H    Sr   H    Nb
   3   1   1   1   3   1
Direct configuration=     3
   0.02491597  0.30203199  0.00468526
   0.60124741  0.03200725  0.15758604
   0.09926259  0.64533801  0.15231377
   0.54395958  0.60471180  0.04115082
   0.84232930  0.81586318  0.63491807
   0.22160559  0.92439941  0.39611022
   0.67726944  0.46138573  0.30928386
   0.33761538  0.27289479  0.62639050
   0.42520896  0.54402350  0.80263648
   0.91190578  0.24119134  0.77557199
