       N       E                     dE             d eps       ncg     rms          rms(c)
DAV:   1     0.310757027021E+03    0.31076E+03   -0.21395E+04  8256   0.920E+02
DAV:   2    -0.508278483974E+02   -0.36158E+03   -0.34200E+03  8432   0.300E+02
DAV:   3    -0.721617163398E+02   -0.21334E+02   -0.20992E+02 14064   0.697E+01
DAV:   4    -0.726220003072E+02   -0.46028E+00   -0.45863E+00 10960   0.706E+00
DAV:   5    -0.726330969625E+02   -0.11097E-01   -0.11091E-01 12528   0.110E+00    0.459E+01
RMM:   6    -0.731168026375E+02   -0.48371E+00   -0.80299E+00  9022   0.106E+01    0.194E+01
RMM:   7    -0.728843771733E+02    0.23243E+00   -0.17978E+00  8859   0.654E+00    0.759E+00
RMM:   8    -0.729098622186E+02   -0.25485E-01   -0.24916E-01  9022   0.332E+00    0.430E+00
RMM:   9    -0.729063145082E+02    0.35477E-02   -0.63270E-02  8506   0.116E+00    0.186E+00
RMM:  10    -0.729111749414E+02   -0.48604E-02   -0.18918E-02  8043   0.975E-01    0.651E-01
RMM:  11    -0.729130591137E+02   -0.18842E-02   -0.44922E-03  7700   0.365E-01    0.286E-01
RMM:  12    -0.729132553316E+02   -0.19622E-03   -0.10105E-03  6331   0.249E-01
   1 F= -.72913255E+02 E0= -.72913255E+02  d E =-.729133E+02  mag=     0.0000
       N       E                     dE             d eps       ncg     rms          rms(c)
DAV:   1    -0.732014327153E+02   -0.28837E+00   -0.42816E+00 10768   0.118E+01    0.560E+00
RMM:   2    -0.730209370599E+02    0.18050E+00   -0.45708E-01  9017   0.326E+00    0.108E+00
RMM:   3    -0.729970770682E+02    0.23860E-01   -0.39270E-02  9041   0.144E+00    0.774E-01
RMM:   4    -0.729922344662E+02    0.48426E-02   -0.10516E-02  8128   0.549E-01    0.766E-01
RMM:   5    -0.729916454534E+02    0.58901E-03   -0.26507E-03  6665   0.442E-01
   2 F= -.72991645E+02 E0= -.72991645E+02  d E =-.783901E-01  mag=    -0.0000
       N       E                     dE             d eps       ncg     rms          rms(c)
DAV:   1    -0.737743234553E+02   -0.78209E+00   -0.15599E+01  8288   0.224E+01    0.104E+01
RMM:   2    -0.730969131910E+02    0.67741E+00   -0.16742E+00  8928   0.624E+00    0.210E+00
RMM:   3    -0.730036629139E+02    0.93250E-01   -0.13753E-01  8946   0.279E+00    0.149E+00
RMM:   4    -0.729863071556E+02    0.17356E-01   -0.42923E-02  8963   0.109E+00    0.164E+00
RMM:   5    -0.729850243944E+02    0.12828E-02   -0.99220E-03  8526   0.736E-01    0.135E+00
RMM:   6    -0.729844070495E+02    0.61734E-03   -0.17594E-02  9189   0.546E-01    0.369E-01
RMM:   7    -0.729845796860E+02   -0.17264E-03   -0.49044E-03  8200   0.322E-01
   3 F= -.72984580E+02 E0= -.72984580E+02  d E =-.713244E-01  mag=     0.0000
       N       E                     dE             d eps       ncg     rms          rms(c)
DAV:   1    -0.731433012029E+02   -0.15889E+00   -0.26598E+00  9312   0.898E+00    0.442E+00
RMM:   2    -0.730297615550E+02    0.11354E+00   -0.28227E-01  8923   0.264E+00    0.853E-01
RMM:   3    -0.730154324405E+02    0.14329E-01   -0.28194E-02  8984   0.112E+00    0.558E-01
RMM:   4    -0.730118221817E+02    0.36103E-02   -0.69925E-03  7775   0.448E-01    0.531E-01
RMM:   5    -0.730113062206E+02    0.51596E-03   -0.18286E-03  6585   0.362E-01
   4 F= -.73011306E+02 E0= -.73011306E+02  d E =-.980509E-01  mag=     0.0000
       N       E                     dE             d eps       ncg     rms          rms(c)
DAV:   1    -0.730340082997E+02   -0.22186E-01   -0.36711E+00  9632   0.133E+01    0.279E+00
RMM:   2    -0.730371168928E+02   -0.31086E-02   -0.33602E-01  9180   0.252E+00    0.147E+00
RMM:   3    -0.730305313767E+02    0.65855E-02   -0.28364E-02  8627   0.165E+00    0.502E-01
RMM:   4    -0.730311649828E+02   -0.63361E-03   -0.66181E-03  7869   0.333E-01
   5 F= -.73031165E+02 E0= -.73031165E+02  d E =-.198588E-01  mag=    -0.0000
       N       E                     dE             d eps       ncg     rms          rms(c)
DAV:   1    -0.730336413089E+02   -0.31099E-02   -0.26959E-01 10720   0.362E+00    0.952E-01
RMM:   2    -0.730342277458E+02   -0.58644E-03   -0.23437E-02  8939   0.654E-01    0.578E-01
RMM:   3    -0.730337830772E+02    0.44467E-03   -0.15322E-03  6286   0.425E-01
   6 F= -.73033783E+02 E0= -.73033783E+02  d E =-.224769E-01  mag=    -0.0000
       N       E                     dE             d eps       ncg     rms          rms(c)
DAV:   1    -0.730466200419E+02   -0.12392E-01   -0.66890E-01  8256   0.441E+00    0.509E-01
RMM:   2    -0.730463079162E+02    0.31213E-03   -0.45381E-02  9276   0.999E-01    0.341E-01
RMM:   3    -0.730457259877E+02    0.58193E-03   -0.30381E-03  7133   0.585E-01
   7 F= -.73045726E+02 E0= -.73045726E+02  d E =-.119429E-01  mag=    -0.0000
       N       E                     dE             d eps       ncg     rms          rms(c)
DAV:   1    -0.730459707954E+02    0.33712E-03   -0.16263E-02 12384   0.704E-01    0.239E-01
RMM:   2    -0.730457975888E+02    0.17321E-03   -0.93607E-04  4470   0.147E-01
   8 F= -.73045798E+02 E0= -.73045798E+02  d E =-.120145E-01  mag=     0.0000
       N       E                     dE             d eps       ncg     rms          rms(c)
DAV:   1    -0.730563496083E+02   -0.10379E-01   -0.16869E-01  8320   0.215E+00    0.550E-01
RMM:   2    -0.730534169696E+02    0.29326E-02   -0.13068E-02  8843   0.573E-01    0.202E-01
RMM:   3    -0.730530305275E+02    0.38644E-03   -0.81178E-04  5322   0.285E-01
   9 F= -.73053031E+02 E0= -.73053031E+02  d E =-.723294E-02  mag=     0.0000
       N       E                     dE             d eps       ncg     rms          rms(c)
DAV:   1    -0.730926489835E+02   -0.39232E-01   -0.15152E+00  8320   0.641E+00    0.176E+00
RMM:   2    -0.730667627998E+02    0.25886E-01   -0.11529E-01  8928   0.175E+00    0.601E-01
RMM:   3    -0.730636372122E+02    0.31256E-02   -0.93490E-03  8354   0.804E-01    0.485E-01
RMM:   4    -0.730630229429E+02    0.61427E-03   -0.31862E-03  6964   0.300E-01
  10 F= -.73063023E+02 E0= -.73063023E+02  d E =-.172254E-01  mag=    -0.0000
       N       E                     dE             d eps       ncg     rms          rms(c)
DAV:   1    -0.730758831605E+02   -0.12246E-01   -0.23323E-01 12064   0.296E+00    0.844E-01
RMM:   2    -0.730701080330E+02    0.57751E-02   -0.22737E-02  9037   0.684E-01    0.234E-01
RMM:   3    -0.730691477601E+02    0.96027E-03   -0.14690E-03  6443   0.315E-01    0.267E-01
RMM:   4    -0.730690755016E+02    0.72258E-04   -0.77014E-04  4837   0.161E-01
  11 F= -.73069076E+02 E0= -.73069076E+02  d E =-.605256E-02  mag=    -0.0000
       N       E                     dE             d eps       ncg     rms          rms(c)
DAV:   1    -0.731246174478E+02   -0.55470E-01   -0.19182E+00  9632   0.840E+00    0.253E+00
RMM:   2    -0.730809932140E+02    0.43624E-01   -0.18805E-01  9044   0.199E+00    0.597E-01
RMM:   3    -0.730743343082E+02    0.66589E-02   -0.14055E-02  8540   0.918E-01    0.415E-01
RMM:   4    -0.730736312918E+02    0.70302E-03   -0.67910E-03  7570   0.359E-01
  12 F= -.73073631E+02 E0= -.73073631E+02  d E =-.106083E-01  mag=     0.0000
       N       E                     dE             d eps       ncg     rms          rms(c)
DAV:   1    -0.730857615998E+02   -0.11427E-01   -0.27494E-01  9968   0.280E+00    0.896E-01
RMM:   2    -0.730778338557E+02    0.79277E-02   -0.26293E-02  8888   0.797E-01    0.328E-01
RMM:   3    -0.730767592278E+02    0.10746E-02   -0.21274E-03  6945   0.405E-01    0.369E-01
RMM:   4    -0.730766620504E+02    0.97177E-04   -0.74815E-04  5629   0.165E-01
  13 F= -.73076662E+02 E0= -.73076662E+02  d E =-.303076E-02  mag=    -0.0000
       N       E                     dE             d eps       ncg     rms          rms(c)
DAV:   1    -0.730771356048E+02   -0.37638E-03   -0.23790E-02 10912   0.830E-01    0.259E-01
RMM:   2    -0.730764232763E+02    0.71233E-03   -0.19007E-03  5876   0.244E-01
  14 F= -.73076423E+02 E0= -.73076423E+02  d E =-.279198E-02  mag=     0.0000
