 running on   16 total cores
 distrk:  each k-point on   16 cores,    1 groups
 distr:  one band on    1 cores,   16 groups
 using from now: INCAR     
 vasp.5.4.4.18Apr17-6-g9f103f2a35 (build Nov 01 2019 12:17:22) complex          
  
 POSCAR found type information on POSCAR  Sr Nb H 
 POSCAR found :  3 types and      20 ions

 ----------------------------------------------------------------------------- 
|                                                                             |
|           W    W    AA    RRRRR   N    N  II  N    N   GGGG   !!!           |
|           W    W   A  A   R    R  NN   N  II  NN   N  G    G  !!!           |
|           W    W  A    A  R    R  N N  N  II  N N  N  G       !!!           |
|           W WW W  AAAAAA  RRRRR   N  N N  II  N  N N  G  GGG   !            |
|           WW  WW  A    A  R   R   N   NN  II  N   NN  G    G                |
|           W    W  A    A  R    R  N    N  II  N    N   GGGG   !!!           |
|                                                                             |
|      For optimal performance we recommend to set                            |
|        NCORE= 4 - approx SQRT( number of cores)                             |
|      NCORE specifies how many cores store one orbital (NPAR=cpu/NCORE).     |
|      This setting can  greatly improve the performance of VASP for DFT.     |
|      The default,   NCORE=1            might be grossly inefficient         |
|      on modern multi-core architectures or massively parallel machines.     |
|      Do your own testing !!!!                                               |
|      Unfortunately you need to use the default for GW and RPA calculations. |
|      (for HF NCORE is supported but not extensively tested yet)             |
|                                                                             |
 ----------------------------------------------------------------------------- 

 LDA part: xc-table for Pade appr. of Perdew
 POSCAR, INCAR and KPOINTS ok, starting setup
 FFT: planning ...
 WAVECAR not read
 entering main loop
       N       E                     dE             d eps       ncg     rms          rms(c)
DAV:   1     0.552590488839E+03    0.55259E+03   -0.30838E+04 10752   0.102E+03
DAV:   2    -0.456267732371E+02   -0.59822E+03   -0.55817E+03 10768   0.350E+02
DAV:   3    -0.880056696772E+02   -0.42379E+02   -0.41290E+02 17808   0.909E+01
DAV:   4    -0.900183375501E+02   -0.20127E+01   -0.19901E+01 16528   0.136E+01
DAV:   5    -0.900823620245E+02   -0.64024E-01   -0.63992E-01 17120   0.207E+00    0.544E+01
RMM:   6    -0.893931488892E+02    0.68921E+00   -0.11729E+01 12013   0.112E+01    0.229E+01
RMM:   7    -0.887829745694E+02    0.61017E+00   -0.31521E+00 11972   0.670E+00    0.957E+00
RMM:   8    -0.885528457352E+02    0.23013E+00   -0.69647E-01 11920   0.377E+00    0.546E+00
RMM:   9    -0.884705228201E+02    0.82323E-01   -0.15343E-01 12009   0.162E+00    0.309E+00
RMM:  10    -0.884757718923E+02   -0.52491E-02   -0.26703E-02 12114   0.695E-01    0.140E+00
RMM:  11    -0.884791275554E+02   -0.33557E-02   -0.83839E-03 10927   0.435E-01    0.461E-01
RMM:  12    -0.884787807952E+02    0.34676E-03   -0.22125E-03  8923   0.237E-01
   1 F= -.88478781E+02 E0= -.88478781E+02  d E =-.884788E+02  mag=     0.0020
 curvature:   0.00 expect dE= 0.000E+00 dE for cont linesearch  0.000E+00
 trial: gam= 0.00000 g(F)=  0.326E-02 g(S)=  0.942E-01 ort = 0.000E+00 (trialstep = 0.100E+01)
 search vector abs. value=  0.975E-01
 bond charge predicted
       N       E                     dE             d eps       ncg     rms          rms(c)
DAV:   1    -0.888074752150E+02   -0.32835E+00   -0.53575E+00 13440   0.118E+01    0.613E+00
RMM:   2    -0.885829181242E+02    0.22456E+00   -0.68191E-01 12515   0.341E+00    0.133E+00
RMM:   3    -0.885461130160E+02    0.36805E-01   -0.68833E-02 12138   0.151E+00    0.781E-01
RMM:   4    -0.885372125104E+02    0.89005E-02   -0.19542E-02 11173   0.655E-01    0.775E-01
RMM:   5    -0.885370471514E+02    0.16536E-03   -0.51900E-03  9110   0.507E-01
   2 F= -.88537047E+02 E0= -.88537047E+02  d E =-.582664E-01  mag=     0.0001
 trial-energy change:   -0.058266  1 .order   -0.073517   -0.097506   -0.049528
 step:   2.0323(harm=  2.0323)  dis= 0.00997  next Energy=   -88.577862 (dE=-0.991E-01)
 bond charge predicted
       N       E                     dE             d eps       ncg     rms          rms(c)
DAV:   1    -0.888208685901E+02   -0.28366E+00   -0.55495E+00 10944   0.120E+01    0.627E+00
RMM:   2    -0.885703966284E+02    0.25047E+00   -0.69427E-01 12269   0.352E+00    0.136E+00
RMM:   3    -0.885310545567E+02    0.39342E-01   -0.71977E-02 11955   0.162E+00    0.842E-01
RMM:   4    -0.885229652623E+02    0.80893E-02   -0.23386E-02 11954   0.692E-01    0.946E-01
RMM:   5    -0.885208467960E+02    0.21185E-02   -0.60493E-03  9794   0.540E-01    0.846E-01
RMM:   6    -0.885216181633E+02   -0.77137E-03   -0.32436E-03  8979   0.265E-01
   3 F= -.88521618E+02 E0= -.88521618E+02  d E =-.428374E-01  mag=     0.0000
 curvature:  -1.02 expect dE=-0.410E-01 dE for cont linesearch -0.649E-02
 trial: gam= 0.00000 g(F)=  0.292E-01 g(S)=  0.112E-01 ort =-0.250E-01 (trialstep = 0.121E+01)
 search vector abs. value=  0.404E-01
 bond charge predicted
       N       E                     dE             d eps       ncg     rms          rms(c)
DAV:   1    -0.885794122253E+02   -0.58565E-01   -0.21446E+00 12416   0.822E+00    0.266E+00
RMM:   2    -0.885667606649E+02    0.12652E-01   -0.25170E-01 13047   0.207E+00    0.912E-01
RMM:   3    -0.885595102447E+02    0.72504E-02   -0.18811E-02 11624   0.107E+00    0.305E-01
RMM:   4    -0.885588102134E+02    0.70003E-03   -0.58878E-03 10051   0.373E-01
   4 F= -.88558810E+02 E0= -.88558810E+02  d E =-.371921E-01  mag=    -0.0000
 trial-energy change:   -0.037192  1 .order   -0.033700   -0.048711   -0.018689
 step:   1.9575(harm=  1.9575)  dis= 0.01855  next Energy=   -88.561135 (dE=-0.395E-01)
 bond charge predicted
       N       E                     dE             d eps       ncg     rms          rms(c)
DAV:   1    -0.885690767583E+02   -0.95665E-02   -0.79370E-01 13376   0.506E+00    0.168E+00
RMM:   2    -0.885625771004E+02    0.64997E-02   -0.96037E-02 12752   0.126E+00    0.567E-01
RMM:   3    -0.885599923077E+02    0.25848E-02   -0.82237E-03 10684   0.751E-01    0.283E-01
RMM:   4    -0.885594003747E+02    0.59193E-03   -0.28709E-03  9014   0.252E-01
   5 F= -.88559400E+02 E0= -.88559400E+02  d E =-.377822E-01  mag=    -0.0000
 curvature:  -0.98 expect dE=-0.174E-01 dE for cont linesearch -0.182E-02
 trial: gam= 0.00000 g(F)=  0.158E-01 g(S)=  0.190E-02 ort =-0.866E-02 (trialstep = 0.136E+01)
 search vector abs. value=  0.177E-01
 bond charge predicted
       N       E                     dE             d eps       ncg     rms          rms(c)
DAV:   1    -0.885214731612E+02    0.38519E-01   -0.33304E+00 12096   0.124E+01    0.136E+00
RMM:   2    -0.885638535266E+02   -0.42380E-01   -0.53592E-01 11817   0.269E+00    0.738E-01
RMM:   3    -0.885635156175E+02    0.33791E-03   -0.36857E-02 10764   0.175E+00    0.335E-01
RMM:   4    -0.885639988670E+02   -0.48325E-03   -0.78527E-03  9364   0.369E-01
   6 F= -.88563999E+02 E0= -.88563999E+02  d E =-.459849E-02  mag=     0.0000
 trial-energy change:   -0.004598  1 .order   -0.004817   -0.024055    0.014420
 step:   0.8482(harm=  0.8482)  dis= 0.00916  next Energy=   -88.566920 (dE=-0.752E-02)
 bond charge predicted
       N       E                     dE             d eps       ncg     rms          rms(c)
DAV:   1    -0.885609455960E+02    0.25700E-02   -0.46698E-01 12192   0.463E+00    0.633E-01
RMM:   2    -0.885666354426E+02   -0.56898E-02   -0.73116E-02 11285   0.980E-01    0.387E-01
RMM:   3    -0.885665113171E+02    0.12413E-03   -0.50293E-03  9356   0.658E-01
   7 F= -.88566511E+02 E0= -.88566511E+02  d E =-.711094E-02  mag=    -0.0000
 curvature:  -0.42 expect dE=-0.126E-02 dE for cont linesearch -0.273E-03
 trial: gam=-0.02262 g(F)=  0.228E-02 g(S)=  0.690E-03 ort = 0.338E-02 (trialstep = 0.125E+01)
 search vector abs. value=  0.283E-02
 reached required accuracy - stopping structural energy minimisation
