   15   15   60    1
  0.5761535E+01  0.2932734E-09  0.4675639E-09  0.7164283E-09  0.5000000E-15
  1.000000000000000E-004
  CAR 
 unknown system                          
     15    424     16
 
  0.3742002E-15  0.3742002E-15  0.3742002E-15  0.1190476E-02
    1      -12.257385   1.000000
    2      -10.362087   1.000000
    3       -9.044032   1.000000
    4       -8.013472   1.000000
    5       -6.751461   1.000000
    6       -6.566814   1.000000
    7       -5.049275   1.000000
    8        2.262634   0.000000
    9        3.676082   0.000000
   10        4.318494   0.000000
   11        4.854813   0.000000
   12        6.294339   0.000000
   13        6.495400   0.000000
   14        6.565877   0.000000
   15        7.702945   0.000000
   16        9.212278   0.000000
 
  0.7142857E-01  0.3547510E-15  0.3747003E-15  0.2380952E-02
    1      -12.168859   1.000000
    2      -10.286058   1.000000
    3       -8.979974   1.000000
    4       -7.973516   1.000000
    5       -6.819338   1.000000
    6       -6.475690   1.000000
    7       -5.080792   1.000000
    8        2.376326   0.000000
    9        3.688077   0.000000
   10        4.000974   0.000000
   11        4.459777   0.000000
   12        4.940177   0.000000
   13        6.237656   0.000000
   14        7.593635   0.000000
   15        8.875280   0.000000
   16        9.252763   0.000000
 
  0.1428571E+00  0.3382711E-15  0.3747003E-15  0.2380952E-02
    1      -11.904881   1.000000
    2      -10.067357   1.000000
    3       -8.793071   1.000000
    4       -7.854044   1.000000
    5       -6.902057   1.000000
    6       -6.343538   1.000000
    7       -5.198657   1.000000
    8        1.796543   0.000000
    9        2.717734   0.000000
   10        3.774591   0.000000
   11        4.600380   0.000000
   12        4.906328   0.000000
   13        6.109327   0.000000
   14        7.047084   0.000000
   15        8.554133   0.000000
   16        8.742285   0.000000
 
  0.2142857E+00  0.3391384E-15  0.3538836E-15  0.2380952E-02
    1      -11.464834   1.000000
    2       -9.704266   1.000000
    3       -8.492504   1.000000
    4       -7.663937   1.000000
    5       -6.943213   1.000000
    6       -6.249311   1.000000
    7       -5.424428   1.000000
    8       -0.244652   0.000000
    9        3.153223   0.000000
   10        3.923371   0.000000
   11        4.564743   0.000000
   12        4.804707   0.000000
   13        5.915821   0.000000
   14        6.494994   0.000000
   15        7.718437   0.000000
   16        8.293850   0.000000
 
  0.2857143E+00  0.3512815E-15  0.3608225E-15  0.2380952E-02
    1      -10.859533   1.000000
    2       -9.212145   1.000000
    3       -8.107391   1.000000
    4       -7.430736   1.000000
    5       -6.927353   1.000000
    6       -6.247866   1.000000
    7       -5.795383   1.000000
    8       -2.099248   1.029465
    9        3.310877   0.000000
   10        3.935288   0.000000
   11        4.398485   0.000000
   12        4.856245   0.000000
   13        5.272793   0.000000
   14        6.671432   0.000000
   15        7.434966   0.000000
   16        8.103452   0.000000
 
  0.3571429E+00  0.3469447E-15  0.3747003E-15  0.2380952E-02
    1      -10.109088   1.000000
    2       -8.615461   1.000000
    3       -7.675344   1.000000
    4       -7.230776   1.000000
    5       -6.857167   1.000000
    6       -6.470184   1.000000
    7       -6.232776   1.000000
    8       -3.721316   1.000000
    9        2.956146   0.000000
   10        3.374263   0.000000
   11        4.523835   0.000000
   12        5.010212   0.000000
   13        5.448352   0.000000
   14        6.745348   0.000000
   15        7.262389   0.000000
   16        8.191633   0.000000
 
  0.4285714E+00  0.3868433E-15  0.3747003E-15  0.2380952E-02
    1       -9.240494   1.000000
    2       -8.039830   1.000000
    3       -7.377681   1.000000
    4       -7.218169   1.000000
    5       -6.835295   1.000000
    6       -6.714284   1.000000
    7       -6.480529   1.000000
    8       -5.058335   1.000000
    9        2.479462   0.000000
   10        2.993359   0.000000
   11        4.419171   0.000000
   12        5.224738   0.000000
   13        6.153710   0.000000
   14        6.751488   0.000000
   15        6.987881   0.000000
   16        8.330504   0.000000
 
  0.5000000E+00  0.3469447E-15  0.3885781E-15  0.1190476E-02
    1       -8.406922   1.000000
    2       -8.311958   1.000000
    3       -7.411279   1.000000
    4       -7.147672   1.000000
    5       -6.794348   1.000000
    6       -6.684427   1.000000
    7       -6.360946   1.000000
    8       -5.855697   1.000000
    9        2.281434   0.000000
   10        2.859455   0.000000
   11        4.414879   0.000000
   12        5.280488   0.000000
   13        6.568133   0.000000
   14        6.601834   0.000000
   15        7.071508   0.000000
   16        8.119077   0.000000
 
  0.3743750E-15  0.1000000E+00  0.3816392E-15  0.2380952E-02
    1      -12.201966   1.000000
    2      -10.375144   1.000000
    3       -8.972869   1.000000
    4       -8.114868   1.000000
    5       -7.145323   1.000000
    6       -6.298823   1.000000
    7       -5.039005   1.000000
    8        2.500846   0.000000
    9        3.506242   0.000000
   10        4.421533   0.000000
   11        5.118364   0.000000
   12        6.056012   0.000000
   13        6.504252   0.000000
   14        6.561219   0.000000
   15        7.779714   0.000000
   16        9.204781   0.000000
 
  0.7142857E-01  0.1000000E+00  0.3469447E-15  0.2380952E-02
    1      -12.075054   1.000000
    2      -10.304776   1.000000
    3       -8.876078   1.000000
    4       -8.122847   1.000000
    5       -7.300606   1.000000
    6       -6.216033   1.000000
    7       -5.068561   1.000000
    8        2.728421   0.000000
    9        3.505748   0.000000
   10        3.958845   0.000000
   11        4.674170   0.000000
   12        5.210103   0.000000
   13        6.069308   0.000000
   14        7.623707   0.000000
   15        8.791762   0.000000
   16        9.243046   0.000000
 
  0.1428571E+00  0.1000000E+00  0.3608225E-15  0.2380952E-02
    1      -11.773605   1.000000
    2      -10.089966   1.000000
    3       -8.675905   1.000000
    4       -8.027052   1.000000
    5       -7.381478   1.000000
    6       -6.154219   1.000000
    7       -5.187871   1.000000
    8        1.794403   0.000000
    9        3.030296   0.000000
   10        3.723919   0.000000
   11        4.769453   0.000000
   12        5.137993   0.000000
   13        6.246563   0.000000
   14        6.998788   0.000000
   15        8.132224   0.000000
   16        8.779706   0.000000
 
  0.2142857E+00  0.1000000E+00  0.3608225E-15  0.2380952E-02
    1      -11.295774   1.000000
    2       -9.727559   1.000000
    3       -8.392936   1.000000
    4       -7.846480   1.000000
    5       -7.367404   1.000000
    6       -6.136428   1.000000
    7       -5.441999   1.000000
    8       -0.227596   0.000000
    9        3.197208   0.000000
   10        4.113013   0.000000
   11        4.769899   0.000000
   12        5.033776   0.000000
   13        6.040729   0.000000
   14        6.658276   0.000000
   15        7.499334   0.000000
   16        8.223863   0.000000
 
  0.2857143E+00  0.1000000E+00  0.3747003E-15  0.2380952E-02
    1      -10.652582   1.000000
    2       -9.232356   1.000000
    3       -8.047335   1.000000
    4       -7.639284   1.000000
    5       -7.247209   1.000000
    6       -6.192426   1.000000
    7       -5.857264   1.000000
    8       -2.046955   1.035403
    9        3.110723   0.000000
   10        4.048326   0.000000
   11        4.568619   0.000000
   12        5.246786   0.000000
   13        5.648097   0.000000
   14        6.735003   0.000000
   15        7.306002   0.000000
   16        8.188756   0.000000
 
  0.3571429E+00  0.1000000E+00  0.3885781E-15  0.2380952E-02
    1       -9.861187   1.000000
    2       -8.632381   1.000000
    3       -7.667807   1.000000
    4       -7.459199   1.000000
    5       -7.067834   1.000000
    6       -6.532048   1.000000
    7       -6.234008   1.000000
    8       -3.626919   1.000000
    9        2.751399   0.000000
   10        3.478721   0.000000
   11        4.490530   0.000000
   12        5.390039   0.000000
   13        5.929825   0.000000
   14        6.743185   0.000000
   15        7.313660   0.000000
   16        8.062151   0.000000
 
  0.4285714E+00  0.1000000E+00  0.4163336E-15  0.2380952E-02
    1       -8.969318   1.000000
    2       -8.081440   1.000000
    3       -7.547833   1.000000
    4       -7.249919   1.000000
    5       -7.057612   1.000000
    6       -6.784103   1.000000
    7       -6.462974   1.000000
    8       -4.923157   1.000000
    9        2.403152   0.000000
   10        3.080309   0.000000
   11        4.383020   0.000000
   12        5.304391   0.000000
   13        6.328113   0.000000
   14        6.749334   0.000000
   15        7.224531   0.000000
   16        8.277359   0.000000
 
  0.5000000E+00  0.1000000E+00  0.4440892E-15  0.2380952E-02
    1       -8.551867   1.000000
    2       -8.089194   1.000000
    3       -7.396494   1.000000
    4       -7.198906   1.000000
    5       -6.901249   1.000000
    6       -6.704639   1.000000
    7       -6.330175   1.000000
    8       -5.807216   1.000000
    9        2.362630   0.000000
   10        2.927200   0.000000
   11        4.278157   0.000000
   12        5.057376   0.000000
   13        6.502603   0.000000
   14        6.659290   0.000000
   15        7.251480   0.000000
   16        8.004079   0.000000
 
 -0.4285714E+00  0.1000000E+00  0.3747003E-15  0.2380952E-02
    1       -9.416334   1.000000
    2       -7.951183   1.000000
    3       -7.484025   1.000000
    4       -7.050164   1.000000
    5       -6.804069   1.000000
    6       -6.592238   1.000000
    7       -6.374936   1.000000
    8       -5.209723   1.000000
    9        2.693230   0.000000
   10        3.043524   0.000000
   11        4.140299   0.000000
   12        4.977656   0.000000
   13        5.848141   0.000000
   14        6.621756   0.000000
   15        7.139280   0.000000
   16        8.124738   0.000000
 
 -0.3571429E+00  0.1000000E+00  0.3608225E-15  0.2380952E-02
    1      -10.249083   1.000000
    2       -8.564875   1.000000
    3       -7.856945   1.000000
    4       -6.963192   1.000000
    5       -6.669723   1.000000
    6       -6.440961   1.000000
    7       -6.233364   1.000000
    8       -3.813624   1.000000
    9        3.230127   0.000000
   10        3.385730   0.000000
   11        4.214454   0.000000
   12        4.727443   0.000000
   13        5.231852   0.000000
   14        6.694336   0.000000
   15        6.929426   0.000000
   16        7.953788   0.000000
 
 -0.2857143E+00  0.1000000E+00  0.3712308E-15  0.2380952E-02
    1      -10.961160   1.000000
    2       -9.179753   1.000000
    3       -8.241296   1.000000
    4       -7.241953   1.000000
    5       -6.636011   1.000000
    6       -6.390592   1.000000
    7       -5.756244   1.000000
    8       -2.141533   0.999659
    9        3.407425   0.000000
   10        3.875582   0.000000
   11        4.186643   0.000000
   12        4.701397   0.000000
   13        5.314755   0.000000
   14        6.504776   0.000000
   15        6.918191   0.000000
   16        7.941217   0.000000
 
 -0.2142857E+00  0.1000000E+00  0.3686287E-15  0.2380952E-02
    1      -11.526128   1.000000
    2       -9.686761   1.000000
    3       -8.577192   1.000000
    4       -7.549886   1.000000
    5       -6.603582   1.000000
    6       -6.462073   1.000000
    7       -5.413281   1.000000
    8       -0.263424   0.000000
    9        2.980925   0.000000
   10        4.046302   0.000000
   11        4.453250   0.000000
   12        4.799580   0.000000
   13        5.897372   0.000000
   14        6.341732   0.000000
   15        7.501567   0.000000
   16        8.346280   0.000000
 
 -0.1428571E+00  0.1000000E+00  0.3833739E-15  0.2380952E-02
    1      -11.927173   1.000000
    2      -10.064211   1.000000
    3       -8.823154   1.000000
    4       -7.817281   1.000000
    5       -6.731177   1.000000
    6       -6.462374   1.000000
    7       -5.201742   1.000000
    8        1.794979   0.000000
    9        2.610982   0.000000
   10        3.867476   0.000000
   11        4.547345   0.000000
   12        4.918402   0.000000
   13        6.112782   0.000000
   14        7.038564   0.000000
   15        8.419209   0.000000
   16        8.687478   0.000000
 
 -0.7142857E-01  0.1000000E+00  0.3851086E-15  0.2380952E-02
    1      -12.150936   1.000000
    2      -10.294883   1.000000
    3       -8.955912   1.000000
    4       -8.008887   1.000000
    5       -6.941819   1.000000
    6       -6.385808   1.000000
    7       -5.083120   1.000000
    8        2.443770   0.000000
    9        3.637445   0.000000
   10        4.006200   0.000000
   11        4.486560   0.000000
   12        5.051977   0.000000
   13        6.243673   0.000000
   14        7.488268   0.000000
   15        8.776769   0.000000
   16        9.162683   0.000000
 
  0.3745919E-15  0.2000000E+00  0.3747003E-15  0.2380952E-02
    1      -12.042556   1.000000
    2      -10.396312   1.000000
    3       -8.896477   1.000000
    4       -8.262241   1.000000
    5       -7.677148   1.000000
    6       -6.151477   1.000000
    7       -5.004858   1.000000
    8        2.831614   0.000000
    9        3.600799   0.000000
   10        4.680603   0.000000
   11        5.228552   0.000000
   12        6.036609   0.000000
   13        6.493475   0.000000
   14        6.630509   0.000000
   15        7.799309   0.000000
   16        9.227297   0.000000
 
  0.7142857E-01  0.2000000E+00  0.3330669E-15  0.2380952E-02
    1      -11.884561   1.000000
    2      -10.316362   1.000000
    3       -8.872614   1.000000
    4       -8.234674   1.000000
    5       -7.785118   1.000000
    6       -6.148482   1.000000
    7       -5.024944   1.000000
    8        2.852641   0.000000
    9        3.793940   0.000000
   10        4.064104   0.000000
   11        5.019119   0.000000
   12        5.160291   0.000000
   13        6.372319   0.000000
   14        7.557352   0.000000
   15        8.654903   0.000000
   16        9.201465   0.000000
 
  0.1428571E+00  0.2000000E+00  0.4163336E-15  0.2380952E-02
    1      -11.549206   1.000000
    2      -10.088768   1.000000
    3       -8.764298   1.000000
    4       -8.159842   1.000000
    5       -7.713091   1.000000
    6       -6.152885   1.000000
    7       -5.158741   1.000000
    8        1.780736   0.000000
    9        2.943747   0.000000
   10        4.304352   0.000000
   11        5.103622   0.000000
   12        5.231584   0.000000
   13        6.442326   0.000000
   14        7.082021   0.000000
   15        7.920615   0.000000
   16        9.151932   0.000000
 
  0.2142857E+00  0.2000000E+00  0.4163336E-15  0.2380952E-02
    1      -11.042015   1.000000
    2       -9.721969   1.000000
    3       -8.564296   1.000000
    4       -8.070585   1.000000
    5       -7.475301   1.000000
    6       -6.178366   1.000000
    7       -5.456000   1.000000
    8       -0.215100   0.000000
    9        3.043272   0.000000
   10        4.367315   0.000000
   11        4.985415   0.000000
   12        5.491232   0.000000
   13        6.291304   0.000000
   14        6.571990   0.000000
   15        7.545879   0.000000
   16        8.832604   0.000000
 
  0.2857143E+00  0.2000000E+00  0.4718448E-15  0.2380952E-02
    1      -10.369728   1.000000
    2       -9.231902   1.000000
    3       -8.282143   1.000000
    4       -7.928855   1.000000
    5       -7.178467   1.000000
    6       -6.251408   1.000000
    7       -5.917151   1.000000
    8       -2.010259   0.872907
    9        3.000439   0.000000
   10        4.064693   0.000000
   11        4.541318   0.000000
   12        5.570885   0.000000
   13        6.252504   0.000000
   14        6.574337   0.000000
   15        7.454615   0.000000
   16        8.742203   0.000000
 
  0.3571429E+00  0.2000000E+00  0.4163336E-15  0.2380952E-02
    1       -9.547880   1.000000
    2       -8.640040   1.000000
    3       -7.948042   1.000000
    4       -7.740621   1.000000
    5       -6.947300   1.000000
    6       -6.617409   1.000000
    7       -6.265252   1.000000
    8       -3.566521   1.000000
    9        2.725791   0.000000
   10        3.627999   0.000000
   11        4.240135   0.000000
   12        5.466200   0.000000
   13        6.008678   0.000000
   14        7.000805   0.000000
   15        7.512042   0.000000
   16        8.503375   0.000000
 
  0.4285714E+00  0.2000000E+00  0.4163336E-15  0.2380952E-02
    1       -8.624010   1.000000
    2       -8.082656   1.000000
    3       -7.789557   1.000000
    4       -7.492332   1.000000
    5       -7.182912   1.000000
    6       -6.711103   1.000000
    7       -6.444807   1.000000
    8       -4.841800   1.000000
    9        2.497238   0.000000
   10        3.245245   0.000000
   11        4.137447   0.000000
   12        4.980293   0.000000
   13        6.242897   0.000000
   14        7.068240   0.000000
   15        7.513212   0.000000
   16        8.307565   0.000000
 
  0.5000000E+00  0.2000000E+00  0.4440892E-15  0.2380952E-02
    1       -8.640962   1.000000
    2       -7.777360   1.000000
    3       -7.410360   1.000000
    4       -7.307754   1.000000
    5       -7.118024   1.000000
    6       -6.660415   1.000000
    7       -6.338518   1.000000
    8       -5.740746   1.000000
    9        2.565885   0.000000
   10        3.041783   0.000000
   11        4.015398   0.000000
   12        4.701762   0.000000
   13        6.291680   0.000000
   14        6.720454   0.000000
   15        7.515034   0.000000
   16        7.914872   0.000000
 
 -0.4285714E+00  0.2000000E+00  0.4024558E-15  0.2380952E-02
    1       -9.480628   1.000000
    2       -7.853025   1.000000
    3       -7.623034   1.000000
    4       -6.919111   1.000000
    5       -6.777092   1.000000
    6       -6.624927   1.000000
    7       -6.262380   1.000000
    8       -5.300505   1.000000
    9        2.865812   0.000000
   10        3.176865   0.000000
   11        3.915423   0.000000
   12        4.771310   0.000000
   13        5.541754   0.000000
   14        6.426051   0.000000
   15        7.476681   0.000000
   16        8.000077   0.000000
 
 -0.3571429E+00  0.2000000E+00  0.3720982E-15  0.2380952E-02
    1      -10.275016   1.000000
    2       -8.551897   1.000000
    3       -7.910904   1.000000
    4       -6.890663   1.000000
    5       -6.641367   1.000000
    6       -6.448568   1.000000
    7       -6.197535   1.000000
    8       -3.850432   1.000000
    9        3.175157   0.000000
   10        3.673899   0.000000
   11        4.105269   0.000000
   12        4.587365   0.000000
   13        5.146360   0.000000
   14        6.425147   0.000000
   15        6.906762   0.000000
   16        7.962017   0.000000
 
 -0.2857143E+00  0.2000000E+00  0.3816392E-15  0.2380952E-02
    1      -10.946411   1.000000
    2       -9.191745   1.000000
    3       -8.226001   1.000000
    4       -7.283554   1.000000
    5       -6.652610   1.000000
    6       -6.380914   1.000000
    7       -5.750275   1.000000
    8       -2.154479   0.996380
    9        3.373464   0.000000
   10        3.959511   0.000000
   11        4.224704   0.000000
   12        4.752654   0.000000
   13        5.393697   0.000000
   14        6.359417   0.000000
   15        6.768791   0.000000
   16        8.040612   0.000000
 
 -0.2142857E+00  0.2000000E+00  0.3747003E-15  0.2380952E-02
    1      -11.472136   1.000000
    2       -9.708975   1.000000
    3       -8.501682   1.000000
    4       -7.658344   1.000000
    5       -6.873063   1.000000
    6       -6.268527   1.000000
    7       -5.421885   1.000000
    8       -0.263111   0.000000
    9        3.112306   0.000000
   10        3.974762   0.000000
   11        4.546626   0.000000
   12        4.977773   0.000000
   13        6.065829   0.000000
   14        6.310701   0.000000
   15        7.483420   0.000000
   16        7.933566   0.000000
 
 -0.1428571E+00  0.2000000E+00  0.3955170E-15  0.2380952E-02
    1      -11.834069   1.000000
    2      -10.089275   1.000000
    3       -8.713803   1.000000
    4       -7.972077   1.000000
    5       -7.164831   1.000000
    6       -6.197588   1.000000
    7       -5.202856   1.000000
    8        1.794664   0.000000
    9        2.917603   0.000000
   10        3.691334   0.000000
   11        4.689564   0.000000
   12        5.255791   0.000000
   13        6.191338   0.000000
   14        6.925429   0.000000
   15        7.889384   0.000000
   16        8.848736   0.000000
 
 -0.7142857E-01  0.2000000E+00  0.3747003E-15  0.2380952E-02
    1      -12.024181   1.000000
    2      -10.320365   1.000000
    3       -8.843417   1.000000
    4       -8.180521   1.000000
    5       -7.453111   1.000000
    6       -6.164000   1.000000
    7       -5.065092   1.000000
    8        2.849572   0.000000
    9        3.510619   0.000000
   10        3.963637   0.000000
   11        4.744752   0.000000
   12        5.351344   0.000000
   13        6.090842   0.000000
   14        7.482085   0.000000
   15        8.730662   0.000000
   16        9.078270   0.000000
 
  0.3760013E-15  0.3000000E+00  0.4440892E-15  0.2380952E-02
    1      -11.805613   1.000000
    2      -10.385389   1.000000
    3       -9.075125   1.000000
    4       -8.452730   1.000000
    5       -7.865121   1.000000
    6       -6.220607   1.000000
    7       -4.945040   1.000000
    8        2.710158   0.000000
    9        4.409285   0.000000
   10        4.878707   0.000000
   11        5.163997   0.000000
   12        6.332000   0.000000
   13        6.567450   0.000000
   14        6.859891   0.000000
   15        7.784478   0.000000
   16        9.294968   0.000000
 
  0.7142857E-01  0.3000000E+00  0.4440892E-15  0.2380952E-02
    1      -11.630234   1.000000
    2      -10.297938   1.000000
    3       -9.104562   1.000000
    4       -8.563274   1.000000
    5       -7.719706   1.000000
    6       -6.279163   1.000000
    7       -4.973568   1.000000
    8        2.695039   0.000000
    9        3.866787   0.000000
   10        4.780716   0.000000
   11        4.897938   0.000000
   12        5.650438   0.000000
   13        6.855503   0.000000
   14        7.581849   0.000000
   15        8.676497   0.000000
   16        9.181217   0.000000
 
  0.1428571E+00  0.3000000E+00  0.3885781E-15  0.2380952E-02
    1      -11.280138   1.000000
    2      -10.071213   1.000000
    3       -9.010528   1.000000
    4       -8.570883   1.000000
    5       -7.476275   1.000000
    6       -6.319819   1.000000
    7       -5.137539   1.000000
    8        1.765742   0.000000
    9        2.797636   0.000000
   10        4.660340   0.000000
   11        5.085130   0.000000
   12        5.845043   0.000000
   13        6.721235   0.000000
   14        7.420600   0.000000
   15        8.166367   0.000000
   16        9.611883   0.000000
 
  0.2142857E+00  0.3000000E+00  0.4718448E-15  0.2380952E-02
    1      -10.762949   1.000000
    2       -9.716836   1.000000
    3       -8.794044   1.000000
    4       -8.458874   1.000000
    5       -7.191506   1.000000
    6       -6.342041   1.000000
    7       -5.467072   1.000000
    8       -0.212862   0.000000
    9        2.961766   0.000000
   10        4.346376   0.000000
   11        5.035581   0.000000
   12        5.600160   0.000000
   13        6.663401   0.000000
   14        7.216031   0.000000
   15        8.010741   0.000000
   16        9.254777   0.000000
 
  0.2857143E+00  0.3000000E+00  0.4440892E-15  0.2380952E-02
    1      -10.082549   1.000000
    2       -9.267228   1.000000
    3       -8.469125   1.000000
    4       -8.240055   1.000000
    5       -6.934170   1.000000
    6       -6.373460   1.000000
    7       -5.949644   1.000000
    8       -1.994193   0.739845
    9        3.061388   0.000000
   10        3.894716   0.000000
   11        4.635935   0.000000
   12        5.286427   0.000000
   13        6.250875   0.000000
   14        7.427486   0.000000
   15        8.047295   0.000000
   16        8.968129   0.000000
 
  0.3571429E+00  0.3000000E+00  0.4718448E-15  0.2380952E-02
    1       -9.255891   1.000000
    2       -8.741498   1.000000
    3       -8.070880   1.000000
    4       -7.957533   1.000000
    5       -6.783936   1.000000
    6       -6.707097   1.000000
    7       -6.277037   1.000000
    8       -3.544698   1.000000
    9        2.888819   0.000000
   10        3.672025   0.000000
   11        4.024710   0.000000
   12        5.256999   0.000000
   13        5.737835   0.000000
   14        7.529881   0.000000
   15        7.944752   0.000000
   16        8.840777   0.000000
 
  0.4285714E+00  0.3000000E+00  0.4996004E-15  0.2380952E-02
    1       -8.341592   1.000000
    2       -8.175726   1.000000
    3       -7.955991   1.000000
    4       -7.571857   1.000000
    5       -7.202034   1.000000
    6       -6.703400   1.000000
    7       -6.409294   1.000000
    8       -4.830891   1.000000
    9        2.702923   0.000000
   10        3.274592   0.000000
   11        3.946593   0.000000
   12        4.717866   0.000000
   13        6.062349   0.000000
   14        7.128655   0.000000
   15        7.584898   0.000000
   16        8.542751   0.000000
 
  0.5000000E+00  0.3000000E+00  0.4996004E-15  0.2380952E-02
    1       -8.632928   1.000000
    2       -7.729868   1.000000
    3       -7.474143   1.000000
    4       -7.312593   1.000000
    5       -7.114962   1.000000
    6       -6.631506   1.000000
    7       -6.368598   1.000000
    8       -5.751331   1.000000
    9        2.730009   0.000000
   10        2.981336   0.000000
   11        4.039972   0.000000
   12        4.486594   0.000000
   13        5.992296   0.000000
   14        6.590058   0.000000
   15        7.698671   0.000000
   16        8.308841   0.000000
 
 -0.4285714E+00  0.3000000E+00  0.4024558E-15  0.2380952E-02
    1       -9.432149   1.000000
    2       -7.918696   1.000000
    3       -7.542748   1.000000
    4       -7.020576   1.000000
    5       -6.813221   1.000000
    6       -6.540447   1.000000
    7       -6.327753   1.000000
    8       -5.284489   1.000000
    9        2.767681   0.000000
   10        3.273006   0.000000
   11        4.108732   0.000000
   12        4.628946   0.000000
   13        5.381437   0.000000
   14        6.353382   0.000000
   15        7.577002   0.000000
   16        8.195550   0.000000
 
 -0.3571429E+00  0.3000000E+00  0.3885781E-15  0.2380952E-02
    1      -10.182097   1.000000
    2       -8.602478   1.000000
    3       -7.780926   1.000000
    4       -7.110544   1.000000
    5       -6.708437   1.000000
    6       -6.492724   1.000000
    7       -6.156960   1.000000
    8       -3.819171   1.000000
    9        3.075133   0.000000
   10        3.715923   0.000000
   11        4.367625   0.000000
   12        4.619064   0.000000
   13        5.169238   0.000000
   14        6.282240   0.000000
   15        7.025180   0.000000
   16        8.243533   0.000000
 
 -0.2857143E+00  0.3000000E+00  0.4163336E-15  0.2380952E-02
    1      -10.814798   1.000000
    2       -9.234976   1.000000
    3       -8.072474   1.000000
    4       -7.510136   1.000000
    5       -6.974502   1.000000
    6       -6.224000   1.000000
    7       -5.779937   1.000000
    8       -2.123223   1.009031
    9        3.470303   0.000000
   10        3.983594   0.000000
   11        4.314097   0.000000
   12        4.887540   0.000000
   13        5.560304   0.000000
   14        6.436552   0.000000
   15        6.948031   0.000000
   16        7.621879   0.000000
 
 -0.2142857E+00  0.3000000E+00  0.3885781E-15  0.2380952E-02
    1      -11.306623   1.000000
    2       -9.741519   1.000000
    3       -8.381997   1.000000
    4       -7.855856   1.000000
    5       -7.312140   1.000000
    6       -6.110216   1.000000
    7       -5.443726   1.000000
    8       -0.250707   0.000000
    9        3.432941   0.000000
   10        3.859777   0.000000
   11        4.783825   0.000000
   12        5.129940   0.000000
   13        6.277414   0.000000
   14        6.507023   0.000000
   15        6.990245   0.000000
   16        8.025609   0.000000
 
 -0.1428571E+00  0.3000000E+00  0.4024558E-15  0.2380952E-02
    1      -11.639119   1.000000
    2      -10.108608   1.000000
    3       -8.684059   1.000000
    4       -8.097572   1.000000
    5       -7.645261   1.000000
    6       -6.106688   1.000000
    7       -5.189447   1.000000
    8        1.778206   0.000000
    9        3.130587   0.000000
   10        3.895602   0.000000
   11        5.016868   0.000000
   12        5.282139   0.000000
   13        6.320835   0.000000
   14        6.988784   0.000000
   15        7.816997   0.000000
   16        9.217795   0.000000
 
 -0.7142857E-01  0.3000000E+00  0.3885781E-15  0.2380952E-02
    1      -11.807856   1.000000
    2      -10.323396   1.000000
    3       -8.927632   1.000000
    4       -8.279182   1.000000
    5       -7.854353   1.000000
    6       -6.154451   1.000000
    7       -5.020132   1.000000
    8        2.857291   0.000000
    9        3.913552   0.000000
   10        4.123833   0.000000
   11        5.074744   0.000000
   12        5.190162   0.000000
   13        6.543917   0.000000
   14        7.516924   0.000000
   15        8.844435   0.000000
   16        9.023048   0.000000
 
  0.3742666E-15  0.4000000E+00  0.3885781E-15  0.2380952E-02
    1      -11.553410   1.000000
    2      -10.354263   1.000000
    3       -9.297501   1.000000
    4       -8.896082   1.000000
    5       -7.541788   1.000000