Automatically generated mesh
     424
Reciprocal lattice
    0.00000000000000    0.00000000000000    0.00000000000000             1
    0.07142857142857    0.00000000000000    0.00000000000000             2
    0.14285714285714    0.00000000000000    0.00000000000000             2
    0.21428571428571    0.00000000000000    0.00000000000000             2
    0.28571428571429    0.00000000000000    0.00000000000000             2
    0.35714285714286    0.00000000000000    0.00000000000000             2
    0.42857142857143    0.00000000000000    0.00000000000000             2
    0.50000000000000    0.00000000000000    0.00000000000000             1
    0.00000000000000    0.10000000000000    0.00000000000000             2
    0.07142857142857    0.10000000000000    0.00000000000000             2
    0.14285714285714    0.10000000000000    0.00000000000000             2
    0.21428571428571    0.10000000000000    0.00000000000000             2
    0.28571428571429    0.10000000000000    0.00000000000000             2
    0.35714285714286    0.10000000000000    0.00000000000000             2
    0.42857142857143    0.10000000000000    0.00000000000000             2
    0.50000000000000    0.10000000000000    0.00000000000000             2
   -0.42857142857143    0.10000000000000    0.00000000000000             2
   -0.35714285714286    0.10000000000000    0.00000000000000             2
   -0.28571428571429    0.10000000000000    0.00000000000000             2
   -0.21428571428571    0.10000000000000    0.00000000000000             2
   -0.14285714285714    0.10000000000000    0.00000000000000             2
   -0.07142857142857    0.10000000000000    0.00000000000000             2
    0.00000000000000    0.20000000000000    0.00000000000000             2
    0.07142857142857    0.20000000000000    0.00000000000000             2
    0.14285714285714    0.20000000000000    0.00000000000000             2
    0.21428571428571    0.20000000000000    0.00000000000000             2
    0.28571428571429    0.20000000000000    0.00000000000000             2
    0.35714285714286    0.20000000000000    0.00000000000000             2
    0.42857142857143    0.20000000000000    0.00000000000000             2
    0.50000000000000    0.20000000000000    0.00000000000000             2
   -0.42857142857143    0.20000000000000    0.00000000000000             2
   -0.35714285714286    0.20000000000000    0.00000000000000             2
   -0.28571428571429    0.20000000000000    0.00000000000000             2
   -0.21428571428571    0.20000000000000    0.00000000000000             2
   -0.14285714285714    0.20000000000000    0.00000000000000             2
   -0.07142857142857    0.20000000000000    0.00000000000000             2
    0.00000000000000    0.30000000000000    0.00000000000000             2
    0.07142857142857    0.30000000000000    0.00000000000000             2
    0.14285714285714    0.30000000000000    0.00000000000000             2
    0.21428571428571    0.30000000000000    0.00000000000000             2
    0.28571428571429    0.30000000000000    0.00000000000000             2
    0.35714285714286    0.30000000000000    0.00000000000000             2
    0.42857142857143    0.30000000000000    0.00000000000000             2
    0.50000000000000    0.30000000000000    0.00000000000000             2
   -0.42857142857143    0.30000000000000    0.00000000000000             2
   -0.35714285714286    0.30000000000000    0.00000000000000             2
   -0.28571428571429    0.30000000000000    0.00000000000000             2
   -0.21428571428571    0.30000000000000    0.00000000000000             2
   -0.14285714285714    0.30000000000000    0.00000000000000             2
   -0.07142857142857    0.30000000000000    0.00000000000000             2
    0.00000000000000    0.40000000000000    0.00000000000000             2
    0.07142857142857    0.40000000000000    0.00000000000000             2
    0.14285714285714    0.40000000000000    0.00000000000000             2
    0.21428571428571    0.40000000000000    0.00000000000000             2
    0.28571428571429    0.40000000000000    0.00000000000000             2
    0.35714285714286    0.40000000000000    0.00000000000000             2
    0.42857142857143    0.40000000000000    0.00000000000000             2
    0.50000000000000    0.40000000000000    0.00000000000000             2
   -0.42857142857143    0.40000000000000    0.00000000000000             2
   -0.35714285714286    0.40000000000000    0.00000000000000             2
   -0.28571428571429    0.40000000000000    0.00000000000000             2
   -0.21428571428571    0.40000000000000    0.00000000000000             2
   -0.14285714285714    0.40000000000000    0.00000000000000             2
   -0.07142857142857    0.40000000000000    0.00000000000000             2
    0.00000000000000    0.50000000000000    0.00000000000000             1
    0.07142857142857    0.50000000000000    0.00000000000000             2
    0.14285714285714    0.50000000000000    0.00000000000000             2
    0.21428571428571    0.50000000000000    0.00000000000000             2
    0.28571428571429    0.50000000000000    0.00000000000000             2
    0.35714285714286    0.50000000000000    0.00000000000000             2
    0.42857142857143    0.50000000000000    0.00000000000000             2
    0.50000000000000    0.50000000000000    0.00000000000000             1
    0.00000000000000    0.00000000000000    0.16666666666667             2
    0.07142857142857    0.00000000000000    0.16666666666667             2
    0.14285714285714    0.00000000000000    0.16666666666667             2
    0.21428571428571    0.00000000000000    0.16666666666667             2
    0.28571428571429    0.00000000000000    0.16666666666667             2
    0.35714285714286    0.00000000000000    0.16666666666667             2
    0.42857142857143    0.00000000000000    0.16666666666667             2
    0.50000000000000    0.00000000000000    0.16666666666667             2
   -0.42857142857143    0.00000000000000    0.16666666666667             2
   -0.35714285714286    0.00000000000000    0.16666666666667             2
   -0.28571428571429    0.00000000000000    0.16666666666667             2
   -0.21428571428571    0.00000000000000    0.16666666666667             2
   -0.14285714285714    0.00000000000000    0.16666666666667             2
   -0.07142857142857    0.00000000000000    0.16666666666667             2
    0.00000000000000    0.10000000000000    0.16666666666667             2
    0.07142857142857    0.10000000000000    0.16666666666667             2
    0.14285714285714    0.10000000000000    0.16666666666667             2
    0.21428571428571    0.10000000000000    0.16666666666667             2
    0.28571428571429    0.10000000000000    0.16666666666667             2
    0.35714285714286    0.10000000000000    0.16666666666667             2
    0.42857142857143    0.10000000000000    0.16666666666667             2
    0.50000000000000    0.10000000000000    0.16666666666667             2
   -0.42857142857143    0.10000000000000    0.16666666666667             2
   -0.35714285714286    0.10000000000000    0.16666666666667             2
   -0.28571428571429    0.10000000000000    0.16666666666667             2
   -0.21428571428571    0.10000000000000    0.16666666666667             2
   -0.14285714285714    0.10000000000000    0.16666666666667             2
   -0.07142857142857    0.10000000000000    0.16666666666667             2
    0.00000000000000    0.20000000000000    0.16666666666667             2
    0.07142857142857    0.20000000000000    0.16666666666667             2
    0.14285714285714    0.20000000000000    0.16666666666667             2
    0.21428571428571    0.20000000000000    0.16666666666667             2
    0.28571428571429    0.20000000000000    0.16666666666667             2
    0.35714285714286    0.20000000000000    0.16666666666667             2
    0.42857142857143    0.20000000000000    0.16666666666667             2
    0.50000000000000    0.20000000000000    0.16666666666667             2
   -0.42857142857143    0.20000000000000    0.16666666666667             2
   -0.35714285714286    0.20000000000000    0.16666666666667             2
   -0.28571428571429    0.20000000000000    0.16666666666667             2
   -0.21428571428571    0.20000000000000    0.16666666666667             2
   -0.14285714285714    0.20000000000000    0.16666666666667             2
   -0.07142857142857    0.20000000000000    0.16666666666667             2
    0.00000000000000    0.30000000000000    0.16666666666667             2
    0.07142857142857    0.30000000000000    0.16666666666667             2
    0.14285714285714    0.30000000000000    0.16666666666667             2
    0.21428571428571    0.30000000000000    0.16666666666667             2
    0.28571428571429    0.30000000000000    0.16666666666667             2
    0.35714285714286    0.30000000000000    0.16666666666667             2
    0.42857142857143    0.30000000000000    0.16666666666667             2
    0.50000000000000    0.30000000000000    0.16666666666667             2
   -0.42857142857143    0.30000000000000    0.16666666666667             2
   -0.35714285714286    0.30000000000000    0.16666666666667             2
   -0.28571428571429    0.30000000000000    0.16666666666667             2
   -0.21428571428571    0.30000000000000    0.16666666666667             2
   -0.14285714285714    0.30000000000000    0.16666666666667             2
   -0.07142857142857    0.30000000000000    0.16666666666667             2
    0.00000000000000    0.40000000000000    0.16666666666667             2
    0.07142857142857    0.40000000000000    0.16666666666667             2
    0.14285714285714    0.40000000000000    0.16666666666667             2
    0.21428571428571    0.40000000000000    0.16666666666667             2
    0.28571428571429    0.40000000000000    0.16666666666667             2
    0.35714285714286    0.40000000000000    0.16666666666667             2
    0.42857142857143    0.40000000000000    0.16666666666667             2
    0.50000000000000    0.40000000000000    0.16666666666667             2
   -0.42857142857143    0.40000000000000    0.16666666666667             2
   -0.35714285714286    0.40000000000000    0.16666666666667             2
   -0.28571428571429    0.40000000000000    0.16666666666667             2
   -0.21428571428571    0.40000000000000    0.16666666666667             2
   -0.14285714285714    0.40000000000000    0.16666666666667             2
   -0.07142857142857    0.40000000000000    0.16666666666667             2
    0.00000000000000    0.50000000000000    0.16666666666667             2
    0.07142857142857    0.50000000000000    0.16666666666667             2
    0.14285714285714    0.50000000000000    0.16666666666667             2
    0.21428571428571    0.50000000000000    0.16666666666667             2
    0.28571428571429    0.50000000000000    0.16666666666667             2
    0.35714285714286    0.50000000000000    0.16666666666667             2
    0.42857142857143    0.50000000000000    0.16666666666667             2
    0.50000000000000    0.50000000000000    0.16666666666667             2
   -0.42857142857143    0.50000000000000    0.16666666666667             2
   -0.35714285714286    0.50000000000000    0.16666666666667             2
   -0.28571428571429    0.50000000000000    0.16666666666667             2
   -0.21428571428571    0.50000000000000    0.16666666666667             2
   -0.14285714285714    0.50000000000000    0.16666666666667             2
   -0.07142857142857    0.50000000000000    0.16666666666667             2
    0.00000000000000   -0.40000000000000    0.16666666666667             2
    0.07142857142857   -0.40000000000000    0.16666666666667             2
    0.14285714285714   -0.40000000000000    0.16666666666667             2
    0.21428571428571   -0.40000000000000    0.16666666666667             2
    0.28571428571429   -0.40000000000000    0.16666666666667             2
    0.35714285714286   -0.40000000000000    0.16666666666667             2
    0.42857142857143   -0.40000000000000    0.16666666666667             2
    0.50000000000000   -0.40000000000000    0.16666666666667             2
   -0.42857142857143   -0.40000000000000    0.16666666666667             2
   -0.35714285714286   -0.40000000000000    0.16666666666667             2
   -0.28571428571429   -0.40000000000000    0.16666666666667             2
   -0.21428571428571   -0.40000000000000    0.16666666666667             2
   -0.14285714285714   -0.40000000000000    0.16666666666667             2
   -0.07142857142857   -0.40000000000000    0.16666666666667             2
    0.00000000000000   -0.30000000000000    0.16666666666667             2
    0.07142857142857   -0.30000000000000    0.16666666666667             2
    0.14285714285714   -0.30000000000000    0.16666666666667             2
    0.21428571428571   -0.30000000000000    0.16666666666667             2
    0.28571428571429   -0.30000000000000    0.16666666666667             2
    0.35714285714286   -0.30000000000000    0.16666666666667             2
    0.42857142857143   -0.30000000000000    0.16666666666667             2
    0.50000000000000   -0.30000000000000    0.16666666666667             2
   -0.42857142857143   -0.30000000000000    0.16666666666667             2
   -0.35714285714286   -0.30000000000000    0.16666666666667             2
   -0.28571428571429   -0.30000000000000    0.16666666666667             2
   -0.21428571428571   -0.30000000000000    0.16666666666667             2
   -0.14285714285714   -0.30000000000000    0.16666666666667             2
   -0.07142857142857   -0.30000000000000    0.16666666666667             2
    0.00000000000000   -0.20000000000000    0.16666666666667             2
    0.07142857142857   -0.20000000000000    0.16666666666667             2
    0.14285714285714   -0.20000000000000    0.16666666666667             2
    0.21428571428571   -0.20000000000000    0.16666666666667             2
    0.28571428571429   -0.20000000000000    0.16666666666667             2
    0.35714285714286   -0.20000000000000    0.16666666666667             2
    0.42857142857143   -0.20000000000000    0.16666666666667             2
    0.50000000000000   -0.20000000000000    0.16666666666667             2
   -0.42857142857143   -0.20000000000000    0.16666666666667             2
   -0.35714285714286   -0.20000000000000    0.16666666666667             2
   -0.28571428571429   -0.20000000000000    0.16666666666667             2
   -0.21428571428571   -0.20000000000000    0.16666666666667             2
   -0.14285714285714   -0.20000000000000    0.16666666666667             2
   -0.07142857142857   -0.20000000000000    0.16666666666667             2
    0.00000000000000   -0.10000000000000    0.16666666666667             2
    0.07142857142857   -0.10000000000000    0.16666666666667             2
    0.14285714285714   -0.10000000000000    0.16666666666667             2
    0.21428571428571   -0.10000000000000    0.16666666666667             2
    0.28571428571429   -0.10000000000000    0.16666666666667             2
    0.35714285714286   -0.10000000000000    0.16666666666667             2
    0.42857142857143   -0.10000000000000    0.16666666666667             2
    0.50000000000000   -0.10000000000000    0.16666666666667             2
   -0.42857142857143   -0.10000000000000    0.16666666666667             2
   -0.35714285714286   -0.10000000000000    0.16666666666667             2
   -0.28571428571429   -0.10000000000000    0.16666666666667             2
   -0.21428571428571   -0.10000000000000    0.16666666666667             2
   -0.14285714285714   -0.10000000000000    0.16666666666667             2
   -0.07142857142857   -0.10000000000000    0.16666666666667             2
    0.00000000000000    0.00000000000000    0.33333333333333             2
    0.07142857142857    0.00000000000000    0.33333333333333             2
    0.14285714285714    0.00000000000000    0.33333333333333             2
    0.21428571428571    0.00000000000000    0.33333333333333             2
    0.28571428571429    0.00000000000000    0.33333333333333             2
    0.35714285714286    0.00000000000000    0.33333333333333             2
    0.42857142857143    0.00000000000000    0.33333333333333             2
    0.50000000000000    0.00000000000000    0.33333333333333             2
   -0.42857142857143    0.00000000000000    0.33333333333333             2
   -0.35714285714286    0.00000000000000    0.33333333333333             2
   -0.28571428571429    0.00000000000000    0.33333333333333             2
   -0.21428571428571    0.00000000000000    0.33333333333333             2
   -0.14285714285714    0.00000000000000    0.33333333333333             2
   -0.07142857142857    0.00000000000000    0.33333333333333             2
    0.00000000000000    0.10000000000000    0.33333333333333             2
    0.07142857142857    0.10000000000000    0.33333333333333             2
    0.14285714285714    0.10000000000000    0.33333333333333             2
    0.21428571428571    0.10000000000000    0.33333333333333             2
    0.28571428571429    0.10000000000000    0.33333333333333             2
    0.35714285714286    0.10000000000000    0.33333333333333             2
    0.42857142857143    0.10000000000000    0.33333333333333             2
    0.50000000000000    0.10000000000000    0.33333333333333             2
   -0.42857142857143    0.10000000000000    0.33333333333333             2
   -0.35714285714286    0.10000000000000    0.33333333333333             2
   -0.28571428571429    0.10000000000000    0.33333333333333             2
   -0.21428571428571    0.10000000000000    0.33333333333333             2
   -0.14285714285714    0.10000000000000    0.33333333333333             2
   -0.07142857142857    0.10000000000000    0.33333333333333             2
    0.00000000000000    0.20000000000000    0.33333333333333             2
    0.07142857142857    0.20000000000000    0.33333333333333             2
    0.14285714285714    0.20000000000000    0.33333333333333             2
    0.21428571428571    0.20000000000000    0.33333333333333             2
    0.28571428571429    0.20000000000000    0.33333333333333             2
    0.35714285714286    0.20000000000000    0.33333333333333             2
    0.42857142857143    0.20000000000000    0.33333333333333             2
    0.50000000000000    0.20000000000000    0.33333333333333             2
   -0.42857142857143    0.20000000000000    0.33333333333333             2
   -0.35714285714286    0.20000000000000    0.33333333333333             2
   -0.28571428571429    0.20000000000000    0.33333333333333             2
   -0.21428571428571    0.20000000000000    0.33333333333333             2
   -0.14285714285714    0.20000000000000    0.33333333333333             2
   -0.07142857142857    0.20000000000000    0.33333333333333             2
    0.00000000000000    0.30000000000000    0.33333333333333             2
    0.07142857142857    0.30000000000000    0.33333333333333             2
    0.14285714285714    0.30000000000000    0.33333333333333             2
    0.21428571428571    0.30000000000000    0.33333333333333             2
    0.28571428571429    0.30000000000000    0.33333333333333             2
    0.35714285714286    0.30000000000000    0.33333333333333             2
    0.42857142857143    0.30000000000000    0.33333333333333             2
    0.50000000000000    0.30000000000000    0.33333333333333             2
   -0.42857142857143    0.30000000000000    0.33333333333333             2
   -0.35714285714286    0.30000000000000    0.33333333333333             2
   -0.28571428571429    0.30000000000000    0.33333333333333             2
   -0.21428571428571    0.30000000000000    0.33333333333333             2
   -0.14285714285714    0.30000000000000    0.33333333333333             2
   -0.07142857142857    0.30000000000000    0.33333333333333             2
    0.00000000000000    0.40000000000000    0.33333333333333             2
    0.07142857142857    0.40000000000000    0.33333333333333             2
    0.14285714285714    0.40000000000000    0.33333333333333             2
    0.21428571428571    0.40000000000000    0.33333333333333             2
    0.28571428571429    0.40000000000000    0.33333333333333             2
    0.35714285714286    0.40000000000000    0.33333333333333             2
    0.42857142857143    0.40000000000000    0.33333333333333             2
    0.50000000000000    0.40000000000000    0.33333333333333             2
   -0.42857142857143    0.40000000000000    0.33333333333333             2
   -0.35714285714286    0.40000000000000    0.33333333333333             2
   -0.28571428571429    0.40000000000000    0.33333333333333             2
   -0.21428571428571    0.40000000000000    0.33333333333333             2
   -0.14285714285714    0.40000000000000    0.33333333333333             2
   -0.07142857142857    0.40000000000000    0.33333333333333             2
    0.00000000000000    0.50000000000000    0.33333333333333             2
    0.07142857142857    0.50000000000000    0.33333333333333             2
    0.14285714285714    0.50000000000000    0.33333333333333             2
    0.21428571428571    0.50000000000000    0.33333333333333             2
    0.28571428571429    0.50000000000000    0.33333333333333             2
    0.35714285714286    0.50000000000000    0.33333333333333             2
    0.42857142857143    0.50000000000000    0.33333333333333             2
    0.50000000000000    0.50000000000000    0.33333333333333             2
   -0.42857142857143    0.50000000000000    0.33333333333333             2
   -0.35714285714286    0.50000000000000    0.33333333333333             2
   -0.28571428571429    0.50000000000000    0.33333333333333             2
   -0.21428571428571    0.50000000000000    0.33333333333333             2
   -0.14285714285714    0.50000000000000    0.33333333333333             2
   -0.07142857142857    0.50000000000000    0.33333333333333             2
    0.00000000000000   -0.40000000000000    0.33333333333333             2
    0.07142857142857   -0.40000000000000    0.33333333333333             2
    0.14285714285714   -0.40000000000000    0.33333333333333             2
    0.21428571428571   -0.40000000000000    0.33333333333333             2
    0.28571428571429   -0.40000000000000    0.33333333333333             2
    0.35714285714286   -0.40000000000000    0.33333333333333             2
    0.42857142857143   -0.40000000000000    0.33333333333333             2
    0.50000000000000   -0.40000000000000    0.33333333333333             2
   -0.42857142857143   -0.40000000000000    0.33333333333333             2
   -0.35714285714286   -0.40000000000000    0.33333333333333             2
   -0.28571428571429   -0.40000000000000    0.33333333333333             2
   -0.21428571428571   -0.40000000000000    0.33333333333333             2
   -0.14285714285714   -0.40000000000000    0.33333333333333             2
   -0.07142857142857   -0.40000000000000    0.33333333333333             2
    0.00000000000000   -0.30000000000000    0.33333333333333             2
    0.07142857142857   -0.30000000000000    0.33333333333333             2
    0.14285714285714   -0.30000000000000    0.33333333333333             2
    0.21428571428571   -0.30000000000000    0.33333333333333             2
    0.28571428571429   -0.30000000000000    0.33333333333333             2
    0.35714285714286   -0.30000000000000    0.33333333333333             2
    0.42857142857143   -0.30000000000000    0.33333333333333             2
    0.50000000000000   -0.30000000000000    0.33333333333333             2
   -0.42857142857143   -0.30000000000000    0.33333333333333             2
   -0.35714285714286   -0.30000000000000    0.33333333333333             2
   -0.28571428571429   -0.30000000000000    0.33333333333333             2
   -0.21428571428571   -0.30000000000000    0.33333333333333             2
   -0.14285714285714   -0.30000000000000    0.33333333333333             2
   -0.07142857142857   -0.30000000000000    0.33333333333333             2
    0.00000000000000   -0.20000000000000    0.33333333333333             2
    0.07142857142857   -0.20000000000000    0.33333333333333             2
    0.14285714285714   -0.20000000000000    0.33333333333333             2
    0.21428571428571   -0.20000000000000    0.33333333333333             2
    0.28571428571429   -0.20000000000000    0.33333333333333             2
    0.35714285714286   -0.20000000000000    0.33333333333333             2
    0.42857142857143   -0.20000000000000    0.33333333333333             2
    0.50000000000000   -0.20000000000000    0.33333333333333             2
   -0.42857142857143   -0.20000000000000    0.33333333333333             2
   -0.35714285714286   -0.20000000000000    0.33333333333333             2
   -0.28571428571429   -0.20000000000000    0.33333333333333             2
   -0.21428571428571   -0.20000000000000    0.33333333333333             2
   -0.14285714285714   -0.20000000000000    0.33333333333333             2
   -0.07142857142857   -0.20000000000000    0.33333333333333             2
    0.00000000000000   -0.10000000000000    0.33333333333333             2
    0.07142857142857   -0.10000000000000    0.33333333333333             2
    0.14285714285714   -0.10000000000000    0.33333333333333             2
    0.21428571428571   -0.10000000000000    0.33333333333333             2
    0.28571428571429   -0.10000000000000    0.33333333333333             2
    0.35714285714286   -0.10000000000000    0.33333333333333             2
    0.42857142857143   -0.10000000000000    0.33333333333333             2
    0.50000000000000   -0.10000000000000    0.33333333333333             2
   -0.42857142857143   -0.10000000000000    0.33333333333333             2
   -0.35714285714286   -0.10000000000000    0.33333333333333             2
   -0.28571428571429   -0.10000000000000    0.33333333333333             2
   -0.21428571428571   -0.10000000000000    0.33333333333333             2
   -0.14285714285714   -0.10000000000000    0.33333333333333             2
   -0.07142857142857   -0.10000000000000    0.33333333333333             2
    0.00000000000000    0.00000000000000    0.50000000000000             1
    0.07142857142857    0.00000000000000    0.50000000000000             2
    0.14285714285714    0.00000000000000    0.50000000000000             2
    0.21428571428571    0.00000000000000    0.50000000000000             2
    0.28571428571429    0.00000000000000    0.50000000000000             2
    0.35714285714286    0.00000000000000    0.50000000000000             2
    0.42857142857143    0.00000000000000    0.50000000000000             2
    0.50000000000000    0.00000000000000    0.50000000000000             1
    0.00000000000000    0.10000000000000    0.50000000000000             2
    0.07142857142857    0.10000000000000    0.50000000000000             2
    0.14285714285714    0.10000000000000    0.50000000000000             2
    0.21428571428571    0.10000000000000    0.50000000000000             2
    0.28571428571429    0.10000000000000    0.50000000000000             2
    0.35714285714286    0.10000000000000    0.50000000000000             2
    0.42857142857143    0.10000000000000    0.50000000000000             2
    0.50000000000000    0.10000000000000    0.50000000000000             2
   -0.42857142857143    0.10000000000000    0.50000000000000             2
   -0.35714285714286    0.10000000000000    0.50000000000000             2
   -0.28571428571429    0.10000000000000    0.50000000000000             2
   -0.21428571428571    0.10000000000000    0.50000000000000             2
   -0.14285714285714    0.10000000000000    0.50000000000000             2
   -0.07142857142857    0.10000000000000    0.50000000000000             2
    0.00000000000000    0.20000000000000    0.50000000000000             2
    0.07142857142857    0.20000000000000    0.50000000000000             2
    0.14285714285714    0.20000000000000    0.50000000000000             2
    0.21428571428571    0.20000000000000    0.50000000000000             2
    0.28571428571429    0.20000000000000    0.50000000000000             2
    0.35714285714286    0.20000000000000    0.50000000000000             2
    0.42857142857143    0.20000000000000    0.50000000000000             2
    0.50000000000000    0.20000000000000    0.50000000000000             2
   -0.42857142857143    0.20000000000000    0.50000000000000             2
   -0.35714285714286    0.20000000000000    0.50000000000000             2
   -0.28571428571429    0.20000000000000    0.50000000000000             2
   -0.21428571428571    0.20000000000000    0.50000000000000             2
   -0.14285714285714    0.20000000000000    0.50000000000000             2
   -0.07142857142857    0.20000000000000    0.50000000000000             2
    0.00000000000000    0.30000000000000    0.50000000000000             2
    0.07142857142857    0.30000000000000    0.50000000000000             2
    0.14285714285714    0.30000000000000    0.50000000000000             2
    0.21428571428571    0.30000000000000    0.50000000000000             2
    0.28571428571429    0.30000000000000    0.50000000000000             2
    0.35714285714286    0.30000000000000    0.50000000000000             2
    0.42857142857143    0.30000000000000    0.50000000000000             2
    0.50000000000000    0.30000000000000    0.50000000000000             2
   -0.42857142857143    0.30000000000000    0.50000000000000             2
   -0.35714285714286    0.30000000000000    0.50000000000000             2
   -0.28571428571429    0.30000000000000    0.50000000000000             2