       N       E                     dE             d eps       ncg     rms          rms(c)
DAV:   1     0.176384123366E+03    0.17638E+03   -0.17781E+04  6144   0.745E+02
DAV:   2    -0.610240150482E+02   -0.23741E+03   -0.22414E+03  6448   0.209E+02
DAV:   3    -0.752558910298E+02   -0.14232E+02   -0.14096E+02 10528   0.498E+01
DAV:   4    -0.754758769314E+02   -0.21999E+00   -0.21964E+00  7440   0.434E+00
DAV:   5    -0.754810011646E+02   -0.51242E-02   -0.51236E-02  9488   0.613E-01    0.378E+01
RMM:   6    -0.791349067273E+02   -0.36539E+01   -0.53363E+00  6401   0.709E+00    0.202E+01
RMM:   7    -0.784122472619E+02    0.72266E+00   -0.22668E+00  6530   0.695E+00    0.827E+00
RMM:   8    -0.786263676861E+02   -0.21412E+00   -0.44759E-01  6256   0.392E+00    0.493E+00
RMM:   9    -0.786582668201E+02   -0.31899E-01   -0.74048E-02  6174   0.171E+00    0.223E+00
RMM:  10    -0.786737083058E+02   -0.15441E-01   -0.29385E-02  5983   0.986E-01    0.140E+00
RMM:  11    -0.786790623642E+02   -0.53541E-02   -0.91741E-03  5802   0.577E-01    0.611E-01
RMM:  12    -0.786805353457E+02   -0.14730E-02   -0.22860E-03  5337   0.299E-01    0.167E-01
RMM:  13    -0.786809465605E+02   -0.41121E-03   -0.57844E-04  4572   0.166E-01
   1 F= -.78680947E+02 E0= -.78680947E+02  d E =-.786809E+02  mag=     0.9964
       N       E                     dE             d eps       ncg     rms          rms(c)
DAV:   1    -0.790445930744E+02   -0.36406E+00   -0.49505E+00  8832   0.105E+01    0.535E+00
RMM:   2    -0.788700643206E+02    0.17453E+00   -0.45413E-01  6508   0.275E+00    0.139E+00
RMM:   3    -0.788417284664E+02    0.28336E-01   -0.49417E-02  6406   0.152E+00    0.918E-01
RMM:   4    -0.788358696694E+02    0.58588E-02   -0.13826E-02  6232   0.582E-01    0.891E-01
RMM:   5    -0.788353745463E+02    0.49512E-03   -0.35005E-03  5412   0.446E-01
   2 F= -.78835375E+02 E0= -.78835375E+02  d E =-.154428E+00  mag=     0.9999
       N       E                     dE             d eps       ncg     rms          rms(c)
DAV:   1    -0.790500995143E+02   -0.21423E+00   -0.47844E+00  7104   0.103E+01    0.526E+00
RMM:   2    -0.788776549768E+02    0.17244E+00   -0.42172E-01  6464   0.271E+00    0.141E+00
RMM:   3    -0.788484517957E+02    0.29203E-01   -0.46608E-02  6354   0.151E+00    0.922E-01
RMM:   4    -0.788428049377E+02    0.56469E-02   -0.14954E-02  6240   0.595E-01    0.919E-01
RMM:   5    -0.788426743732E+02    0.13056E-03   -0.38421E-03  5479   0.473E-01
   3 F= -.78842674E+02 E0= -.78842674E+02  d E =-.161728E+00  mag=     1.0000
       N       E                     dE             d eps       ncg     rms          rms(c)
DAV:   1    -0.789842458171E+02   -0.14144E+00   -0.18710E+00  6656   0.539E+00    0.106E+00
RMM:   2    -0.789826505202E+02    0.15953E-02   -0.11247E-01  6354   0.128E+00    0.653E-01
RMM:   3    -0.789797333671E+02    0.29172E-02   -0.10534E-02  6036   0.960E-01    0.406E-01
RMM:   4    -0.789794595516E+02    0.27382E-03   -0.19143E-03  4946   0.194E-01
   4 F= -.78979460E+02 E0= -.78979460E+02  d E =-.136785E+00  mag=     1.0000
       N       E                     dE             d eps       ncg     rms          rms(c)
DAV:   1    -0.789810530736E+02   -0.13197E-02   -0.45296E-02  8176   0.876E-01    0.249E-01
RMM:   2    -0.789808135266E+02    0.23955E-03   -0.21771E-03  3794   0.185E-01
   5 F= -.78980814E+02 E0= -.78980814E+02  d E =-.138139E+00  mag=     1.0000
       N       E                     dE             d eps       ncg     rms          rms(c)
DAV:   1    -0.790071650096E+02   -0.26112E-01   -0.16992E-01  7680   0.183E+00    0.547E-01
RMM:   2    -0.790028379760E+02    0.43270E-02   -0.12511E-02  6400   0.451E-01    0.260E-01
RMM:   3    -0.790022479424E+02    0.59003E-03   -0.88448E-04  4347   0.235E-01
   6 F= -.79002248E+02 E0= -.79002248E+02  d E =-.214344E-01  mag=     1.0000
       N       E                     dE             d eps       ncg     rms          rms(c)
DAV:   1    -0.790945222708E+02   -0.91684E-01   -0.15168E+00  7024   0.551E+00    0.167E+00
RMM:   2    -0.790555856571E+02    0.38937E-01   -0.11426E-01  6490   0.137E+00    0.802E-01
RMM:   3    -0.790500682885E+02    0.55174E-02   -0.95019E-03  6187   0.667E-01    0.530E-01
RMM:   4    -0.790491836981E+02    0.88459E-03   -0.45882E-03  5327   0.307E-01
   7 F= -.79049184E+02 E0= -.79049184E+02  d E =-.683702E-01  mag=     1.0000
       N       E                     dE             d eps       ncg     rms          rms(c)
DAV:   1    -0.792350749725E+02   -0.18501E+00   -0.60794E+00  7360   0.110E+01    0.327E+00
RMM:   2    -0.790827405767E+02    0.15233E+00   -0.45201E-01  6467   0.272E+00    0.158E+00
RMM:   3    -0.790615139565E+02    0.21227E-01   -0.41251E-02  6380   0.144E+00    0.112E+00
RMM:   4    -0.790581408452E+02    0.33731E-02   -0.17354E-02  6468   0.544E-01    0.105E+00
RMM:   5    -0.790580007505E+02    0.14009E-03   -0.52412E-03  5668   0.399E-01
   8 F= -.79058001E+02 E0= -.79058001E+02  d E =-.771872E-01  mag=     1.0000
       N       E                     dE             d eps       ncg     rms          rms(c)
DAV:   1    -0.791165933729E+02   -0.58453E-01   -0.21191E-01  8144   0.220E+00    0.386E-01
RMM:   2    -0.791169979070E+02   -0.40453E-03   -0.14880E-02  6003   0.470E-01    0.292E-01
RMM:   3    -0.791167631146E+02    0.23479E-03   -0.10790E-03  3407   0.329E-01
   9 F= -.79116763E+02 E0= -.79116763E+02  d E =-.587624E-01  mag=     1.0000
       N       E                     dE             d eps       ncg     rms          rms(c)
DAV:   1    -0.791581230208E+02   -0.41125E-01   -0.54687E-01  7040   0.361E+00    0.591E-01
RMM:   2    -0.791579958596E+02    0.12716E-03   -0.38864E-02  6320   0.750E-01    0.344E-01
RMM:   3    -0.791571316204E+02    0.86424E-03   -0.26100E-03  5226   0.499E-01
  10 F= -.79157132E+02 E0= -.79157132E+02  d E =-.991309E-01  mag=     1.0000
