Automatically generated mesh
      64
Reciprocal lattice
    0.06250000000000    0.12500000000000    0.12500000000000             2
    0.18750000000000    0.12500000000000    0.12500000000000             2
    0.31250000000000    0.12500000000000    0.12500000000000             2
    0.43750000000000    0.12500000000000    0.12500000000000             2
   -0.43750000000000    0.12500000000000    0.12500000000000             2
   -0.31250000000000    0.12500000000000    0.12500000000000             2
   -0.18750000000000    0.12500000000000    0.12500000000000             2
   -0.06250000000000    0.12500000000000    0.12500000000000             2
    0.06250000000000    0.37500000000000    0.12500000000000             2
    0.18750000000000    0.37500000000000    0.12500000000000             2
    0.31250000000000    0.37500000000000    0.12500000000000             2
    0.43750000000000    0.37500000000000    0.12500000000000             2
   -0.43750000000000    0.37500000000000    0.12500000000000             2
   -0.31250000000000    0.37500000000000    0.12500000000000             2
   -0.18750000000000    0.37500000000000    0.12500000000000             2
   -0.06250000000000    0.37500000000000    0.12500000000000             2
    0.06250000000000   -0.37500000000000    0.12500000000000             2
    0.18750000000000   -0.37500000000000    0.12500000000000             2
    0.31250000000000   -0.37500000000000    0.12500000000000             2
    0.43750000000000   -0.37500000000000    0.12500000000000             2
   -0.43750000000000   -0.37500000000000    0.12500000000000             2
   -0.31250000000000   -0.37500000000000    0.12500000000000             2
   -0.18750000000000   -0.37500000000000    0.12500000000000             2
   -0.06250000000000   -0.37500000000000    0.12500000000000             2
    0.06250000000000   -0.12500000000000    0.12500000000000             2
    0.18750000000000   -0.12500000000000    0.12500000000000             2
    0.31250000000000   -0.12500000000000    0.12500000000000             2
    0.43750000000000   -0.12500000000000    0.12500000000000             2
   -0.43750000000000   -0.12500000000000    0.12500000000000             2
   -0.31250000000000   -0.12500000000000    0.12500000000000             2
   -0.18750000000000   -0.12500000000000    0.12500000000000             2
   -0.06250000000000   -0.12500000000000    0.12500000000000             2
    0.06250000000000    0.12500000000000    0.37500000000000             2
    0.18750000000000    0.12500000000000    0.37500000000000             2
    0.31250000000000    0.12500000000000    0.37500000000000             2
    0.43750000000000    0.12500000000000    0.37500000000000             2
   -0.43750000000000    0.12500000000000    0.37500000000000             2
   -0.31250000000000    0.12500000000000    0.37500000000000             2
   -0.18750000000000    0.12500000000000    0.37500000000000             2
   -0.06250000000000    0.12500000000000    0.37500000000000             2
    0.06250000000000    0.37500000000000    0.37500000000000             2
    0.18750000000000    0.37500000000000    0.37500000000000             2
    0.31250000000000    0.37500000000000    0.37500000000000             2
    0.43750000000000    0.37500000000000    0.37500000000000             2
   -0.43750000000000    0.37500000000000    0.37500000000000             2
   -0.31250000000000    0.37500000000000    0.37500000000000             2
   -0.18750000000000    0.37500000000000    0.37500000000000             2
   -0.06250000000000    0.37500000000000    0.37500000000000             2
    0.06250000000000   -0.37500000000000    0.37500000000000             2
    0.18750000000000   -0.37500000000000    0.37500000000000             2
    0.31250000000000   -0.37500000000000    0.37500000000000             2
    0.43750000000000   -0.37500000000000    0.37500000000000             2
   -0.43750000000000   -0.37500000000000    0.37500000000000             2
   -0.31250000000000   -0.37500000000000    0.37500000000000             2
   -0.18750000000000   -0.37500000000000    0.37500000000000             2
   -0.06250000000000   -0.37500000000000    0.37500000000000             2
    0.06250000000000   -0.12500000000000    0.37500000000000             2
    0.18750000000000   -0.12500000000000    0.37500000000000             2
    0.31250000000000   -0.12500000000000    0.37500000000000             2
    0.43750000000000   -0.12500000000000    0.37500000000000             2
   -0.43750000000000   -0.12500000000000    0.37500000000000             2
   -0.31250000000000   -0.12500000000000    0.37500000000000             2
   -0.18750000000000   -0.12500000000000    0.37500000000000             2
   -0.06250000000000   -0.12500000000000    0.37500000000000             2
Tetrahedra
       384    0.00130208333333
         2         1         2        10        33
         2         1         9        10        33
         2         9        10        33        41
         2         2        10        33        34
         2        10        33        34        42
         2        10        33        41        42
         2         2         3        11        34
         2         2        10        11        34
         2        10        11        34        42
         2         3        11        34        35
         2        11        34        35        43
         2        11        34        42        43
         2         3         4        12        35
         2         3        11        12        35
         2        11        12        35        43
         2         4        12        35        36
         2        12        35        36        44
         2        12        35        43        44
         2         4         5        13        36
         2         4        12        13        36
         2        12        13        36        44
         2         5        13        36        37
         2        13        36        37        45
         2        13        36        44        45
         2         5         6        14        37
         2         5        13        14        37
         2        13        14        37        45
         2         6        14        37        38
         2        14        37        38        46
         2        14        37        45        46
         2         6         7        15        38
         2         6        14        15        38
         2        14        15        38        46
         2         7        15        38        39
         2        15        38        39        47
         2        15        38        46        47
         2         7         8        16        39
         2         7        15        16        39
         2        15        16        39        47
         2         8        16        39        40
         2        16        39        40        48
         2        16        39        47        48
         2         1         8         9        40
         2         8         9        16        40
         2         9        16        40        48
         2         1         9        33        40
         2         9        33        40        41
         2         9        40        41        48
         2         9        10        18        41
         2         9        17        18        41
         2        17        18        41        49
         2        10        18        41        42
         2        18        41        42        50
         2        18        41        49        50
         2        10        11        19        42
         2        10        18        19        42
         2        18        19        42        50
         2        11        19        42        43
         2        19        42        43        51
         2        19        42        50        51
         2        11        12        20        43
         2        11        19        20        43
         2        19        20        43        51
         2        12        20        43        44
         2        20        43        44        52
         2        20        43        51        52
         2        12        13        21        44
         2        12        20        21        44
         2        20        21        44        52
         2        13        21        44        45
         2        21        44        45        53
         2        21        44        52        53
         2        13        14        22        45
         2        13        21        22        45
         2        21        22        45        53
         2        14        22        45        46
         2        22        45        46        54
         2        22        45        53        54
         2        14        15        23        46
         2        14        22        23        46
         2        22        23        46        54
         2        15        23        46        47
         2        23        46        47        55
         2        23        46        54        55
         2        15        16        24        47
         2        15        23        24        47
         2        23        24        47        55
         2        16        24        47        48
         2        24        47        48        56
         2        24        47        55        56
         2         9        16        17        48
         2        16        17        24        48
         2        17        24        48        56
         2         9        17        41        48
         2        17        41        48        49
         2        17        48        49        56
         2        17        18        26        49
         2        17        25        26        49
         2        25        26        49        57
         2        18        26        49        50
         2        26        49        50        58
         2        26        49        57        58
         2        18        19        27        50
         2        18        26        27        50
         2        26        27        50        58
         2        19        27        50        51
         2        27        50        51        59
         2        27        50        58        59
         2        19        20        28        51
         2        19        27        28        51
         2        27        28        51        59
         2        20        28        51        52
         2        28        51        52        60
         2        28        51        59        60
         2        20        21        29        52
         2        20        28        29        52
         2        28        29        52        60
         2        21        29        52        53
         2        29        52        53        61
         2        29        52        60        61
         2        21        22        30        53
         2        21        29        30        53
         2        29        30        53        61
         2        22        30        53        54
         2        30        53        54        62
         2        30        53        61        62
         2        22        23        31        54
         2        22        30        31        54
         2        30        31        54        62
         2        23        31        54        55
         2        31        54        55        63
         2        31        54        62        63
         2        23        24        32        55
         2        23        31        32        55
         2        31        32        55        63
         2        24        32        55        56
         2        32        55        56        64
         2        32        55        63        64
         2        17        24        25        56
         2        24        25        32        56
         2        25        32        56        64
         2        17        25        49        56
         2        25        49        56        57
         2        25        56        57        64
         2         2        25        26        57
         2         1         2        25        57
         2         1         2        33        57
         2         2        26        57        58
         2         2        34        57        58
         2         2        33        34        57
         2         3        26        27        58
         2         2         3        26        58
         2         2         3        34        58
         2         3        27        58        59
         2         3        35        58        59
         2         3        34        35        58
         2         4        27        28        59
         2         3         4        27        59
         2         3         4        35        59
         2         4        28        59        60
         2         4        36        59        60
         2         4        35        36        59
         2         5        28        29        60
         2         4         5        28        60
         2         4         5        36        60
         2         5        29        60        61
         2         5        37        60        61
         2         5        36        37        60
         2         6        29        30        61
         2         5         6        29        61
         2         5         6        37        61
         2         6        30        61        62
         2         6        38        61        62
         2         6        37        38        61
         2         7        30        31        62
         2         6         7        30        62
         2         6         7        38        62
         2         7        31        62        63
         2         7        39        62        63
         2         7        38        39        62
         2         8        31        32        63
         2         7         8        31        63
         2         7         8        39        63
         2         8        32        63        64
         2         8        40        63        64
         2         8        39        40        63
         2         1        25        32        64
         2         1         8        32        64
         2         1         8        40        64
         2         1        25        57        64
         2         1        33        57        64
         2         1        33        40        64
         2        33        34        42        64
         2        33        41        42        64
         2        41        42        56        64
         2        34        42        63        64
         2        42        55        63        64
         2        42        55        56        64
         2        34        35        43        63
         2        34        42        43        63
         2        42        43        55        63
         2        35        43        62        63
         2        43        54        62        63
         2        43        54        55        63
         2        35        36        44        62
         2        35        43        44        62
         2        43        44        54        62
         2        36        44        61        62
         2        44        53        61        62
         2        44        53        54        62
         2        36        37        45        61
         2        36        44        45        61
         2        44        45        53        61
         2        37        45        60        61
         2        45        52        60        61
         2        45        52        53        61
         2        37        38        46        60
         2        37        45        46        60
         2        45        46        52        60
         2        38        46        59        60
         2        46        51        59        60
         2        46        51        52        60
         2        38        39        47        59
         2        38        46        47        59
         2        46        47        51        59
         2        39        47        58        59
         2        47        50        58        59
         2        47        50        51        59
         2        39        40        48        58
         2        39        47        48        58
         2        47        48        50        58
         2        40        48        57        58
         2        48        49        57        58
         2        48        49        50        58
         2        33        40        41        57
         2        40        41        48        57
         2        41        48        49        57
         2        33        41        57        64
         2        41        56        57        64
         2        41        49        56        57
         2        41        42        50        56
         2        41        49        50        56
         2        48        49        50        56
         2        42        50        55        56
         2        47        50        55        56
         2        47        48        50        56
         2        42        43        51        55
         2        42        50        51        55
         2        47        50        51        55
         2        43        51        54        55
         2        46        51        54        55
         2        46        47        51        55
         2        43        44        52        54
         2        43        51        52        54
         2        46        51        52        54
         2        44        52        53        54
         2        45        52        53        54
         2        45        46        52        54
         2        44        45        53        53
         2        44        52        53        53
         2        45        52        53        53
         2        41        48        49        49
         2        48        49        49        56
         2        41        49        49        56
         2        34        40        57        58
         2        33        34        40        57
         2        33        34        40        64
         2        34        39        40        58
         2        34        39        40        63
         2        34        40        63        64
         2        35        39        58        59
         2        34        35        39        58
         2        34        35        39        63
         2        35        38        39        59
         2        35        38        39        62
         2        35        39        62        63
         2        36        38        59        60
         2        35        36        38        59
         2        35        36        38        62
         2        36        37        38        60
         2        36        37        38        61
         2        36        38        61        62
         2        37        37        60        61
         2        36        37        37        60
         2        36        37        37        61
         2        33        33        57        64
         2        33        33        40        64
         2        33        33        40        57
         2         1        23        31        32
         2         1        23        24        32
         2         1         9        23        24
         2         1         2        23        31
         2         1         2        10        23
         2         1         9        10        23
         2         2        22        30        31
         2         2        22        23        31
         2         2        10        22        23
         2         2         3        22        30
         2         2         3        11        22
         2         2        10        11        22
         2         3        21        29        30
         2         3        21        22        30
         2         3        11        21        22
         2         3         4        21        29
         2         3         4        12        21
         2         3        11        12        21
         2         4        20        28        29
         2         4        20        21        29
         2         4        12        20        21
         2         4         5        20        28
         2         4         5        13        20
         2         4        12        13        20
         2         5        19        27        28
         2         5        19        20        28
         2         5        13        19        20
         2         5         6        19        27
         2         5         6        14        19
         2         5        13        14        19
         2         6        18        26        27
         2         6        18        19        27
         2         6        14        18        19
         2         6         7        18        26
         2         6         7        15        18
         2         6        14        15        18
         2         7        17        25        26
         2         7        17        18        26
         2         7        15        17        18
         2         7         8        17        25
         2         7         8        16        17
         2         7        15        16        17
         2         8        24        25        32
         2         8        17        24        25
         2         8        16        17        24
         2         1         8        24        32
         2         1         8         9        24
         2         8         9        16        24
         2         9        15        23        24
         2         9        15        16        24
         2         9        15        16        17
         2         9        10        15        23
         2         9        10        15        18
         2         9        15        17        18
         2        10        14        22        23
         2        10        14        15        23
         2        10        14        15        18
         2        10        11        14        22
         2        10        11        14        19
         2        10        14        18        19
         2        11        13        21        22
         2        11        13        14        22
         2        11        13        14        19
         2        11        12        13        21
         2        11        12        13        20
         2        11        13        19        20
         2        12        12        20        21
         2        12        12        13        21
         2        12        12        13        20
         2        16        16        17        24
         2         9        16        16        17
         2         9        16        16        24
         2         7         8        25        31
         2         8        25        31        32
         2         1        25        31        32
         2         7        25        26        31
         2         2        25        26        31
         2         1         2        25        31
         2         6         7        26        30
         2         7        26        30        31
         2         2        26        30        31
         2         6        26        27        30
         2         3        26        27        30
         2         2         3        26        30
         2         5         6        27        29
         2         6        27        29        30
         2         3        27        29        30
         2         5        27        28        29
         2         4        27        28        29
         2         3         4        27        29
         2         4         5        28        28
         2         5        28        28        29
         2         4        28        28        29
         2         1         8        32        32
         2         1        25        32        32
         2         8        25        32        32
