       N       E                     dE             d eps       ncg     rms          rms(c)
DAV:   1     0.149050521700E+03    0.14905E+03   -0.14686E+04  8192   0.878E+02
DAV:   2    -0.356752550280E+02   -0.18473E+03   -0.17129E+03  9616   0.246E+02
DAV:   3    -0.454644095453E+02   -0.97892E+01   -0.96958E+01 15696   0.504E+01
DAV:   4    -0.455421246832E+02   -0.77715E-01   -0.77810E-01  8384   0.368E+00
DAV:   5    -0.455434629894E+02   -0.13383E-02   -0.13457E-02 13840   0.483E-01    0.347E+01
RMM:   6    -0.462971123055E+02   -0.75365E+00   -0.54068E+00  8917   0.957E+00    0.148E+01
RMM:   7    -0.457373353399E+02    0.55978E+00   -0.11472E+00  8905   0.551E+00    0.770E+00
RMM:   8    -0.457383548791E+02   -0.10195E-02   -0.27110E-01  8654   0.352E+00    0.370E+00
RMM:   9    -0.457510607505E+02   -0.12706E-01   -0.61106E-02  8612   0.169E+00    0.184E+00
RMM:  10    -0.457535303301E+02   -0.24696E-02   -0.15775E-02  8281   0.948E-01    0.599E-01
RMM:  11    -0.457543793183E+02   -0.84899E-03   -0.31630E-03  7750   0.445E-01    0.258E-01
RMM:  12    -0.457545845692E+02   -0.20525E-03   -0.66765E-04  6433   0.201E-01
   1 F= -.45754585E+02 E0= -.45754585E+02  d E =-.457546E+02  mag=     0.4360
       N       E                     dE             d eps       ncg     rms          rms(c)
DAV:   1    -0.459567860079E+02   -0.20241E+00   -0.25115E+00 12160   0.104E+01    0.419E+00
RMM:   2    -0.458351443334E+02    0.12164E+00   -0.29212E-01  8753   0.298E+00    0.104E+00
RMM:   3    -0.458112198765E+02    0.23924E-01   -0.28746E-02  8680   0.132E+00    0.960E-01
RMM:   4    -0.458070098145E+02    0.42101E-02   -0.82621E-03  8295   0.660E-01    0.862E-01
RMM:   5    -0.458066139854E+02    0.39583E-03   -0.38154E-03  7926   0.459E-01
   2 F= -.45806614E+02 E0= -.45806614E+02  d E =-.520294E-01  mag=     0.4782
       N       E                     dE             d eps       ncg     rms          rms(c)
DAV:   1    -0.463503529676E+02   -0.54334E+00   -0.88766E+00  8224   0.195E+01    0.779E+00
RMM:   2    -0.459163077823E+02    0.43405E+00   -0.10699E+00  8710   0.568E+00    0.214E+00
RMM:   3    -0.458140694650E+02    0.10224E+00   -0.10970E-01  8595   0.243E+00    0.201E+00
RMM:   4    -0.458000984309E+02    0.13971E-01   -0.26286E-02  8907   0.115E+00    0.188E+00
RMM:   5    -0.457979086879E+02    0.21897E-02   -0.19668E-02  9886   0.908E-01    0.110E+00
RMM:   6    -0.457990840925E+02   -0.11754E-02   -0.14923E-02  9736   0.502E-01    0.264E-01
RMM:   7    -0.457998206519E+02   -0.73656E-03   -0.43067E-03  8854   0.411E-01    0.143E-01
RMM:   8    -0.458002028595E+02   -0.38221E-03   -0.21593E-03  7181   0.203E-01
   3 F= -.45800203E+02 E0= -.45800203E+02  d E =-.456183E-01  mag=     0.5578
       N       E                     dE             d eps       ncg     rms          rms(c)
DAV:   1    -0.459180685005E+02   -0.11825E+00   -0.16900E+00 11424   0.822E+00    0.322E+00
RMM:   2    -0.458370221368E+02    0.81046E-01   -0.19171E-01  8693   0.247E+00    0.840E-01
RMM:   3    -0.458221492143E+02    0.14873E-01   -0.19480E-02  8648   0.110E+00    0.618E-01
RMM:   4    -0.458190789919E+02    0.30702E-02   -0.72745E-03  8128   0.586E-01    0.559E-01
RMM:   5    -0.458191353021E+02   -0.56310E-04   -0.28464E-03  7649   0.404E-01
   4 F= -.45819135E+02 E0= -.45819135E+02  d E =-.645507E-01  mag=     0.5165
       N       E                     dE             d eps       ncg     rms          rms(c)
DAV:   1    -0.457902288089E+02    0.28850E-01   -0.22296E+00  9216   0.759E+00    0.140E+00
RMM:   2    -0.457853217244E+02    0.49071E-02   -0.10986E-01  8680   0.157E+00    0.778E-01
RMM:   3    -0.457804802850E+02    0.48414E-02   -0.11295E-02  8641   0.107E+00    0.313E-01
RMM:   4    -0.457803155306E+02    0.16475E-03   -0.31722E-03  7585   0.315E-01
   5 F= -.45780316E+02 E0= -.45780316E+02  d E =0.388198E-01  mag=     0.5164
       N       E                     dE             d eps       ncg     rms          rms(c)
DAV:   1    -0.458389066283E+02   -0.58426E-01   -0.92110E-01  9312   0.485E+00    0.889E-01
RMM:   2    -0.458377263632E+02    0.11803E-02   -0.43195E-02  8672   0.974E-01    0.547E-01
RMM:   3    -0.458360065792E+02    0.17198E-02   -0.32437E-03  7370   0.600E-01    0.160E-01
RMM:   4    -0.458358251463E+02    0.18143E-03   -0.90209E-04  6182   0.196E-01
   6 F= -.45835825E+02 E0= -.45835825E+02  d E =-.166898E-01  mag=     0.5171
