  10  10   1   0
  0.8639281E+01  0.3402065E-09  0.3402741E-09  0.7836338E-09  0.5000000E-15
  1.000000000000000E-004
  CAR 
 unknown system                          
     14.89313761    -33.67435636  301      4.03849371      1.00000000
    -33.674  0.0000E+00  0.0000E+00  0.0000E+00  0.0000E+00
    -33.512  0.0000E+00  0.0000E+00  0.0000E+00  0.0000E+00
    -33.351  0.0000E+00  0.0000E+00  0.0000E+00  0.0000E+00
    -33.189  0.0000E+00  0.0000E+00  0.0000E+00  0.0000E+00
    -33.027  0.0000E+00  0.0000E+00  0.0000E+00  0.0000E+00
    -32.865  0.0000E+00  0.0000E+00  0.0000E+00  0.0000E+00
    -32.703  0.0000E+00  0.0000E+00  0.0000E+00  0.0000E+00
    -32.541  0.0000E+00  0.0000E+00  0.0000E+00  0.0000E+00
    -32.379  0.0000E+00  0.0000E+00  0.0000E+00  0.0000E+00
    -32.217  0.0000E+00  0.0000E+00  0.0000E+00  0.0000E+00
    -32.055  0.0000E+00  0.0000E+00  0.0000E+00  0.0000E+00
    -31.894  0.0000E+00  0.0000E+00  0.0000E+00  0.0000E+00
    -31.732  0.0000E+00  0.0000E+00  0.0000E+00  0.0000E+00
    -31.570  0.0000E+00  0.0000E+00  0.0000E+00  0.0000E+00
    -31.408  0.7549E-01  0.7544E-01  0.2886E-02  0.2883E-02
    -31.246  0.0000E+00  0.0000E+00  0.1010E-01  0.1010E-01
    -31.084  0.0000E+00  0.0000E+00  0.1010E-01  0.1010E-01
    -30.922  0.0000E+00  0.0000E+00  0.1010E-01  0.1010E-01
    -30.760  0.0000E+00  0.0000E+00  0.1010E-01  0.1010E-01
    -30.598  0.0000E+00  0.0000E+00  0.1010E-01  0.1010E-01
    -30.437  0.0000E+00  0.0000E+00  0.1010E-01  0.1010E-01
    -30.275  0.0000E+00  0.0000E+00  0.1010E-01  0.1010E-01
    -30.113  0.0000E+00  0.0000E+00  0.1010E-01  0.1010E-01
    -29.951  0.0000E+00  0.0000E+00  0.1010E-01  0.1010E-01
    -29.789  0.0000E+00  0.0000E+00  0.1010E-01  0.1010E-01
    -29.627  0.0000E+00  0.0000E+00  0.1010E-01  0.1010E-01
    -29.465  0.0000E+00  0.0000E+00  0.1010E-01  0.1010E-01
    -29.303  0.0000E+00  0.0000E+00  0.1010E-01  0.1010E-01
    -29.141  0.0000E+00  0.0000E+00  0.1010E-01  0.1010E-01
    -28.979  0.0000E+00  0.0000E+00  0.1010E-01  0.1010E-01
    -28.818  0.0000E+00  0.0000E+00  0.1010E-01  0.1010E-01
    -28.656  0.0000E+00  0.0000E+00  0.1010E-01  0.1010E-01
    -28.494  0.0000E+00  0.0000E+00  0.1010E-01  0.1010E-01
    -28.332  0.0000E+00  0.0000E+00  0.1010E-01  0.1010E-01
    -28.170  0.0000E+00  0.0000E+00  0.1010E-01  0.1010E-01
    -28.008  0.0000E+00  0.0000E+00  0.1010E-01  0.1010E-01
    -27.846  0.0000E+00  0.0000E+00  0.1010E-01  0.1010E-01
    -27.684  0.0000E+00  0.0000E+00  0.1010E-01  0.1010E-01
    -27.522  0.5779E-01  0.5779E-01  0.2490E-01  0.2490E-01
    -27.361  0.9809E-01  0.9809E-01  0.3475E-01  0.3475E-01
    -27.199  0.1431E+00  0.1431E+00  0.5515E-01  0.5515E-01
    -27.037  0.0000E+00  0.0000E+00  0.7071E-01  0.7071E-01
    -26.875  0.0000E+00  0.0000E+00  0.7071E-01  0.7071E-01
    -26.713  0.0000E+00  0.0000E+00  0.7071E-01  0.7071E-01
    -26.551  0.0000E+00  0.0000E+00  0.7071E-01  0.7071E-01
    -26.389  0.0000E+00  0.0000E+00  0.7071E-01  0.7071E-01
    -26.227  0.0000E+00  0.0000E+00  0.7071E-01  0.7071E-01
    -26.065  0.0000E+00  0.0000E+00  0.7071E-01  0.7071E-01
    -25.904  0.0000E+00  0.0000E+00  0.7071E-01  0.7071E-01
    -25.742  0.0000E+00  0.0000E+00  0.7071E-01  0.7071E-01
    -25.580  0.0000E+00  0.0000E+00  0.7071E-01  0.7071E-01
    -25.418  0.0000E+00  0.0000E+00  0.7071E-01  0.7071E-01
    -25.256  0.0000E+00  0.0000E+00  0.7071E-01  0.7071E-01
    -25.094  0.0000E+00  0.0000E+00  0.7071E-01  0.7071E-01
    -24.932  0.0000E+00  0.0000E+00  0.7071E-01  0.7071E-01
    -24.770  0.0000E+00  0.0000E+00  0.7071E-01  0.7071E-01
    -24.608  0.0000E+00  0.0000E+00  0.7071E-01  0.7071E-01
    -24.447  0.0000E+00  0.0000E+00  0.7071E-01  0.7071E-01
    -24.285  0.0000E+00  0.0000E+00  0.7071E-01  0.7071E-01
    -24.123  0.0000E+00  0.0000E+00  0.7071E-01  0.7071E-01
    -23.961  0.0000E+00  0.0000E+00  0.7071E-01  0.7071E-01
    -23.799  0.0000E+00  0.0000E+00  0.7071E-01  0.7071E-01
    -23.637  0.0000E+00  0.0000E+00  0.7071E-01  0.7071E-01
    -23.475  0.0000E+00  0.0000E+00  0.7071E-01  0.7071E-01
    -23.313  0.0000E+00  0.0000E+00  0.7071E-01  0.7071E-01
    -23.151  0.0000E+00  0.0000E+00  0.7071E-01  0.7071E-01
    -22.990  0.0000E+00  0.0000E+00  0.7071E-01  0.7071E-01
    -22.828  0.0000E+00  0.0000E+00  0.7071E-01  0.7071E-01
    -22.666  0.0000E+00  0.0000E+00  0.7071E-01  0.7071E-01
    -22.504  0.0000E+00  0.0000E+00  0.7071E-01  0.7071E-01
    -22.342  0.0000E+00  0.0000E+00  0.7071E-01  0.7071E-01
    -22.180  0.0000E+00  0.0000E+00  0.7071E-01  0.7071E-01
    -22.018  0.0000E+00  0.0000E+00  0.7071E-01  0.7071E-01
    -21.856  0.0000E+00  0.0000E+00  0.7071E-01  0.7071E-01
    -21.694  0.0000E+00  0.0000E+00  0.7071E-01  0.7071E-01
    -21.532  0.0000E+00  0.0000E+00  0.7071E-01  0.7071E-01
    -21.371  0.0000E+00  0.0000E+00  0.7071E-01  0.7071E-01
    -21.209  0.0000E+00  0.0000E+00  0.7071E-01  0.7071E-01
    -21.047  0.0000E+00  0.0000E+00  0.7071E-01  0.7071E-01
    -20.885  0.0000E+00  0.0000E+00  0.7071E-01  0.7071E-01
    -20.723  0.0000E+00  0.0000E+00  0.7071E-01  0.7071E-01
    -20.561  0.0000E+00  0.0000E+00  0.7071E-01  0.7071E-01
    -20.399  0.0000E+00  0.0000E+00  0.7071E-01  0.7071E-01
    -20.237  0.0000E+00  0.0000E+00  0.7071E-01  0.7071E-01
    -20.075  0.0000E+00  0.0000E+00  0.7071E-01  0.7071E-01
    -19.914  0.0000E+00  0.0000E+00  0.7071E-01  0.7071E-01
    -19.752  0.0000E+00  0.0000E+00  0.7071E-01  0.7071E-01
    -19.590  0.0000E+00  0.0000E+00  0.7071E-01  0.7071E-01
    -19.428  0.0000E+00  0.0000E+00  0.7071E-01  0.7071E-01
    -19.266  0.0000E+00  0.0000E+00  0.7071E-01  0.7071E-01
    -19.104  0.0000E+00  0.0000E+00  0.7071E-01  0.7071E-01
    -18.942  0.0000E+00  0.0000E+00  0.7071E-01  0.7071E-01
    -18.780  0.0000E+00  0.0000E+00  0.7071E-01  0.7071E-01
    -18.618  0.0000E+00  0.0000E+00  0.7071E-01  0.7071E-01
    -18.457  0.0000E+00  0.0000E+00  0.7071E-01  0.7071E-01
    -18.295  0.0000E+00  0.0000E+00  0.7071E-01  0.7071E-01
    -18.133  0.0000E+00  0.0000E+00  0.7071E-01  0.7071E-01
    -17.971  0.0000E+00  0.0000E+00  0.7071E-01  0.7071E-01
    -17.809  0.0000E+00  0.0000E+00  0.7071E-01  0.7071E-01
    -17.647  0.0000E+00  0.0000E+00  0.7071E-01  0.7071E-01
    -17.485  0.0000E+00  0.0000E+00  0.7071E-01  0.7071E-01
    -17.323  0.0000E+00  0.0000E+00  0.7071E-01  0.7071E-01
    -17.161  0.0000E+00  0.0000E+00  0.7071E-01  0.7071E-01
    -17.000  0.0000E+00  0.0000E+00  0.7071E-01  0.7071E-01
    -16.838  0.0000E+00  0.0000E+00  0.7071E-01  0.7071E-01
    -16.676  0.0000E+00  0.0000E+00  0.7071E-01  0.7071E-01
    -16.514  0.0000E+00  0.0000E+00  0.7071E-01  0.7071E-01
    -16.352  0.0000E+00  0.0000E+00  0.7071E-01  0.7071E-01
    -16.190  0.0000E+00  0.0000E+00  0.7071E-01  0.7071E-01
    -16.028  0.0000E+00  0.0000E+00  0.7071E-01  0.7071E-01
    -15.866  0.0000E+00  0.0000E+00  0.7071E-01  0.7071E-01
    -15.704  0.0000E+00  0.0000E+00  0.7071E-01  0.7071E-01
    -15.542  0.0000E+00  0.0000E+00  0.7071E-01  0.7071E-01
    -15.381  0.0000E+00  0.0000E+00  0.7071E-01  0.7071E-01
    -15.219  0.0000E+00  0.0000E+00  0.7071E-01  0.7071E-01
    -15.057  0.0000E+00  0.0000E+00  0.7071E-01  0.7071E-01
    -14.895  0.0000E+00  0.0000E+00  0.7071E-01  0.7071E-01
    -14.733  0.0000E+00  0.0000E+00  0.7071E-01  0.7071E-01
    -14.571  0.0000E+00  0.0000E+00  0.7071E-01  0.7071E-01
    -14.409  0.0000E+00  0.0000E+00  0.7071E-01  0.7071E-01
    -14.247  0.0000E+00  0.0000E+00  0.7071E-01  0.7071E-01
    -14.085  0.2824E-01  0.2824E-01  0.7132E-01  0.7132E-01
    -13.924  0.1916E-01  0.1916E-01  0.7569E-01  0.7569E-01
    -13.762  0.2334E-01  0.2334E-01  0.7897E-01  0.7897E-01
    -13.600  0.2348E-01  0.2348E-01  0.8232E-01  0.8232E-01
    -13.438  0.6343E-01  0.6343E-01  0.8781E-01  0.8781E-01
    -13.276  0.3058E-01  0.3058E-01  0.9759E-01  0.9759E-01
    -13.114  0.0000E+00  0.0000E+00  0.1010E+00  0.1010E+00
    -12.952  0.0000E+00  0.0000E+00  0.1010E+00  0.1010E+00
    -12.790  0.0000E+00  0.0000E+00  0.1010E+00  0.1010E+00
    -12.628  0.0000E+00  0.0000E+00  0.1010E+00  0.1010E+00
    -12.467  0.0000E+00  0.0000E+00  0.1010E+00  0.1010E+00
    -12.305  0.0000E+00  0.0000E+00  0.1010E+00  0.1010E+00
    -12.143  0.0000E+00  0.0000E+00  0.1010E+00  0.1010E+00
    -11.981  0.0000E+00  0.0000E+00  0.1010E+00  0.1010E+00
    -11.819  0.0000E+00  0.0000E+00  0.1010E+00  0.1010E+00
    -11.657  0.0000E+00  0.0000E+00  0.1010E+00  0.1010E+00
    -11.495  0.0000E+00  0.0000E+00  0.1010E+00  0.1010E+00
    -11.333  0.0000E+00  0.0000E+00  0.1010E+00  0.1010E+00
    -11.171  0.0000E+00  0.0000E+00  0.1010E+00  0.1010E+00
    -11.010  0.0000E+00  0.0000E+00  0.1010E+00  0.1010E+00
    -10.848  0.0000E+00  0.0000E+00  0.1010E+00  0.1010E+00
    -10.686  0.0000E+00  0.0000E+00  0.1010E+00  0.1010E+00
    -10.524  0.0000E+00  0.0000E+00  0.1010E+00  0.1010E+00
    -10.362  0.0000E+00  0.0000E+00  0.1010E+00  0.1010E+00
    -10.200  0.0000E+00  0.0000E+00  0.1010E+00  0.1010E+00
    -10.038  0.0000E+00  0.0000E+00  0.1010E+00  0.1010E+00
     -9.876  0.0000E+00  0.0000E+00  0.1010E+00  0.1010E+00
     -9.714  0.0000E+00  0.0000E+00  0.1010E+00  0.1010E+00
     -9.553  0.0000E+00  0.0000E+00  0.1010E+00  0.1010E+00
     -9.391  0.0000E+00  0.0000E+00  0.1010E+00  0.1010E+00
     -9.229  0.0000E+00  0.0000E+00  0.1010E+00  0.1010E+00
     -9.067  0.0000E+00  0.0000E+00  0.1010E+00  0.1010E+00
     -8.905  0.0000E+00  0.0000E+00  0.1010E+00  0.1010E+00
     -8.743  0.0000E+00  0.0000E+00  0.1010E+00  0.1010E+00
     -8.581  0.0000E+00  0.0000E+00  0.1010E+00  0.1010E+00
     -8.419  0.0000E+00  0.0000E+00  0.1010E+00  0.1010E+00
     -8.257  0.0000E+00  0.0000E+00  0.1010E+00  0.1010E+00
     -8.095  0.0000E+00  0.0000E+00  0.1010E+00  0.1010E+00
     -7.934  0.0000E+00  0.0000E+00  0.1010E+00  0.1010E+00
     -7.772  0.0000E+00  0.0000E+00  0.1010E+00  0.1010E+00
     -7.610  0.0000E+00  0.0000E+00  0.1010E+00  0.1010E+00
     -7.448  0.0000E+00  0.0000E+00  0.1010E+00  0.1010E+00
     -7.286  0.0000E+00  0.0000E+00  0.1010E+00  0.1010E+00
     -7.124  0.0000E+00  0.0000E+00  0.1010E+00  0.1010E+00
     -6.962  0.0000E+00  0.0000E+00  0.1010E+00  0.1010E+00
     -6.800  0.0000E+00  0.0000E+00  0.1010E+00  0.1010E+00
     -6.638  0.0000E+00  0.0000E+00  0.1010E+00  0.1010E+00
     -6.477  0.0000E+00  0.0000E+00  0.1010E+00  0.1010E+00
     -6.315  0.0000E+00  0.0000E+00  0.1010E+00  0.1010E+00
     -6.153  0.0000E+00  0.0000E+00  0.1010E+00  0.1010E+00
     -5.991  0.0000E+00  0.0000E+00  0.1010E+00  0.1010E+00
     -5.829  0.0000E+00  0.0000E+00  0.1010E+00  0.1010E+00
     -5.667  0.0000E+00  0.0000E+00  0.1010E+00  0.1010E+00
     -5.505  0.3041E-03  0.3041E-03  0.1010E+00  0.1010E+00
     -5.343  0.1311E-02  0.1311E-02  0.1011E+00  0.1011E+00
     -5.181  0.2393E-02  0.2393E-02  0.1015E+00  0.1015E+00
     -5.020  0.2537E-02  0.2537E-02  0.1019E+00  0.1019E+00
     -4.858  0.2459E-02  0.2459E-02  0.1023E+00  0.1023E+00
     -4.696  0.2658E-02  0.2658E-02  0.1027E+00  0.1027E+00
     -4.534  0.2917E-02  0.2917E-02  0.1031E+00  0.1031E+00
     -4.372  0.3269E-02  0.3269E-02  0.1036E+00  0.1036E+00
     -4.210  0.3656E-02  0.3656E-02  0.1042E+00  0.1042E+00
     -4.048  0.3931E-02  0.3931E-02  0.1048E+00  0.1048E+00
     -3.886  0.4226E-02  0.4226E-02  0.1055E+00  0.1055E+00
     -3.724  0.7135E-02  0.7135E-02  0.1065E+00  0.1065E+00
     -3.563  0.6548E-02  0.6548E-02  0.1076E+00  0.1076E+00
     -3.401  0.5651E-02  0.5651E-02  0.1085E+00  0.1085E+00
     -3.239  0.1391E-01  0.1391E-01  0.1098E+00  0.1098E+00
     -3.077  0.1589E-01  0.1589E-01  0.1123E+00  0.1123E+00
     -2.915  0.1265E-01  0.1265E-01  0.1147E+00  0.1147E+00
     -2.753  0.1193E-01  0.1193E-01  0.1167E+00  0.1167E+00
     -2.591  0.1047E-01  0.1047E-01  0.1185E+00  0.1185E+00
     -2.429  0.1049E-01  0.1049E-01  0.1202E+00  0.1202E+00
     -2.267  0.1460E-01  0.1460E-01  0.1222E+00  0.1222E+00
     -2.105  0.1221E-01  0.1221E-01  0.1247E+00  0.1247E+00
     -1.944  0.8666E-02  0.8666E-02  0.1265E+00  0.1265E+00
     -1.782  0.5364E-01  0.5362E-01  0.1285E+00  0.1285E+00
     -1.620  0.1880E-02  0.1880E-02  0.1316E+00  0.1316E+00
     -1.458  0.3776E-02  0.3776E-02  0.1320E+00  0.1320E+00
     -1.296  0.1086E-01  0.1086E-01  0.1331E+00  0.1331E+00
     -1.134  0.5078E-01  0.5078E-01  0.1385E+00  0.1385E+00
     -0.972  0.1878E-01  0.1878E-01  0.1430E+00  0.1430E+00
     -0.810  0.2418E-01  0.2418E-01  0.1462E+00  0.1462E+00
     -0.648  0.1358E-01  0.1358E-01  0.1488E+00  0.1488E+00
     -0.487  0.1467E-01  0.1467E-01  0.1528E+00  0.1528E+00
     -0.325  0.1195E-01  0.1195E-01  0.1548E+00  0.1548E+00
     -0.163  0.1445E-01  0.1445E-01  0.1573E+00  0.1573E+00
     -0.001  0.1391E-01  0.1391E-01  0.1595E+00  0.1595E+00
      0.161  0.1907E-01  0.1907E-01  0.1620E+00  0.1620E+00
      0.323  0.1236E-01  0.1236E-01  0.1645E+00  0.1645E+00
      0.485  0.1001E-01  0.1001E-01  0.1662E+00  0.1662E+00
      0.647  0.8716E-02  0.8716E-02  0.1678E+00  0.1678E+00
      0.809  0.8481E-02  0.8480E-02  0.1692E+00  0.1692E+00
      0.970  0.2294E-02  0.2294E-02  0.1701E+00  0.1701E+00
      1.132  0.1909E-02  0.1909E-02  0.1704E+00  0.1704E+00
      1.294  0.5833E-02  0.5833E-02  0.1709E+00  0.1709E+00
      1.456  0.3186E-02  0.3186E-02  0.1714E+00  0.1714E+00
      1.618  0.4740E-02  0.4740E-02  0.1722E+00  0.1722E+00
      1.780  0.5042E-02  0.5042E-02  0.1730E+00  0.1730E+00
      1.942  0.5898E-02  0.5898E-02  0.1739E+00  0.1739E+00
      2.104  0.6282E-02  0.6282E-02  0.1749E+00  0.1749E+00
      2.266  0.6582E-02  0.6582E-02  0.1759E+00  0.1759E+00
      2.427  0.7477E-02  0.7477E-02  0.1771E+00  0.1771E+00
      2.589  0.8351E-02  0.8351E-02  0.1783E+00  0.1783E+00
      2.751  0.1236E-01  0.1236E-01  0.1800E+00  0.1800E+00
      2.913  0.1432E-01  0.1432E-01  0.1822E+00  0.1822E+00
      3.075  0.1500E-01  0.1500E-01  0.1846E+00  0.1846E+00
      3.237  0.1242E-01  0.1242E-01  0.1868E+00  0.1868E+00
      3.399  0.1493E-01  0.1493E-01  0.1886E+00  0.1886E+00
      3.561  0.1493E-01  0.1493E-01  0.1913E+00  0.1913E+00
      3.723  0.1114E-01  0.1114E-01  0.1934E+00  0.1934E+00
      3.885  0.1088E-01  0.1088E-01  0.1953E+00  0.1953E+00
      4.046  0.1133E-01  0.1133E-01  0.1971E+00  0.1971E+00
      4.208  0.1194E-01  0.1194E-01  0.1989E+00  0.1989E+00
      4.370  0.9601E-02  0.9601E-02  0.2008E+00  0.2008E+00
      4.532  0.3427E-02  0.3427E-02  0.2017E+00  0.2017E+00
      4.694  0.2114E-02  0.2114E-02  0.2022E+00  0.2022E+00
      4.856  0.5318E-02  0.5318E-02  0.2028E+00  0.2028E+00
      5.018  0.8264E-02  0.8264E-02  0.2040E+00  0.2040E+00
      5.180  0.1247E-01  0.1247E-01  0.2056E+00  0.2056E+00
      5.342  0.3158E-01  0.3158E-01  0.2088E+00  0.2088E+00
      5.503  0.3182E-01  0.3182E-01  0.2142E+00  0.2142E+00
      5.665  0.2172E-01  0.2172E-01  0.2185E+00  0.2185E+00
      5.827  0.3430E-01  0.3430E-01  0.2228E+00  0.2228E+00
      5.989  0.2018E-01  0.2018E-01  0.2276E+00  0.2276E+00
      6.151  0.2205E-01  0.2205E-01  0.2312E+00  0.2312E+00
      6.313  0.2214E-01  0.2214E-01  0.2344E+00  0.2344E+00
      6.475  0.3003E-01  0.3003E-01  0.2394E+00  0.2394E+00
      6.637  0.2403E-01  0.2403E-01  0.2432E+00  0.2432E+00
      6.799  0.1188E-01  0.1188E-01  0.2461E+00  0.2461E+00
      6.960  0.1206E-01  0.1206E-01  0.2478E+00  0.2478E+00
      7.122  0.1196E-01  0.1196E-01  0.2497E+00  0.2497E+00
      7.284  0.1119E-01  0.1119E-01  0.2516E+00  0.2516E+00
      7.446  0.1179E-01  0.1179E-01  0.2534E+00  0.2534E+00
      7.608  0.1409E-01  0.1409E-01  0.2555E+00  0.2555E+00
      7.770  0.1383E-01  0.1383E-01  0.2579E+00  0.2579E+00
      7.932  0.8288E-02  0.8287E-02  0.2597E+00  0.2597E+00
      8.094  0.6649E-02  0.6649E-02  0.2609E+00  0.2609E+00
      8.256  0.1126E-01  0.1126E-01  0.2623E+00  0.2623E+00
      8.417  0.1593E-01  0.1593E-01  0.2648E+00  0.2648E+00
      8.579  0.2167E-01  0.2167E-01  0.2676E+00  0.2676E+00
      8.741  0.1961E-01  0.1961E-01  0.2718E+00  0.2718E+00
      8.903  0.9302E-02  0.9302E-02  0.2735E+00  0.2735E+00
      9.065  0.3218E-01  0.3218E-01  0.2768E+00  0.2768E+00
      9.227  0.1762E-01  0.1762E-01  0.2809E+00  0.2809E+00
      9.389  0.2084E-01  0.2084E-01  0.2836E+00  0.2836E+00
      9.551  0.3220E-01  0.3220E-01  0.2881E+00  0.2881E+00
      9.713  0.1401E-01  0.1402E-01  0.2918E+00  0.2918E+00
      9.874  0.1121E-01  0.1121E-01  0.2937E+00  0.2937E+00
     10.036  0.3261E-01  0.3261E-01  0.2969E+00  0.2969E+00
     10.198  0.2165E-01  0.2165E-01  0.3017E+00  0.3017E+00
     10.360  0.1283E-01  0.1283E-01  0.3044E+00  0.3044E+00
     10.522  0.1663E-01  0.1663E-01  0.3065E+00  0.3065E+00
     10.684  0.4508E-01  0.4508E-01  0.3111E+00  0.3111E+00
     10.846  0.7839E-02  0.7843E-02  0.3138E+00  0.3138E+00
     11.008  0.1810E-01  0.1810E-01  0.3157E+00  0.3157E+00
     11.170  0.1708E-01  0.1708E-01  0.3185E+00  0.3185E+00
     11.332  0.1596E-01  0.1596E-01  0.3212E+00  0.3212E+00
     11.493  0.3941E-02  0.3931E-02  0.3228E+00  0.3228E+00
     11.655  0.5909E-03  0.5904E-03  0.3231E+00  0.3231E+00
     11.817  0.3220E-03  0.3219E-03  0.3231E+00  0.3231E+00
     11.979  0.2130E-03  0.2130E-03  0.3232E+00  0.3232E+00
     12.141  0.1264E-03  0.1266E-03  0.3232E+00  0.3232E+00
     12.303  0.6231E-04  0.6251E-04  0.3232E+00  0.3232E+00
     12.465  0.2064E-04  0.2081E-04  0.3232E+00  0.3232E+00
     12.627  0.1422E-05  0.1479E-05  0.3232E+00  0.3232E+00
     12.789  0.0000E+00  0.0000E+00  0.3232E+00  0.3232E+00
     12.950  0.0000E+00  0.0000E+00  0.3232E+00  0.3232E+00
     13.112  0.0000E+00  0.0000E+00  0.3232E+00  0.3232E+00
     13.274  0.0000E+00  0.0000E+00  0.3232E+00  0.3232E+00
     13.436  0.0000E+00  0.0000E+00  0.3232E+00  0.3232E+00
     13.598  0.0000E+00  0.0000E+00  0.3232E+00  0.3232E+00
     13.760  0.0000E+00  0.0000E+00  0.3232E+00  0.3232E+00
     13.922  0.0000E+00  0.0000E+00  0.3232E+00  0.3232E+00
     14.084  0.0000E+00  0.0000E+00  0.3232E+00  0.3232E+00
     14.246  0.0000E+00  0.0000E+00  0.3232E+00  0.3232E+00
     14.407  0.0000E+00  0.0000E+00  0.3232E+00  0.3232E+00
     14.569  0.0000E+00  0.0000E+00  0.3232E+00  0.3232E+00
     14.731  0.0000E+00  0.0000E+00  0.3232E+00  0.3232E+00
     14.893  0.0000E+00  0.0000E+00  0.3232E+00  0.3232E+00
     14.89313761    -33.67435636  301      4.03849371      1.00000000
    -33.674  0.0000E+00  0.0000E+00  0.0000E+00  0.0000E+00  0.0000E+00  0.0000E+00  0.0000E+00  0.0000E+00  0.0000E+00  0.0000E+00  0.0000E+00  0.0000E+00  0.0000E+00  0.0000E+00  0.0000E+00  0.0000E+00  0.0000E+00  0.0000E+00
    -33.512  0.0000E+00  0.0000E+00  0.0000E+00  0.0000E+00  0.0000E+00  0.0000E+00  0.0000E+00  0.0000E+00  0.0000E+00  0.0000E+00  0.0000E+00  0.0000E+00  0.0000E+00  0.0000E+00  0.0000E+00  0.0000E+00  0.0000E+00  0.0000E+00
    -33.351  0.0000E+00  0.0000E+00  0.0000E+00  0.0000E+00  0.0000E+00  0.0000E+00  0.0000E+00  0.0000E+00  0.0000E+00  0.0000E+00  0.0000E+00  0.0000E+00  0.0000E+00  0.0000E+00  0.0000E+00  0.0000E+00  0.0000E+00  0.0000E+00
    -33.189  0.0000E+00  0.0000E+00  0.0000E+00  0.0000E+00  0.0000E+00  0.0000E+00  0.0000E+00  0.0000E+00  0.0000E+00  0.0000E+00  0.0000E+00  0.0000E+00  0.0000E+00  0.0000E+00  0.0000E+00  0.0000E+00  0.0000E+00  0.0000E+00
    -33.027  0.0000E+00  0.0000E+00  0.0000E+00  0.0000E+00  0.0000E+00  0.0000E+00  0.0000E+00  0.0000E+00  0.0000E+00  0.0000E+00  0.0000E+00  0.0000E+00  0.0000E+00  0.0000E+00  0.0000E+00  0.0000E+00  0.0000E+00  0.0000E+00
    -32.865  0.0000E+00  0.0000E+00  0.0000E+00  0.0000E+00  0.0000E+00  0.0000E+00  0.0000E+00  0.0000E+00  0.0000E+00  0.0000E+00  0.0000E+00  0.0000E+00  0.0000E+00  0.0000E+00  0.0000E+00  0.0000E+00  0.0000E+00  0.0000E+00
    -32.703  0.0000E+00  0.0000E+00  0.0000E+00  0.0000E+00  0.0000E+00  0.0000E+00  0.0000E+00  0.0000E+00  0.0000E+00  0.0000E+00  0.0000E+00  0.0000E+00  0.0000E+00  0.0000E+00  0.0000E+00  0.0000E+00  0.0000E+00  0.0000E+00
    -32.541  0.0000E+00  0.0000E+00  0.0000E+00  0.0000E+00  0.0000E+00  0.0000E+00  0.0000E+00  0.0000E+00  0.0000E+00  0.0000E+00  0.0000E+00  0.0000E+00  0.0000E+00  0.0000E+00  0.0000E+00  0.0000E+00  0.0000E+00  0.0000E+00
    -32.379  0.0000E+00  0.0000E+00  0.0000E+00  0.0000E+00  0.0000E+00  0.0000E+00  0.0000E+00  0.0000E+00  0.0000E+00  0.0000E+00  0.0000E+00  0.0000E+00  0.0000E+00  0.0000E+00  0.0000E+00  0.0000E+00  0.0000E+00  0.0000E+00
    -32.217  0.0000E+00  0.0000E+00  0.0000E+00  0.0000E+00  0.0000E+00  0.0000E+00  0.0000E+00  0.0000E+00  0.0000E+00  0.0000E+00  0.0000E+00  0.0000E+00  0.0000E+00  0.0000E+00  0.0000E+00  0.0000E+00  0.0000E+00  0.0000E+00
    -32.055  0.0000E+00  0.0000E+00  0.0000E+00  0.0000E+00  0.0000E+00  0.0000E+00  0.0000E+00  0.0000E+00  0.0000E+00  0.0000E+00  0.0000E+00  0.0000E+00  0.0000E+00  0.0000E+00  0.0000E+00  0.0000E+00  0.0000E+00  0.0000E+00
    -31.894  0.0000E+00  0.0000E+00  0.0000E+00  0.0000E+00  0.0000E+00  0.0000E+00  0.0000E+00  0.0000E+00  0.0000E+00  0.0000E+00  0.0000E+00  0.0000E+00  0.0000E+00  0.0000E+00  0.0000E+00  0.0000E+00  0.0000E+00  0.0000E+00
    -31.732  0.0000E+00  0.0000E+00  0.0000E+00  0.0000E+00  0.0000E+00  0.0000E+00  0.0000E+00  0.0000E+00  0.0000E+00  0.0000E+00  0.0000E+00  0.0000E+00  0.0000E+00  0.0000E+00  0.0000E+00  0.0000E+00  0.0000E+00  0.0000E+00
    -31.570  0.0000E+00  0.0000E+00  0.0000E+00  0.0000E+00  0.0000E+00  0.0000E+00  0.0000E+00  0.0000E+00  0.0000E+00  0.0000E+00  0.0000E+00  0.0000E+00  0.0000E+00  0.0000E+00  0.0000E+00  0.0000E+00  0.0000E+00  0.0000E+00
    -31.408  0.7288E+01  0.7283E+01  0.8909E-04  0.8906E-04  0.1916E-04  0.1914E-04  0.9077E-04  0.9075E-04  0.1033E-06  0.1035E-06  0.1104E-04  0.1103E-04  0.1004E-03  0.1004E-03  0.2527E-05  0.2525E-05  0.5212E-04  0.5201E-04
    -31.246  0.0000E+00  0.0000E+00  0.0000E+00  0.0000E+00  0.0000E+00  0.0000E+00  0.0000E+00  0.0000E+00  0.0000E+00  0.0000E+00  0.0000E+00  0.0000E+00  0.0000E+00  0.0000E+00  0.0000E+00  0.0000E+00  0.0000E+00  0.0000E+00
    -31.084  0.0000E+00  0.0000E+00  0.0000E+00  0.0000E+00  0.0000E+00  0.0000E+00  0.0000E+00  0.0000E+00  0.0000E+00  0.0000E+00  0.0000E+00  0.0000E+00  0.0000E+00  0.0000E+00  0.0000E+00  0.0000E+00  0.0000E+00  0.0000E+00
    -30.922  0.0000E+00  0.0000E+00  0.0000E+00  0.0000E+00  0.0000E+00  0.0000E+00  0.0000E+00  0.0000E+00  0.0000E+00  0.0000E+00  0.0000E+00  0.0000E+00  0.0000E+00  0.0000E+00  0.0000E+00  0.0000E+00  0.0000E+00  0.0000E+00
    -30.760  0.0000E+00  0.0000E+00  0.0000E+00  0.0000E+00  0.0000E+00  0.0000E+00  0.0000E+00  0.0000E+00  0.0000E+00  0.0000E+00  0.0000E+00  0.0000E+00  0.0000E+00  0.0000E+00  0.0000E+00  0.0000E+00  0.0000E+00  0.0000E+00
    -30.598  0.0000E+00  0.0000E+00  0.0000E+00  0.0000E+00  0.0000E+00  0.0000E+00  0.0000E+00  0.0000E+00  0.0000E+00  0.0000E+00  0.0000E+00  0.0000E+00  0.0000E+00  0.0000E+00  0.0000E+00  0.0000E+00  0.0000E+00  0.0000E+00
    -30.437  0.0000E+00  0.0000E+00  0.0000E+00  0.0000E+00  0.0000E+00  0.0000E+00  0.0000E+00  0.0000E+00  0.0000E+00  0.0000E+00  0.0000E+00  0.0000E+00  0.0000E+00  0.0000E+00  0.0000E+00  0.0000E+00  0.0000E+00  0.0000E+00
    -30.275  0.0000E+00  0.0000E+00  0.0000E+00  0.0000E+00  0.0000E+00  0.0000E+00  0.0000E+00  0.0000E+00  0.0000E+00  0.0000E+00  0.0000E+00  0.0000E+00  0.0000E+00  0.0000E+00  0.0000E+00  0.0000E+00  0.0000E+00  0.0000E+00
    -30.113  0.0000E+00  0.0000E+00  0.0000E+00  0.0000E+00  0.0000E+00  0.0000E+00  0.0000E+00  0.0000E+00  0.0000E+00  0.0000E+00  0.0000E+00  0.0000E+00  0.0000E+00  0.0000E+00  0.0000E+00  0.0000E+00  0.0000E+00  0.0000E+00
    -29.951  0.0000E+00  0.0000E+00  0.0000E+00  0.0000E+00  0.0000E+00  0.0000E+00  0.0000E+00  0.0000E+00  0.0000E+00  0.0000E+00  0.0000E+00  0.0000E+00  0.0000E+00  0.0000E+00  0.0000E+00  0.0000E+00  0.0000E+00  0.0000E+00
    -29.789  0.0000E+00  0.0000E+00  0.0000E+00  0.0000E+00  0.0000E+00  0.0000E+00  0.0000E+00  0.0000E+00  0.0000E+00  0.0000E+00  0.0000E+00  0.0000E+00  0.0000E+00  0.0000E+00  0.0000E+00  0.0000E+00  0.0000E+00  0.0000E+00
    -29.627  0.0000E+00  0.0000E+00  0.0000E+00  0.0000E+00  0.0000E+00  0.0000E+00  0.0000E+00  0.0000E+00  0.0000E+00  0.0000E+00  0.0000E+00  0.0000E+00  0.0000E+00  0.0000E+00  0.0000E+00  0.0000E+00  0.0000E+00  0.0000E+00
    -29.465  0.0000E+00  0.0000E+00  0.0000E+00  0.0000E+00  0.0000E+00  0.0000E+00  0.0000E+00  0.0000E+00  0.0000E+00  0.0000E+00  0.0000E+00  0.0000E+00  0.0000E+00  0.0000E+00  0.0000E+00  0.0000E+00  0.0000E+00  0.0000E+00
    -29.303  0.0000E+00  0.0000E+00  0.0000E+00  0.0000E+00  0.0000E+00  0.0000E+00  0.0000E+00  0.0000E+00  0.0000E+00  0.0000E+00  0.0000E+00  0.0000E+00  0.0000E+00  0.0000E+00  0.0000E+00  0.0000E+00  0.0000E+00  0.0000E+00
    -29.141  0.0000E+00  0.0000E+00  0.0000E+00  0.0000E+00  0.0000E+00  0.0000E+00  0.0000E+00  0.0000E+00  0.0000E+00  0.0000E+00  0.0000E+00  0.0000E+00  0.0000E+00  0.0000E+00  0.0000E+00  0.0000E+00  0.0000E+00  0.0000E+00
    -28.979  0.0000E+00  0.0000E+00  0.0000E+00  0.0000E+00  0.0000E+00  0.0000E+00  0.0000E+00  0.0000E+00  0.0000E+00  0.0000E+00  0.0000E+00  0.0000E+00  0.0000E+00  0.0000E+00  0.0000E+00  0.0000E+00  0.0000E+00  0.0000E+00
    -28.818  0.0000E+00  0.0000E+00  0.0000E+00  0.0000E+00  0.0000E+00  0.0000E+00  0.0000E+00  0.0000E+00  0.0000E+00  0.0000E+00  0.0000E+00  0.0000E+00  0.0000E+00  0.0000E+00  0.0000E+00  0.0000E+00  0.0000E+00  0.0000E+00
    -28.656  0.0000E+00  0.0000E+00  0.0000E+00  0.0000E+00  0.0000E+00  0.0000E+00  0.0000E+00  0.0000E+00  0.0000E+00  0.0000E+00  0.0000E+00  0.0000E+00  0.0000E+00  0.0000E+00  0.0000E+00  0.0000E+00  0.0000E+00  0.0000E+00
    -28.494  0.0000E+00  0.0000E+00  0.0000E+00  0.0000E+00  0.0000E+00  0.0000E+00  0.0000E+00  0.0000E+00  0.0000E+00  0.0000E+00  0.0000E+00  0.0000E+00  0.0000E+00  0.0000E+00  0.0000E+00  0.0000E+00  0.0000E+00  0.0000E+00
    -28.332  0.0000E+00  0.0000E+00  0.0000E+00  0.0000E+00  0.0000E+00  0.0000E+00  0.0000E+00  0.0000E+00  0.0000E+00  0.0000E+00  0.0000E+00  0.0000E+00  0.0000E+00  0.0000E+00  0.0000E+00  0.0000E+00  0.0000E+00  0.0000E+00
    -28.170  0.0000E+00  0.0000E+00  0.0000E+00  0.0000E+00  0.0000E+00  0.0000E+00  0.0000E+00  0.0000E+00  0.0000E+00  0.0000E+00  0.0000E+00  0.0000E+00  0.0000E+00  0.0000E+00  0.0000E+00  0.0000E+00  0.0000E+00  0.0000E+00
    -28.008  0.0000E+00  0.0000E+00  0.0000E+00  0.0000E+00  0.0000E+00  0.0000E+00  0.0000E+00  0.0000E+00  0.0000E+00  0.0000E+00  0.0000E+00  0.0000E+00  0.0000E+00  0.0000E+00  0.0000E+00  0.0000E+00  0.0000E+00  0.0000E+00
    -27.846  0.0000E+00  0.0000E+00  0.0000E+00  0.0000E+00  0.0000E+00  0.0000E+00  0.0000E+00  0.0000E+00  0.0000E+00  0.0000E+00  0.0000E+00  0.0000E+00  0.0000E+00  0.0000E+00  0.0000E+00  0.0000E+00  0.0000E+00  0.0000E+00
    -27.684  0.0000E+00  0.0000E+00  0.0000E+00  0.0000E+00  0.0000E+00  0.0000E+00  0.0000E+00  0.0000E+00  0.0000E+00  0.0000E+00  0.0000E+00  0.0000E+00  0.0000E+00  0.0000E+00  0.0000E+00  0.0000E+00  0.0000E+00  0.0000E+00
    -27.522  0.2749E-03  0.2750E-03  0.1042E-04  0.1042E-04  0.4871E-04  0.4871E-04  0.9411E-05  0.9411E-05  0.1827E-05  0.1827E-05  0.4857E-05  0.4857E-05  0.4857E-05  0.4857E-05  0.4830E-05  0.4829E-05  0.1205E-05  0.1205E-05
    -27.361  0.3492E-03  0.3494E-03  0.2733E-04  0.2732E-04  0.6235E-04  0.6234E-04  0.2655E-04  0.2656E-04  0.1879E-05  0.1879E-05  0.1107E-04  0.1107E-04  0.4975E-05  0.4975E-05  0.1164E-04  0.1164E-04  0.6463E-06  0.6463E-06
    -27.199  0.1781E-03  0.1783E-03  0.1317E-04  0.1316E-04  0.3470E-04  0.3471E-04  0.1284E-04  0.1285E-04  0.2053E-05  0.2055E-05  0.6316E-05  0.6315E-05  0.2653E-05  0.2653E-05  0.6759E-05  0.6759E-05  0.7677E-06  0.7681E-06
    -27.037  0.0000E+00  0.0000E+00  0.0000E+00  0.0000E+00  0.0000E+00  0.0000E+00  0.0000E+00  0.0000E+00  0.0000E+00  0.0000E+00  0.0000E+00  0.0000E+00  0.0000E+00  0.0000E+00  0.0000E+00  0.0000E+00  0.0000E+00  0.0000E+00
    -26.875  0.0000E+00  0.0000E+00  0.0000E+00  0.0000E+00  0.0000E+00  0.0000E+00  0.0000E+00  0.0000E+00  0.0000E+00  0.0000E+00  0.0000E+00  0.0000E+00  0.0000E+00  0.0000E+00  0.0000E+00  0.0000E+00  0.0000E+00  0.0000E+00
    -26.713  0.0000E+00  0.0000E+00  0.0000E+00  0.0000E+00  0.0000E+00  0.0000E+00  0.0000E+00  0.0000E+00  0.0000E+00  0.0000E+00  0.0000E+00  0.0000E+00  0.0000E+00  0.0000E+00  0.0000E+00  0.0000E+00  0.0000E+00  0.0000E+00
    -26.551  0.0000E+00  0.0000E+00  0.0000E+00  0.0000E+00  0.0000E+00  0.0000E+00  0.0000E+00  0.0000E+00  0.0000E+00  0.0000E+00  0.0000E+00  0.0000E+00  0.0000E+00  0.0000E+00  0.0000E+00  0.0000E+00  0.0000E+00  0.0000E+00
    -26.389  0.0000E+00  0.0000E+00  0.0000E+00  0.0000E+00  0.0000E+00  0.0000E+00  0.0000E+00  0.0000E+00  0.0000E+00  0.0000E+00  0.0000E+00  0.0000E+00  0.0000E+00  0.0000E+00  0.0000E+00  0.0000E+00  0.0000E+00  0.0000E+00
    -26.227  0.0000E+00  0.0000E+00  0.0000E+00  0.0000E+00  0.0000E+00  0.0000E+00  0.0000E+00  0.0000E+00  0.0000E+00  0.0000E+00  0.0000E+00  0.0000E+00  0.0000E+00  0.0000E+00  0.0000E+00  0.0000E+00  0.0000E+00  0.0000E+00
    -26.065  0.0000E+00  0.0000E+00  0.0000E+00  0.0000E+00  0.0000E+00  0.0000E+00  0.0000E+00  0.0000E+00  0.0000E+00  0.0000E+00  0.0000E+00  0.0000E+00  0.0000E+00  0.0000E+00  0.0000E+00  0.0000E+00  0.0000E+00  0.0000E+00
    -25.904  0.0000E+00  0.0000E+00  0.0000E+00  0.0000E+00  0.0000E+00  0.0000E+00  0.0000E+00  0.0000E+00  0.0000E+00  0.0000E+00  0.0000E+00  0.0000E+00  0.0000E+00  0.0000E+00  0.0000E+00  0.0000E+00  0.0000E+00  0.0000E+00
    -25.742  0.0000E+00  0.0000E+00  0.0000E+00  0.0000E+00  0.0000E+00  0.0000E+00  0.0000E+00  0.0000E+00  0.0000E+00  0.0000E+00  0.0000E+00  0.0000E+00  0.0000E+00  0.0000E+00  0.0000E+00  0.0000E+00  0.0000E+00  0.0000E+00
    -25.580  0.0000E+00  0.0000E+00  0.0000E+00  0.0000E+00  0.0000E+00  0.0000E+00  0.0000E+00  0.0000E+00  0.0000E+00  0.0000E+00  0.0000E+00  0.0000E+00  0.0000E+00  0.0000E+00  0.0000E+00  0.0000E+00  0.0000E+00  0.0000E+00