   10   10   99    2
  0.8639281E+01  0.3402065E-09  0.3402740E-09  0.7836338E-09  0.5000000E-15
  1.000000000000000E-004
  CAR 
 unknown system                          
     39     74     32
 
  0.3742002E-15  0.3742002E-15  0.3742002E-15  0.6802721E-02
    1      -31.466743    -31.466714   1.000000   1.000000
    2      -27.542521    -27.542524   1.000000   1.000000
    3      -27.330339    -27.330337   1.000000   1.000000
    4      -27.324854    -27.324856   1.000000   1.000000
    5      -27.158188    -27.158184   1.000000   1.000000
    6      -27.156124    -27.156122   1.000000   1.000000
    7      -27.144688    -27.144688   1.000000   1.000000
    8      -13.600835    -13.600832   1.000000   1.000000
    9      -13.218352    -13.218352   1.000000   1.000000
   10      -13.218312    -13.218304   1.000000   1.000000
   11       -5.665839     -5.665831   1.000000   1.000000
   12       -3.004292     -3.004292   1.000000   1.000000
   13       -2.849286     -2.849285   1.000000   1.000000
   14       -2.079841     -2.079838   1.000000   1.000000
   15       -0.543200     -0.543200   1.000000   1.000000
   16        0.698586      0.698585   1.000000   1.000000
   17        2.901842      2.901844   1.000000   1.000000
   18        3.343510      3.343511   1.000000   1.000000
   19        3.351092      3.351091   1.000000   1.000000
   20        3.746036      3.746034   0.661673   0.661677
   21        5.067917      5.067910   0.000000   0.000000
   22        5.093120      5.093119   0.000000   0.000000
   23        5.285247      5.285250   0.000000   0.000000
   24        5.288015      5.288011   0.000000   0.000000
   25        5.924979      5.924979   0.000000   0.000000
   26        6.348914      6.348913   0.000000   0.000000
   27        8.529125      8.529130   0.000000   0.000000
   28        8.530529      8.530525   0.000000   0.000000
   29       10.162700     10.162685   0.000000   0.000000
   30       10.803295     10.803291   0.000000   0.000000
   31       11.109356     11.109346   0.000000   0.000000
   32       12.684268     12.685524   0.000000   0.000000
 
  0.1428571E+00  0.3738329E-15  0.3538836E-15  0.1360544E-01
    1      -31.451519    -31.451489   1.000000   1.000000
    2      -27.540128    -27.540132   1.000000   1.000000
    3      -27.382617    -27.382619   1.000000   1.000000
    4      -27.317898    -27.317895   1.000000   1.000000
    5      -27.189815    -27.189816   1.000000   1.000000
    6      -27.153706    -27.153703   1.000000   1.000000
    7      -27.140600    -27.140596   1.000000   1.000000
    8      -13.569762    -13.569759   1.000000   1.000000
    9      -13.409495    -13.409486   1.000000   1.000000
   10      -13.202694    -13.202694   1.000000   1.000000
   11       -5.336500     -5.336497   1.000000   1.000000
   12       -3.008831     -3.008831   1.000000   1.000000
   13       -2.692122     -2.692121   1.000000   1.000000
   14       -1.823138     -1.823135   1.000000   1.000000
   15       -0.542637     -0.542637   1.000000   1.000000
   16        0.596895      0.596893   1.000000   1.000000
   17        1.792089      1.792088   1.000000   1.000000
   18        2.859234      2.859237   1.000000   1.000000
   19        3.389453      3.389454   1.000000   1.000000
   20        4.471830      4.471830  -0.063008  -0.063009
   21        4.930157      4.930153   0.000000   0.000000
   22        5.668010      5.668009   0.000000   0.000000
   23        5.672938      5.672939   0.000000   0.000000
   24        5.898697      5.898698   0.000000   0.000000
   25        5.915856      5.915856   0.000000   0.000000
   26        6.203944      6.203938   0.000000   0.000000
   27        8.376417      8.376413   0.000000   0.000000
   28        9.052972      9.052969   0.000000   0.000000
   29        9.961790      9.961787   0.000000   0.000000
   30       10.255475     10.255466   0.000000   0.000000
   31       10.597810     10.597805   0.000000   0.000000
   32       11.714020     11.714023   0.000000   0.000000
 
  0.2857143E+00  0.3755676E-15  0.3469447E-15  0.1360544E-01
    1      -31.417033    -31.416995   1.000000   1.000000
    2      -27.549698    -27.549702   1.000000   1.000000
    3      -27.484099    -27.484101   1.000000   1.000000
    4      -27.293569    -27.293566   1.000000   1.000000
    5      -27.252863    -27.252865   1.000000   1.000000
    6      -27.166496    -27.166492   1.000000   1.000000
    7      -27.128266    -27.128262   1.000000   1.000000
    8      -13.812763    -13.812757   1.000000   1.000000
    9      -13.493529    -13.493526   1.000000   1.000000
   10      -13.167199    -13.167199   1.000000   1.000000
   11       -4.536240     -4.536240   1.000000   1.000000
   12       -3.178282     -3.178282   1.000000   1.000000
   13       -2.217176     -2.217175   1.000000   1.000000
   14       -1.334425     -1.334419   1.000000   1.000000
   15       -0.624823     -0.624825   1.000000   1.000000
   16        0.450909      0.450908   1.000000   1.000000
   17        0.807893      0.807893   1.000000   1.000000
   18        2.993056      2.993059   1.000000   1.000000
   19        3.401666      3.401667   1.000000   1.000000
   20        3.807328      3.807329   0.913976   0.913976
   21        5.028297      5.028298   0.000000   0.000000
   22        5.459561      5.459561   0.000000   0.000000
   23        5.814936      5.814936   0.000000   0.000000
   24        6.105180      6.105181   0.000000   0.000000
   25        6.699513      6.699513   0.000000   0.000000
   26        7.497190      7.497188   0.000000   0.000000
   27        8.659910      8.659907   0.000000   0.000000
   28        9.049305      9.049296   0.000000   0.000000
   29        9.331838      9.331836   0.000000   0.000000
   30        9.709083      9.709079   0.000000   0.000000
   31       10.254859     10.254867   0.000000   0.000000
   32       10.999133     10.999119   0.000000   0.000000
 
  0.4285714E+00  0.3712308E-15  0.2775558E-15  0.1360544E-01
    1      -31.389086    -31.389056   1.000000   1.000000
    2      -27.578724    -27.578727   1.000000   1.000000
    3      -27.556073    -27.556075   1.000000   1.000000
    4      -27.279149    -27.279151   1.000000   1.000000
    5      -27.268170    -27.268167   1.000000   1.000000
    6      -27.181742    -27.181738   1.000000   1.000000
    7      -27.129025    -27.129020   1.000000   1.000000
    8      -14.108824    -14.108818   1.000000   1.000000
    9      -13.432569    -13.432566   1.000000   1.000000
   10      -13.138408    -13.138408   1.000000   1.000000
   11       -3.847205     -3.847206   1.000000   1.000000
   12       -3.297505     -3.297504   1.000000   1.000000
   13       -1.840740     -1.840737   1.000000   1.000000
   14       -1.053931     -1.053933   1.000000   1.000000
   15       -0.807232     -0.807231   1.000000   1.000000
   16        0.104083      0.104083   1.000000   1.000000
   17        0.933223      0.933222   1.000000   1.000000
   18        3.165366      3.165370   1.000000   1.000000
   19        3.306189      3.306190   1.000000   1.000000
   20        3.415673      3.415674   1.000000   1.000000
   21        5.221761      5.221765   0.000000   0.000000
   22        5.442342      5.442342   0.000000   0.000000
   23        5.762592      5.762592   0.000000   0.000000
   24        6.323245      6.323244   0.000000   0.000000
   25        6.512981      6.512982   0.000000   0.000000
   26        6.930099      6.930101   0.000000   0.000000
   27        8.357873      8.357864   0.000000   0.000000
   28        9.457290      9.457292   0.000000   0.000000
   29        9.888810      9.888806   0.000000   0.000000
   30        9.983912      9.983910   0.000000   0.000000
   31       10.182696     10.182698   0.000000   0.000000
   32       11.332337     11.332256   0.000000   0.000000
 
  0.3743750E-15  0.1428571E+00  0.3851086E-15  0.1360544E-01
    1      -31.451524    -31.451495   1.000000   1.000000
    2      -27.540132    -27.540135   1.000000   1.000000
    3      -27.382655    -27.382652   1.000000   1.000000
    4      -27.317850    -27.317852   1.000000   1.000000
    5      -27.189845    -27.189841   1.000000   1.000000
    6      -27.153660    -27.153661   1.000000   1.000000
    7      -27.140610    -27.140606   1.000000   1.000000
    8      -13.569766    -13.569763   1.000000   1.000000
    9      -13.409488    -13.409489   1.000000   1.000000
   10      -13.202663    -13.202653   1.000000   1.000000
   11       -5.336584     -5.336579   1.000000   1.000000
   12       -3.007941     -3.007940   1.000000   1.000000
   13       -2.692503     -2.692503   1.000000   1.000000
   14       -1.823461     -1.823459   1.000000   1.000000
   15       -0.542904     -0.542904   1.000000   1.000000
   16        0.596730      0.596728   1.000000   1.000000
   17        1.792138      1.792137   1.000000   1.000000
   18        2.859600      2.859603   1.000000   1.000000
   19        3.389710      3.389710   1.000000   1.000000
   20        4.471978      4.471977  -0.063133  -0.063134
   21        4.929498      4.929491   0.000000   0.000000
   22        5.670341      5.670339   0.000000   0.000000
   23        5.673425      5.673425   0.000000   0.000000
   24        5.898073      5.898074   0.000000   0.000000
   25        5.914935      5.914934   0.000000   0.000000
   26        6.202572      6.202571   0.000000   0.000000
   27        8.376001      8.376000   0.000000   0.000000
   28        9.053351      9.053345   0.000000   0.000000
   29        9.961244      9.961239   0.000000   0.000000
   30       10.255626     10.255618   0.000000   0.000000
   31       10.598885     10.598884   0.000000   0.000000
   32       11.711768     11.711769   0.000000   0.000000
 
  0.1428571E+00  0.1428571E+00  0.3712308E-15  0.1360544E-01
    1      -31.436474    -31.436446   1.000000   1.000000
    2      -27.535062    -27.535065   1.000000   1.000000
    3      -27.379920    -27.379918   1.000000   1.000000
    4      -27.368599    -27.368600   1.000000   1.000000
    5      -27.194859    -27.194858   1.000000   1.000000
    6      -27.184178    -27.184176   1.000000   1.000000
    7      -27.129648    -27.129645   1.000000   1.000000
    8      -13.538907    -13.538904   1.000000   1.000000
    9      -13.410243    -13.410237   1.000000   1.000000
   10      -13.368012    -13.368010   1.000000   1.000000
   11       -5.036227     -5.036226   1.000000   1.000000
   12       -2.737329     -2.737329   1.000000   1.000000
   13       -2.614184     -2.614185   1.000000   1.000000
   14       -1.777300     -1.777294   1.000000   1.000000
   15       -0.541189     -0.541189   1.000000   1.000000
   16        0.470321      0.470319   1.000000   1.000000
   17        1.099960      1.099960   1.000000   1.000000
   18        2.631893      2.631895   1.000000   1.000000
   19        3.736758      3.736760   1.000000   1.000000
   20        4.313141      4.313141   0.052035   0.052033
   21        4.962401      4.962401   0.000000   0.000000
   22        5.556518      5.556518   0.000000   0.000000
   23        5.950069      5.950067   0.000000   0.000000
   24        6.082172      6.082172   0.000000   0.000000
   25        6.205426      6.205424   0.000000   0.000000
   26        6.607150      6.607145   0.000000   0.000000
   27        8.619267      8.619266   0.000000   0.000000
   28        8.796341      8.796339   0.000000   0.000000
   29        9.378138      9.378133   0.000000   0.000000
   30       10.646149     10.646144   0.000000   0.000000
   31       10.673115     10.673112   0.000000   0.000000
   32       11.589127     11.588976   0.000000   0.000000
 
  0.2857143E+00  0.1428571E+00  0.3608225E-15  0.1360544E-01
    1      -31.402361    -31.402331   1.000000   1.000000
    2      -27.538606    -27.538609   1.000000   1.000000
    3      -27.479135    -27.479137   1.000000   1.000000
    4      -27.355857    -27.355855   1.000000   1.000000
    5      -27.245559    -27.245559   1.000000   1.000000
    6      -27.199439    -27.199435   1.000000   1.000000
    7      -27.122695    -27.122691   1.000000   1.000000
    8      -13.785321    -13.785313   1.000000   1.000000
    9      -13.464186    -13.464183   1.000000   1.000000
   10      -13.342179    -13.342180   1.000000   1.000000
   11       -4.244976     -4.244975   1.000000   1.000000
   12       -2.845818     -2.845818   1.000000   1.000000
   13       -2.093352     -2.093353   1.000000   1.000000
   14       -1.434892     -1.434889   1.000000   1.000000
   15       -0.640652     -0.640652   1.000000   1.000000
   16        0.156814      0.156814   1.000000   1.000000
   17        0.431551      0.431549   1.000000   1.000000
   18        2.600999      2.601001   1.000000   1.000000
   19        3.548234      3.548234   1.000000   1.000000
   20        3.838366      3.838369   0.991601   0.991598
   21        5.266294      5.266295   0.000000   0.000000
   22        5.345129      5.345127   0.000000   0.000000
   23        5.943446      5.943447   0.000000   0.000000
   24        6.396506      6.396504   0.000000   0.000000
   25        6.782651      6.782650   0.000000   0.000000
   26        7.877048      7.877042   0.000000   0.000000
   27        8.203585      8.203575   0.000000   0.000000
   28        9.161050      9.161050   0.000000   0.000000
   29        9.660480      9.660480   0.000000   0.000000
   30        9.910054      9.910051   0.000000   0.000000
   31       10.666681     10.666579   0.000000   0.000000
   32       11.005801     11.005760   0.000000   0.000000
 
  0.4285714E+00  0.1428571E+00  0.3191891E-15  0.1360544E-01
    1      -31.374718    -31.374689   1.000000   1.000000
    2      -27.565088    -27.565090   1.000000   1.000000
    3      -27.552145    -27.552148   1.000000   1.000000
    4      -27.344326    -27.344326   1.000000   1.000000
    5      -27.251318    -27.251317   1.000000   1.000000
    6      -27.216949    -27.216945   1.000000   1.000000
    7      -27.128415    -27.128410   1.000000   1.000000
    8      -14.075011    -14.075005   1.000000   1.000000
    9      -13.404905    -13.404902   1.000000   1.000000
   10      -13.306573    -13.306573   1.000000   1.000000
   11       -3.513907     -3.513908   1.000000   1.000000
   12       -3.006965     -3.006964   1.000000   1.000000
   13       -1.728982     -1.728982   1.000000   1.000000
   14       -1.126874     -1.126877   1.000000   1.000000
   15       -0.878241     -0.878240   1.000000   1.000000
   16       -0.214906     -0.214906   1.000000   1.000000
   17        0.535100      0.535099   1.000000   1.000000
   18        2.649499      2.649501   1.000000   1.000000
   19        2.969136      2.969137   1.000000   1.000000
   20        3.736724      3.736726   1.014935   1.014933
   21        5.449620      5.449619   0.000000   0.000000
   22        5.821871      5.821871   0.000000   0.000000
   23        5.947723      5.947726   0.000000   0.000000
   24        6.429996      6.429996   0.000000   0.000000
   25        6.661572      6.661574   0.000000   0.000000
   26        7.335633      7.335633   0.000000   0.000000
   27        8.847073      8.847066   0.000000   0.000000
   28        9.221122      9.221126   0.000000   0.000000
   29        9.432156      9.432157   0.000000   0.000000
   30       10.094155     10.094154   0.000000   0.000000
   31       10.668449     10.668443   0.000000   0.000000
   32       11.467085     11.466565   0.000000   0.000000
 
 -0.4285714E+00  0.1428571E+00  0.3608225E-15  0.1360544E-01
    1      -31.374721    -31.374683   1.000000   1.000000
    2      -27.565355    -27.565358   1.000000   1.000000
    3      -27.551883    -27.551885   1.000000   1.000000
    4      -27.342881    -27.342881   1.000000   1.000000
    5      -27.256000    -27.256000   1.000000   1.000000
    6      -27.213307    -27.213303   1.000000   1.000000
    7      -27.128822    -27.128816   1.000000   1.000000
    8      -14.074957    -14.074951   1.000000   1.000000
    9      -13.404931    -13.404927   1.000000   1.000000
   10      -13.306666    -13.306666   1.000000   1.000000
   11       -3.541072     -3.541073   1.000000   1.000000
   12       -2.979691     -2.979689   1.000000   1.000000
   13       -1.688288     -1.688285   1.000000   1.000000
   14       -1.173580     -1.173578   1.000000   1.000000
   15       -0.859698     -0.859698   1.000000   1.000000
   16       -0.228197     -0.228197   1.000000   1.000000
   17        0.517613      0.517612   1.000000   1.000000
   18        2.703437      2.703438   1.000000   1.000000
   19        2.957865      2.957867   1.000000   1.000000
   20        3.735003      3.735005   1.004945   1.004944
   21        5.388257      5.388257   0.000000   0.000000
   22        5.876321      5.876322   0.000000   0.000000
   23        5.992856      5.992861   0.000000   0.000000
   24        6.451393      6.451394   0.000000   0.000000
   25        6.687879      6.687879   0.000000   0.000000
   26        7.163517      7.163518   0.000000   0.000000
   27        8.779999      8.779992   0.000000   0.000000
   28        9.194936      9.194937   0.000000   0.000000
   29        9.445560      9.445565   0.000000   0.000000
   30       10.301418     10.301438   0.000000   0.000000
   31       10.627971     10.627967   0.000000   0.000000
   32       11.362444     11.362421   0.000000   0.000000
 
 -0.2857143E+00  0.1428571E+00  0.4024558E-15  0.1360544E-01
    1      -31.402360    -31.402331   1.000000   1.000000
    2      -27.540134    -27.540137   1.000000   1.000000
    3      -27.477293    -27.477295   1.000000   1.000000
    4      -27.353415    -27.353412   1.000000   1.000000
    5      -27.253358    -27.253358   1.000000   1.000000
    6      -27.193782    -27.193779   1.000000   1.000000
    7      -27.123323    -27.123319   1.000000   1.000000
    8      -13.785252    -13.785245   1.000000   1.000000
    9      -13.464544    -13.464541   1.000000   1.000000
   10      -13.342348    -13.342348   1.000000   1.000000
   11       -4.204006     -4.204005   1.000000   1.000000
   12       -2.910539     -2.910538   1.000000   1.000000
   13       -2.202031     -2.202030   1.000000   1.000000
   14       -1.250529     -1.250528   1.000000   1.000000
   15       -0.666494     -0.666496   1.000000   1.000000
   16        0.126119      0.126118   1.000000   1.000000
   17        0.413622      0.413621   1.000000   1.000000
   18        2.717861      2.717864   1.000000   1.000000
   19        3.524510      3.524510   1.000000   1.000000
   20        3.842748      3.842750   0.808490   0.808486
   21        5.232878      5.232878   0.000000   0.000000
   22        5.353147      5.353147   0.000000   0.000000
   23        5.826236      5.826237   0.000000   0.000000
   24        6.420492      6.420493   0.000000   0.000000
   25        6.866134      6.866133   0.000000   0.000000
   26        7.826820      7.826820   0.000000   0.000000
   27        8.151772      8.151766   0.000000   0.000000
   28        9.217476      9.217473   0.000000   0.000000
   29        9.464551      9.464551   0.000000   0.000000
   30        9.866509      9.866505   0.000000   0.000000
   31       10.741779     10.741772   0.000000   0.000000
   32       11.009793     11.009747   0.000000   0.000000
 
 -0.1428571E+00  0.1428571E+00  0.4024558E-15  0.1360544E-01
    1      -31.436474    -31.436445   1.000000   1.000000
    2      -27.536129    -27.536132   1.000000   1.000000
    3      -27.374269    -27.374270   1.000000   1.000000
    4      -27.371264    -27.371261   1.000000   1.000000
    5      -27.207695    -27.207694   1.000000   1.000000
    6      -27.173045    -27.173045   1.000000   1.000000
    7      -27.129862    -27.129858   1.000000   1.000000
    8      -13.539501    -13.539498   1.000000   1.000000
    9      -13.410158    -13.410156   1.000000   1.000000
   10      -13.368225    -13.368219   1.000000   1.000000
   11       -4.992073     -4.992070   1.000000   1.000000
   12       -2.840720     -2.840718   1.000000   1.000000
   13       -2.739776     -2.739776   1.000000   1.000000
   14       -1.550062     -1.550060   1.000000   1.000000
   15       -0.530050     -0.530050   1.000000   1.000000
   16        0.396966      0.396965   1.000000   1.000000
   17        1.090725      1.090724   1.000000   1.000000
   18        2.727155      2.727158   1.000000   1.000000
   19        3.745362      3.745363   1.000000   1.000000
   20        4.309158      4.309159  -0.009974  -0.009975
   21        4.937532      4.937528   0.000000   0.000000
   22        5.555296      5.555296   0.000000   0.000000
   23        5.650214      5.650211   0.000000   0.000000
   24        6.020860      6.020860   0.000000   0.000000
   25        6.577598      6.577600   0.000000   0.000000
   26        6.628885      6.628882   0.000000   0.000000
   27        8.704138      8.704134   0.000000   0.000000
   28        8.710500      8.710501   0.000000   0.000000
   29        9.460342      9.460340   0.000000   0.000000
   30       10.485933     10.485929   0.000000   0.000000
   31       10.523122     10.523119   0.000000   0.000000
   32       11.295088     11.295101   0.000000   0.000000
 
  0.3738329E-15  0.2857143E+00  0.3747003E-15  0.1360544E-01
    1      -31.417039    -31.417010   1.000000   1.000000
    2      -27.549711    -27.549714   1.000000   1.000000
    3      -27.484118    -27.484114   1.000000   1.000000
    4      -27.293522    -27.293526   1.000000   1.000000
    5      -27.252869    -27.252867   1.000000   1.000000
    6      -27.166457    -27.166457   1.000000   1.000000
    7      -27.128272    -27.128267   1.000000   1.000000
    8      -13.812669    -13.812670   1.000000   1.000000
    9      -13.493548    -13.493545   1.000000   1.000000
   10      -13.167183    -13.167173   1.000000   1.000000
   11       -4.536501     -4.536499   1.000000   1.000000
   12       -3.176892     -3.176891   1.000000   1.000000
   13       -2.218085     -2.218083   1.000000   1.000000
   14       -1.334239     -1.334238   1.000000   1.000000
   15       -0.625262     -0.625263   1.000000   1.000000
   16        0.450704      0.450703   1.000000   1.000000
   17        0.807586      0.807585   1.000000   1.000000
   18        2.993688      2.993692   1.000000   1.000000
   19        3.401859      3.401859   1.000000   1.000000
   20        3.807663      3.807663   0.913798   0.913798
   21        5.028110      5.028101   0.000000   0.000000
   22        5.459504      5.459504   0.000000   0.000000
   23        5.815346      5.815344   0.000000   0.000000
   24        6.105423      6.105424   0.000000   0.000000
   25        6.697759      6.697759   0.000000   0.000000
   26        7.496385      7.496382   0.000000   0.000000
   27        8.660855      8.660851   0.000000   0.000000
   28        9.049138      9.049129   0.000000   0.000000
   29        9.332256      9.332251   0.000000   0.000000
   30        9.709653      9.709646   0.000000   0.000000
   31       10.252484     10.252494   0.000000   0.000000
   32       10.998571     10.998834   0.000000   0.000000
 
  0.1428571E+00  0.2857143E+00  0.3573530E-15  0.1360544E-01
    1      -31.402374    -31.402345   1.000000   1.000000
    2      -27.538616    -27.538618   1.000000   1.000000
    3      -27.479149    -27.479145   1.000000   1.000000
    4      -27.355830    -27.355833   1.000000   1.000000
    5      -27.245557    -27.245555   1.000000   1.000000
    6      -27.199415    -27.199415   1.000000   1.000000
    7      -27.122695    -27.122691   1.000000   1.000000
    8      -13.785220    -13.785221   1.000000   1.000000
    9      -13.464196    -13.464193   1.000000   1.000000
   10      -13.342209    -13.342201   1.000000   1.000000
   11       -4.245113     -4.245111   1.000000   1.000000
   12       -2.844879     -2.844878   1.000000   1.000000
   13       -2.093329     -2.093328   1.000000   1.000000
   14       -1.435448     -1.435447   1.000000   1.000000
   15       -0.641261     -0.641261   1.000000   1.000000
   16        0.156856      0.156857   1.000000   1.000000
   17        0.431500      0.431498   1.000000   1.000000
   18        2.601256      2.601259   1.000000   1.000000
   19        3.548456      3.548456   1.000000   1.000000
   20        3.838912      3.838915   0.991168   0.991166
   21        5.265545      5.265544   0.000000   0.000000
   22        5.345229      5.345227   0.000000   0.000000
   23        5.944189      5.944184   0.000000   0.000000
   24        6.396174      6.396171   0.000000   0.000000
   25        6.782496      6.782495   0.000000   0.000000
   26        7.876519      7.876514   0.000000   0.000000
   27        8.202234      8.202228   0.000000   0.000000
   28        9.162257      9.162256   0.000000   0.000000
   29        9.659023      9.659022   0.000000   0.000000
   30        9.909074      9.909069   0.000000   0.000000
   31       10.667418     10.667396   0.000000   0.000000
   32       11.006961     11.006383   0.000000   0.000000
 
  0.2857143E+00  0.2857143E+00  0.3538836E-15  0.1360544E-01
    1      -31.369109    -31.369080   1.000000   1.000000
    2      -27.527880    -27.527883   1.000000   1.000000
    3      -27.490055    -27.490053   1.000000   1.000000
    4      -27.435713    -27.435715   1.000000   1.000000
    5      -27.262055    -27.262053   1.000000   1.000000
    6      -27.246418    -27.246416   1.000000   1.000000
    7      -27.125534    -27.125530   1.000000   1.000000
    8      -13.748913    -13.748908   1.000000   1.000000
    9      -13.686659    -13.686658   1.000000   1.000000
   10      -13.396147    -13.396144   1.000000   1.000000
   11       -3.477224     -3.477223   1.000000   1.000000
   12       -2.137486     -2.137486   1.000000   1.000000
   13       -2.135758     -2.135759   1.000000   1.000000
   14       -1.404678     -1.404676   1.000000   1.000000
   15       -0.796890     -0.796891   1.000000   1.000000
   16       -0.296333     -0.296331   1.000000   1.000000
   17       -0.070368     -0.070373   1.000000   1.000000
   18        2.151763      2.151766   1.000000   1.000000
   19        2.867433      2.867434   1.000000   1.000000
   20        4.185918      4.185922   0.262595   0.262584
   21        5.389144      5.389146   0.000000   0.000000
   22        5.668191      5.668189   0.000000   0.000000
   23        6.385193      6.385191   0.000000   0.000000
   24        6.496750      6.496749   0.000000   0.000000
   25        7.510185      7.510182   0.000000   0.000000
   26        7.869384      7.869380   0.000000   0.000000
   27        8.445475      8.445480   0.000000   0.000000
   28        9.554603      9.554601   0.000000   0.000000
   29        9.951446      9.951446   0.000000   0.000000
   30        9.964152      9.964153   0.000000   0.000000
   31       10.427993     10.428095   0.000000   0.000000
   32       10.544811     10.544815   0.000000   0.000000
 
  0.4285714E+00  0.2857143E+00  0.3469447E-15  0.1360544E-01
    1      -31.342180    -31.342150   1.000000   1.000000
    2      -27.555004    -27.555006   1.000000   1.000000
    3      -27.546373    -27.546374   1.000000   1.000000
    4      -27.424495    -27.424497   1.000000   1.000000
    5      -27.272727    -27.272723   1.000000   1.000000
    6      -27.264934    -27.264934   1.000000   1.000000
    7      -27.138997    -27.138992   1.000000   1.000000
    8      -13.997492    -13.997486   1.000000   1.000000
    9      -13.663788    -13.663789   1.000000   1.000000
   10      -13.341017    -13.341014   1.000000   1.000000
   11       -2.734471     -2.734472   1.000000   1.000000
   12       -2.320190     -2.320190   1.000000   1.000000
   13       -1.719303     -1.719305   1.000000   1.000000
   14       -1.196446     -1.196446   1.000000   1.000000
   15       -0.998104     -0.998104   1.000000   1.000000
   16       -0.567244     -0.567244   1.000000   1.000000
   17       -0.169398     -0.169400   1.000000   1.000000
   18        1.885069      1.885071   1.000000   1.000000
   19        2.205215      2.205216   1.000000   1.000000
   20        4.268104      4.268107   0.072277   0.072275
   21        5.683735      5.683735   0.000000   0.000000
   22        6.242936      6.242934   0.000000   0.000000
   23        6.438314      6.438315   0.000000   0.000000
   24        6.597666      6.597667   0.000000   0.000000
   25        7.615452      7.615453   0.000000   0.000000
   26        8.374267      8.374270   0.000000   0.000000
   27        8.644005      8.644012   0.000000   0.000000
   28        8.987169      8.987166   0.000000   0.000000
   29        9.250080      9.250090   0.000000   0.000000
   30        9.997916      9.997915   0.000000   0.000000
   31       10.816169     10.816153   0.000000   0.000000
   32       11.599142     11.598670   0.000000   0.000000
 
 -0.4285714E+00  0.2857143E+00  0.4718448E-15  0.1360544E-01
    1      -31.342179    -31.342149   1.000000   1.000000
    2      -27.556859    -27.556860   1.000000   1.000000
    3      -27.544462    -27.544464   1.000000   1.000000
    4      -27.424430    -27.424430   1.000000   1.000000
    5      -27.279201    -27.279198   1.000000   1.000000
    6      -27.258096    -27.258096   1.000000   1.000000
    7      -27.139478    -27.139472   1.000000   1.000000
    8      -13.997516    -13.997510   1.000000   1.000000
    9      -13.663983    -13.663984   1.000000   1.000000
   10      -13.341208    -13.341204   1.000000   1.000000
   11       -2.744966     -2.744967   1.000000   1.000000
   12       -2.297216     -2.297215   1.000000   1.000000
   13       -1.710543     -1.710545   1.000000   1.000000
   14       -1.142374     -1.142376   1.000000   1.000000
   15       -1.006327     -1.006325   1.000000   1.000000
   16       -0.639562     -0.639562   1.000000   1.000000