 running on   32 total cores
 distrk:  each k-point on   32 cores,    1 groups
 distr:  one band on    8 cores,    4 groups
 using from now: INCAR     
 vasp.5.4.4.18Apr17-6-g9f103f2a35 (build Nov 01 2019 12:17:22) complex          
  
 POSCAR found type information on POSCAR  H  Nb H  Nb H  Nb H  Sr
 POSCAR found :  8 types and      22 ions

 ----------------------------------------------------------------------------- 
|                                                                             |
|  ADVICE TO THIS USER RUNNING 'VASP/VAMP'   (HEAR YOUR MASTER'S VOICE ...):  |
|                                                                             |
|      You have a (more or less) 'large supercell' and for larger cells       |
|      it might be more efficient to use real space projection opertators     |
|      So try LREAL= Auto  in the INCAR   file.                               |
|      Mind:          For very  accurate calculation you might also keep the  |
|      reciprocal projection scheme          (i.e. LREAL=.FALSE.)             |
|                                                                             |
 ----------------------------------------------------------------------------- 

 LDA part: xc-table for Pade appr. of Perdew
 generate k-points for:    8    7    7
 POSCAR, INCAR and KPOINTS ok, starting setup
 FFT: planning ...
 WAVECAR not read
 entering main loop
       N       E                     dE             d eps       ncg     rms          rms(c)
DAV:   1     0.324204591886E+03    0.32420E+03   -0.19468E+04 17800   0.784E+02
DAV:   2    -0.756975111576E+02   -0.39990E+03   -0.38393E+03 21552   0.356E+02
DAV:   3    -0.986977064858E+02   -0.23000E+02   -0.22705E+02 26952   0.784E+01
DAV:   4    -0.996468700716E+02   -0.94916E+00   -0.94578E+00 30040   0.138E+01
DAV:   5    -0.996693056587E+02   -0.22436E-01   -0.22423E-01 28800   0.188E+00    0.550E+01
DAV:   6    -0.940225512058E+02    0.56468E+01   -0.14114E+01 25560   0.230E+01    0.202E+01
DAV:   7    -0.933225783619E+02    0.69997E+00   -0.20376E+00 22688   0.701E+00    0.961E+00
DAV:   8    -0.932550009079E+02    0.67577E-01   -0.53202E-01 28800   0.468E+00    0.235E+00
DAV:   9    -0.932576600079E+02   -0.26591E-02   -0.85011E-02 29688   0.216E+00    0.166E+00
DAV:  10    -0.932564252027E+02    0.12348E-02   -0.10344E-02 24936   0.630E-01    0.897E-01
DAV:  11    -0.932576175698E+02   -0.11924E-02   -0.53130E-03 24304   0.364E-01    0.128E-01
DAV:  12    -0.932576430364E+02   -0.25467E-04   -0.58592E-04 22592   0.187E-01
   1 F= -.93257643E+02 E0= -.93257696E+02  d E =-.932576E+02
 curvature:   0.00 expect dE= 0.000E+00 dE for cont linesearch  0.000E+00
 trial: gam= 0.00000 g(F)=  0.241E-03 g(S)=  0.433E-04 ort = 0.000E+00 (trialstep = 0.100E+01)
 search vector abs. value=  0.284E-03
 bond charge predicted
       N       E                     dE             d eps       ncg     rms          rms(c)
DAV:   1    -0.932577198310E+02   -0.10226E-03   -0.15799E-02 20488   0.931E-01    0.878E-02
DAV:   2    -0.932579324086E+02   -0.21258E-03   -0.24932E-03 18952   0.268E-01    0.416E-02
DAV:   3    -0.932579384315E+02   -0.60229E-05   -0.52965E-05 15704   0.612E-02
   2 F= -.93257938E+02 E0= -.93257991E+02  d E =-.295395E-03
 trial-energy change:   -0.000295  1 .order   -0.000209   -0.000284   -0.000133
 step:   1.8818(harm=  1.8818)  dis= 0.00219  next Energy=   -93.257910 (dE=-0.267E-03)
 bond charge predicted
       N       E                     dE             d eps       ncg     rms          rms(c)
DAV:   1    -0.932578561706E+02    0.76238E-04   -0.12145E-02 20536   0.815E-01    0.632E-02
DAV:   2    -0.932580010638E+02   -0.14489E-03   -0.19152E-03 18912   0.229E-01    0.357E-02
DAV:   3    -0.932579980917E+02    0.29721E-05   -0.32956E-05 15096   0.398E-02
   3 F= -.93257998E+02 E0= -.93258050E+02  d E =-.355055E-03
 curvature:  -0.94 expect dE=-0.579E-03 dE for cont linesearch -0.954E-08
 trial: gam= 2.15833 g(F)=  0.568E-03 g(S)=  0.465E-04 ort = 0.170E-05 (trialstep = 0.172E+00)
 search vector abs. value=  0.195E-02
 reached required accuracy - stopping structural energy minimisation
