       N       E                     dE             d eps       ncg     rms          rms(c)
DAV:   1     0.339654952416E+03    0.33965E+03   -0.19978E+04 20480   0.776E+02
DAV:   2    -0.623549634757E+02   -0.40201E+03   -0.38352E+03 24172   0.359E+02
DAV:   3    -0.872150590638E+02   -0.24860E+02   -0.24382E+02 30304   0.809E+01
DAV:   4    -0.883781251248E+02   -0.11631E+01   -0.11592E+01 33872   0.147E+01
DAV:   5    -0.884025538954E+02   -0.24429E-01   -0.24416E-01 31504   0.200E+00    0.648E+01
DAV:   6    -0.833723090759E+02    0.50302E+01   -0.13237E+01 30760   0.222E+01    0.264E+01
DAV:   7    -0.825557295885E+02    0.81658E+00   -0.32883E+00 26744   0.969E+00    0.129E+01
DAV:   8    -0.824888220706E+02    0.66908E-01   -0.77801E-01 29464   0.677E+00    0.282E+00
DAV:   9    -0.824728074448E+02    0.16015E-01   -0.10603E-01 29872   0.304E+00    0.176E+00
DAV:  10    -0.824704263312E+02    0.23811E-02   -0.31915E-02 34520   0.115E+00    0.716E-01
DAV:  11    -0.824718785978E+02   -0.14523E-02   -0.62552E-03 26504   0.497E-01    0.190E-01
DAV:  12    -0.824719309675E+02   -0.52370E-04   -0.95082E-04 28056   0.314E-01
   1 F= -.82471931E+02 E0= -.82471943E+02  d E =-.824719E+02
       N       E                     dE             d eps       ncg     rms          rms(c)
DAV:   1    -0.816678544019E+02    0.80402E+00   -0.89414E+02 19448   0.213E+02    0.163E+01
DAV:   2    -0.879413827583E+02   -0.62735E+01   -0.11696E+02 19704   0.560E+01    0.127E+01
DAV:   3    -0.873197482337E+02    0.62163E+00   -0.41299E+00 27664   0.142E+01    0.983E+00
DAV:   4    -0.870149192492E+02    0.30483E+00   -0.86655E-01 28520   0.611E+00    0.547E+00
DAV:   5    -0.869719194987E+02    0.43000E-01   -0.35938E-01 32672   0.444E+00    0.204E+00
DAV:   6    -0.869707136919E+02    0.12058E-02   -0.62235E-02 28088   0.208E+00    0.122E+00
DAV:   7    -0.869723370579E+02   -0.16234E-02   -0.15006E-02 34080   0.941E-01    0.351E-01
DAV:   8    -0.869716434902E+02    0.69357E-03   -0.41535E-03 32088   0.567E-01    0.140E-01
DAV:   9    -0.869715750607E+02    0.68429E-04   -0.70839E-04 25016   0.157E-01
   2 F= -.86971575E+02 E0= -.86971502E+02  d E =-.449964E+01
       N       E                     dE             d eps       ncg     rms          rms(c)
DAV:   1    -0.868995364383E+02    0.72107E-01   -0.13743E+01 20312   0.263E+01    0.376E+00
DAV:   2    -0.870706274642E+02   -0.17109E+00   -0.25702E+00 20132   0.817E+00    0.125E+00
DAV:   3    -0.870548339403E+02    0.15794E-01   -0.67413E-02 27600   0.172E+00    0.768E-01
DAV:   4    -0.870498197149E+02    0.50142E-02   -0.18158E-02 29344   0.108E+00    0.452E-01
DAV:   5    -0.870487616601E+02    0.10581E-02   -0.64016E-03 31344   0.695E-01    0.307E-01
DAV:   6    -0.870488650699E+02   -0.10341E-03   -0.11182E-03 28432   0.222E-01    0.162E-01
DAV:   7    -0.870488746813E+02   -0.96114E-05   -0.21894E-04 15640   0.105E-01
   3 F= -.87048875E+02 E0= -.87048848E+02  d E =-.457694E+01
       N       E                     dE             d eps       ncg     rms          rms(c)
DAV:   1    -0.878645730053E+02   -0.81571E+00   -0.10301E+02 19448   0.665E+01    0.107E+01
DAV:   2    -0.885442411525E+02   -0.67967E+00   -0.14760E+01 20960   0.201E+01    0.414E+00
DAV:   3    -0.884122553810E+02    0.13199E+00   -0.48516E-01 27576   0.440E+00    0.206E+00
DAV:   4    -0.883608266756E+02    0.51429E-01   -0.12633E-01 27848   0.271E+00    0.125E+00
DAV:   5    -0.883564309609E+02    0.43957E-02   -0.36711E-02 32832   0.150E+00    0.753E-01
DAV:   6    -0.883567910727E+02   -0.36011E-03   -0.52754E-03 30560   0.529E-01    0.467E-01
DAV:   7    -0.883569295614E+02   -0.13849E-03   -0.13015E-03 32792   0.242E-01    0.105E-01
DAV:   8    -0.883568990369E+02    0.30524E-04   -0.20680E-04 17432   0.143E-01
   4 F= -.88356899E+02 E0= -.88356708E+02  d E =-.130802E+01
       N       E                     dE             d eps       ncg     rms          rms(c)
DAV:   1    -0.883901835772E+02   -0.33254E-01   -0.72010E+00 19456   0.179E+01    0.274E+00
DAV:   2    -0.884355128012E+02   -0.45329E-01   -0.10593E+00 21224   0.554E+00    0.996E-01
DAV:   3    -0.884251651213E+02    0.10348E-01   -0.35500E-02 27296   0.114E+00    0.499E-01
DAV:   4    -0.884220581281E+02    0.31070E-02   -0.91818E-03 28176   0.622E-01    0.259E-01
DAV:   5    -0.884220186311E+02    0.39497E-04   -0.18436E-03 30864   0.316E-01    0.176E-01
DAV:   6    -0.884220375189E+02   -0.18888E-04   -0.22352E-04 17928   0.108E-01
   5 F= -.88422038E+02 E0= -.88421714E+02  d E =-.137316E+01
       N       E                     dE             d eps       ncg     rms          rms(c)
DAV:   1    -0.879639400093E+02    0.45808E+00   -0.86292E+01 22144   0.685E+01    0.955E+00
DAV:   2    -0.889847310864E+02   -0.10208E+01   -0.14350E+01 19588   0.192E+01    0.351E+00
DAV:   3    -0.889425042238E+02    0.42227E-01   -0.35798E-01 28288   0.373E+00    0.211E+00
DAV:   4    -0.889197721835E+02    0.22732E-01   -0.63470E-02 31352   0.180E+00    0.125E+00
DAV:   5    -0.889182990038E+02    0.14732E-02   -0.20932E-02 33992   0.984E-01    0.754E-01
DAV:   6    -0.889186512029E+02   -0.35220E-03   -0.32478E-03 30280   0.400E-01    0.515E-01
DAV:   7    -0.889188035244E+02   -0.15232E-03   -0.97572E-04 30512   0.181E-01    0.110E-01
DAV:   8    -0.889187573657E+02    0.46159E-04   -0.26548E-04 18984   0.141E-01
   6 F= -.88918757E+02 E0= -.88918728E+02  d E =-.496720E+00
       N       E                     dE             d eps       ncg     rms          rms(c)
DAV:   1    -0.889187705436E+02    0.32981E-04   -0.18653E-03 24752   0.310E-01    0.684E-02
DAV:   2    -0.889187917816E+02   -0.21238E-04   -0.32435E-04 18640   0.964E-02
   7 F= -.88918792E+02 E0= -.88918764E+02  d E =-.496754E+00
       N       E                     dE             d eps       ncg     rms          rms(c)
DAV:   1    -0.888133586434E+02    0.10541E+00   -0.32509E+01 20328   0.410E+01    0.440E+00
DAV:   2    -0.892456742462E+02   -0.43232E+00   -0.54205E+00 20136   0.119E+01    0.169E+00
DAV:   3    -0.892463823410E+02   -0.70809E-03   -0.13065E-01 28936   0.222E+00    0.109E+00
DAV:   4    -0.892424566997E+02    0.39256E-02   -0.12659E-02 28336   0.808E-01    0.589E-01
DAV:   5    -0.892422720154E+02    0.18468E-03   -0.52610E-03 32024   0.525E-01    0.371E-01
DAV:   6    -0.892423374244E+02   -0.65409E-04   -0.74999E-04 28736   0.197E-01
   8 F= -.89242337E+02 E0= -.89242148E+02  d E =-.323546E+00
       N       E                     dE             d eps       ncg     rms          rms(c)
DAV:   1    -0.891805134066E+02    0.61759E-01   -0.76874E+00 20920   0.200E+01    0.192E+00
DAV:   2    -0.892817903367E+02   -0.10128E+00   -0.12720E+00 20892   0.572E+00    0.758E-01
DAV:   3    -0.892820285135E+02   -0.23818E-03   -0.30579E-02 28744   0.106E+00    0.479E-01
DAV:   4    -0.892811583441E+02    0.87017E-03   -0.32462E-03 28928   0.381E-01    0.236E-01
DAV:   5    -0.892811858914E+02   -0.27547E-04   -0.10686E-03 29040   0.229E-01    0.166E-01
DAV:   6    -0.892811983797E+02   -0.12488E-04   -0.11341E-04 14592   0.933E-02
   9 F= -.89281198E+02 E0= -.89280958E+02  d E =-.362407E+00
       N       E                     dE             d eps       ncg     rms          rms(c)
DAV:   1    -0.894827141799E+02   -0.20153E+00   -0.10446E+01 19456   0.199E+01    0.176E+00
DAV:   2    -0.895497064358E+02   -0.66992E-01   -0.95962E-01 21500   0.551E+00    0.109E+00
DAV:   3    -0.895490034996E+02    0.70294E-03   -0.28879E-02 28400   0.111E+00    0.597E-01
DAV:   4    -0.895479276826E+02    0.10758E-02   -0.51683E-03 28752   0.544E-01    0.347E-01
DAV:   5    -0.895479105962E+02    0.17086E-04   -0.20120E-03 32752   0.354E-01    0.161E-01
DAV:   6    -0.895479014946E+02    0.91016E-05   -0.23574E-04 18760   0.128E-01
  10 F= -.89547901E+02 E0= -.89547629E+02  d E =-.266703E+00
       N       E                     dE             d eps       ncg     rms          rms(c)
DAV:   1    -0.894961265158E+02    0.51784E-01   -0.37738E+01 19448   0.381E+01    0.355E+00
DAV:   2    -0.897523428520E+02   -0.25622E+00   -0.35162E+00 21584   0.105E+01    0.213E+00
DAV:   3    -0.897495663593E+02    0.27765E-02   -0.10017E-01 28560   0.208E+00    0.116E+00
DAV:   4    -0.897455622159E+02    0.40041E-02   -0.19003E-02 28824   0.106E+00    0.673E-01
DAV:   5    -0.897456255770E+02   -0.63361E-04   -0.74456E-03 32848   0.664E-01    0.309E-01
DAV:   6    -0.897455692521E+02    0.56325E-04   -0.98624E-04 27912   0.241E-01
  11 F= -.89745569E+02 E0= -.89745257E+02  d E =-.464371E+00
       N       E                     dE             d eps       ncg     rms          rms(c)
DAV:   1    -0.899326268953E+02   -0.18700E+00   -0.14783E+01 20424   0.241E+01    0.180E+00
DAV:   2    -0.900153180861E+02   -0.82691E-01   -0.13349E+00 21728   0.647E+00    0.113E+00
DAV:   3    -0.900088448008E+02    0.64733E-02   -0.38358E-02 28008   0.113E+00    0.673E-01
DAV:   4    -0.900061422899E+02    0.27025E-02   -0.83353E-03 26832   0.598E-01    0.155E-01
DAV:   5    -0.900062223712E+02   -0.80081E-04   -0.17394E-03 28680   0.339E-01    0.804E-02
DAV:   6    -0.900062073839E+02    0.14987E-04   -0.17159E-04 15208   0.137E-01
  12 F= -.90006207E+02 E0= -.90006107E+02  d E =-.260638E+00
       N       E                     dE             d eps       ncg     rms          rms(c)
DAV:   1    -0.899534185944E+02    0.52804E-01   -0.45127E+01 19608   0.422E+01    0.301E+00
DAV:   2    -0.902243225844E+02   -0.27090E+00   -0.42090E+00 22008   0.116E+01    0.194E+00
DAV:   3    -0.902060332044E+02    0.18289E-01   -0.12209E-01 28160   0.201E+00    0.120E+00
DAV:   4    -0.901969006852E+02    0.91325E-02   -0.27413E-02 27248   0.968E-01    0.236E-01
DAV:   5    -0.901973161544E+02   -0.41547E-03   -0.45422E-03 27168   0.433E-01    0.107E-01
DAV:   6    -0.901973031971E+02    0.12957E-04   -0.47472E-04 27048   0.184E-01
  13 F= -.90197303E+02 E0= -.90197278E+02  d E =-.451734E+00
       N       E                     dE             d eps       ncg     rms          rms(c)
DAV:   1    -0.901764882159E+02    0.20828E-01   -0.34521E+01 19448   0.394E+01    0.280E+00
DAV:   2    -0.905136829986E+02   -0.33719E+00   -0.44183E+00 21072   0.116E+01    0.241E+00
DAV:   3    -0.905075361818E+02    0.61468E-02   -0.11956E-01 28480   0.229E+00    0.150E+00
DAV:   4    -0.904998227146E+02    0.77135E-02   -0.20982E-02 27440   0.113E+00    0.831E-01
DAV:   5    -0.904988716396E+02    0.95108E-03   -0.10988E-02 29952   0.791E-01    0.208E-01
DAV:   6    -0.904988725198E+02   -0.88024E-06   -0.16565E-03 26584   0.302E-01    0.182E-01
DAV:   7    -0.904988251801E+02    0.47340E-04   -0.36223E-04 20024   0.142E-01
  14 F= -.90498825E+02 E0= -.90498774E+02  d E =-.301522E+00
       N       E                     dE             d eps       ncg     rms          rms(c)
DAV:   1    -0.904909669123E+02    0.79056E-02   -0.30045E+00 19528   0.116E+01    0.804E-01
DAV:   2    -0.905198993690E+02   -0.28932E-01   -0.38592E-01 21120   0.339E+00    0.642E-01
DAV:   3    -0.905191681949E+02    0.73117E-03   -0.10287E-02 28344   0.661E-01    0.380E-01
DAV:   4    -0.905185085907E+02    0.65960E-03   -0.20379E-03 27424   0.339E-01    0.180E-01
DAV:   5    -0.905184803681E+02    0.28223E-04   -0.78017E-04 26536   0.215E-01
  15 F= -.90518480E+02 E0= -.90518420E+02  d E =-.321177E+00
       N       E                     dE             d eps       ncg     rms          rms(c)
DAV:   1    -0.906484909128E+02   -0.12998E+00   -0.11950E+01 21216   0.250E+01    0.241E+00
DAV:   2    -0.907744628878E+02   -0.12597E+00   -0.17450E+00 20940   0.722E+00    0.132E+00
DAV:   3    -0.907727486788E+02    0.17142E-02   -0.45235E-02 28000   0.148E+00    0.741E-01
DAV:   4    -0.907708530907E+02    0.18956E-02   -0.92150E-03 33728   0.741E-01    0.551E-01
DAV:   5    -0.907704250809E+02    0.42801E-03   -0.41617E-03 32688   0.500E-01    0.251E-01
DAV:   6    -0.907704406520E+02   -0.15571E-04   -0.69539E-04 25672   0.184E-01
  16 F= -.90770441E+02 E0= -.90770401E+02  d E =-.251960E+00
       N       E                     dE             d eps       ncg     rms          rms(c)
DAV:   1    -0.904786758288E+02    0.29175E+00   -0.43135E+01 20144   0.475E+01    0.503E+00
DAV:   2    -0.909662277421E+02   -0.48755E+00   -0.64672E+00 20848   0.139E+01    0.244E+00
DAV:   3    -0.909579800014E+02    0.82477E-02   -0.17931E-01 27992   0.282E+00    0.137E+00
DAV:   4    -0.909504608382E+02    0.75192E-02   -0.36177E-02 31752   0.146E+00    0.107E+00
DAV:   5    -0.909487857801E+02    0.16751E-02   -0.16227E-02 32280   0.904E-01    0.501E-01
DAV:   6    -0.909488728989E+02   -0.87119E-04   -0.25206E-03 28024   0.341E-01    0.431E-01
DAV:   7    -0.909490249485E+02   -0.15205E-03   -0.10015E-03 30512   0.206E-01    0.129E-01
DAV:   8    -0.909489763737E+02    0.48575E-04   -0.32576E-04 22248   0.162E-01
  17 F= -.90948976E+02 E0= -.90948931E+02  d E =-.430496E+00
       N       E                     dE             d eps       ncg     rms          rms(c)
DAV:   1    -0.910905995292E+02   -0.14157E+00   -0.25549E+00 19520   0.912E+00    0.113E+00
DAV:   2    -0.910935539934E+02   -0.29545E-02   -0.17850E-01 24776   0.280E+00    0.597E-01
DAV:   3    -0.910914685887E+02    0.20854E-02   -0.87145E-03 29072   0.686E-01    0.301E-01
DAV:   4    -0.910906187167E+02    0.84987E-03   -0.29075E-03 29840   0.412E-01    0.216E-01
DAV:   5    -0.910904445158E+02    0.17420E-03   -0.10856E-03 31792   0.261E-01    0.103E-01
DAV:   6    -0.910904550537E+02   -0.10538E-04   -0.10889E-04 12768   0.803E-02
  18 F= -.91090455E+02 E0= -.91090373E+02  d E =-.141479E+00
       N       E                     dE             d eps       ncg     rms          rms(c)
DAV:   1    -0.913656913810E+02   -0.27525E+00   -0.23011E+01 19448   0.275E+01    0.360E+00
DAV:   2    -0.913960100355E+02   -0.30319E-01   -0.16275E+00 25192   0.843E+00    0.182E+00
DAV:   3    -0.913763899068E+02    0.19620E-01   -0.79427E-02 28968   0.204E+00    0.902E-01
DAV:   4    -0.913688041516E+02    0.75858E-02   -0.27196E-02 29920   0.128E+00    0.656E-01
DAV:   5    -0.913672153714E+02    0.15888E-02   -0.10225E-02 33352   0.776E-01    0.311E-01
DAV:   6    -0.913673351831E+02   -0.11981E-03   -0.13009E-03 30144   0.233E-01    0.199E-01
DAV:   7    -0.913673946192E+02   -0.59436E-04   -0.20260E-04 17064   0.117E-01
  19 F= -.91367395E+02 E0= -.91367168E+02  d E =-.418418E+00
       N       E                     dE             d eps       ncg     rms          rms(c)
DAV:   1    -0.910512155129E+02    0.31612E+00   -0.92033E+01 19448   0.555E+01    0.797E+00
DAV:   2    -0.912086779540E+02   -0.15746E+00   -0.67526E+00 25888   0.171E+01    0.401E+00
DAV:   3    -0.911265466380E+02    0.82131E-01   -0.33772E-01 28776   0.435E+00    0.187E+00
DAV:   4    -0.910953420035E+02    0.31205E-01   -0.11866E-01 32664   0.284E+00    0.135E+00
DAV:   5    -0.910895645151E+02    0.57775E-02   -0.38119E-02 31016   0.156E+00    0.606E-01
DAV:   6    -0.910902210894E+02   -0.65657E-03   -0.58772E-03 32952   0.485E-01    0.312E-01
DAV:   7    -0.910903814501E+02   -0.16036E-03   -0.91983E-04 30184   0.219E-01    0.104E-01
DAV:   8    -0.910903422434E+02    0.39207E-04   -0.13426E-04 13936   0.115E-01
  20 F= -.91090342E+02 E0= -.91090312E+02  d E =-.141366E+00
       N       E                     dE             d eps       ncg     rms          rms(c)
DAV:   1    -0.914143492089E+02   -0.32397E+00   -0.52811E+01 19448   0.424E+01    0.531E+00
DAV:   2    -0.914765449222E+02   -0.62196E-01   -0.38699E+00 25824   0.130E+01    0.290E+00
DAV:   3    -0.914311231953E+02    0.45422E-01   -0.21707E-01 31392   0.390E+00    0.147E+00
DAV:   4    -0.914109011753E+02    0.20222E-01   -0.73798E-02 31128   0.196E+00    0.954E-01
DAV:   5    -0.914078833535E+02    0.30178E-02   -0.21476E-02 33328   0.115E+00    0.474E-01
DAV:   6    -0.914080904888E+02   -0.20714E-03   -0.25133E-03 28408   0.328E-01    0.266E-01
DAV:   7    -0.914081610188E+02   -0.70530E-04   -0.61743E-04 29424   0.155E-01
  21 F= -.91408161E+02 E0= -.91407881E+02  d E =-.459185E+00
       N       E                     dE             d eps       ncg     rms          rms(c)
DAV:   1    -0.915615121109E+02   -0.15342E+00   -0.65994E+00 21216   0.181E+01    0.145E+00
DAV:   2    -0.916189113274E+02   -0.57399E-01   -0.91840E-01 20684   0.494E+00    0.918E-01
DAV:   3    -0.916139075142E+02    0.50038E-02   -0.24535E-02 28536   0.114E+00    0.450E-01
DAV:   4    -0.916116111829E+02    0.22963E-02   -0.65355E-03 29952   0.633E-01    0.295E-01
DAV:   5    -0.916111436903E+02    0.46749E-03   -0.25995E-03 29952   0.402E-01    0.704E-02
DAV:   6    -0.916111595299E+02   -0.15840E-04   -0.34168E-04 21784   0.126E-01
  22 F= -.91611160E+02 E0= -.91610929E+02  d E =-.202999E+00
       N       E                     dE             d eps       ncg     rms          rms(c)
DAV:   1    -0.916118247558E+02   -0.68107E-03   -0.24933E+01 21216   0.351E+01    0.286E+00
DAV:   2    -0.918233633044E+02   -0.21154E+00   -0.34362E+00 20792   0.957E+00    0.174E+00
DAV:   3    -0.918044985265E+02    0.18865E-01   -0.91494E-02 28488   0.213E+00    0.854E-01
DAV:   4    -0.917962744120E+02    0.82241E-02   -0.22193E-02 30024   0.122E+00    0.565E-01
DAV:   5    -0.917947629677E+02    0.15114E-02   -0.86883E-03 30008   0.780E-01    0.143E-01
DAV:   6    -0.917948301724E+02   -0.67205E-04   -0.12546E-03 26824   0.249E-01    0.883E-02
DAV:   7    -0.917948227252E+02    0.74472E-05   -0.12052E-04 13664   0.975E-02
  23 F= -.91794823E+02 E0= -.91794877E+02  d E =-.386662E+00
       N       E                     dE             d eps       ncg     rms          rms(c)
DAV:   1    -0.918835245893E+02   -0.88694E-01   -0.12351E+01 22984   0.259E+01    0.201E+00
DAV:   2    -0.920136756833E+02   -0.13015E+00   -0.18155E+00 19780   0.678E+00    0.110E+00
DAV:   3    -0.920089548109E+02    0.47209E-02   -0.45170E-02 28616   0.151E+00    0.621E-01
DAV:   4    -0.920060261219E+02    0.29287E-02   -0.93701E-03 29744   0.762E-01    0.386E-01
DAV:   5    -0.920056215847E+02    0.40454E-03   -0.40519E-03 29688   0.514E-01    0.112E-01
DAV:   6    -0.920055938202E+02    0.27764E-04   -0.73099E-04 28024   0.203E-01
  24 F= -.92005594E+02 E0= -.92005653E+02  d E =-.210771E+00
       N       E                     dE             d eps       ncg     rms          rms(c)
DAV:   1    -0.918019643170E+02    0.20366E+00   -0.38066E+01 22912   0.453E+01    0.330E+00
DAV:   2    -0.921910576726E+02   -0.38909E+00   -0.55345E+00 19704   0.120E+01    0.190E+00
DAV:   3    -0.921768640225E+02    0.14194E-01   -0.13954E-01 28456   0.257E+00    0.109E+00
DAV:   4    -0.921673392316E+02    0.95248E-02   -0.28335E-02 29400   0.129E+00    0.688E-01
DAV:   5    -0.921662525391E+02    0.10867E-02   -0.12163E-02 29408   0.820E-01    0.209E-01
DAV:   6    -0.921661719726E+02    0.80566E-04   -0.22301E-03 30008   0.359E-01    0.131E-01
DAV:   7    -0.921661509280E+02    0.21045E-04   -0.37473E-04 21216   0.142E-01
  25 F= -.92166151E+02 E0= -.92166159E+02  d E =-.371328E+00
       N       E                     dE             d eps       ncg     rms          rms(c)
DAV:   1    -0.922501806327E+02   -0.84009E-01   -0.12811E+01 21216   0.243E+01    0.225E+00
DAV:   2    -0.923497832356E+02   -0.99603E-01   -0.14331E+00 21040   0.663E+00    0.122E+00
DAV:   3    -0.923427125680E+02    0.70707E-02   -0.44556E-02 28352   0.169E+00    0.562E-01
DAV:   4    -0.923398075435E+02    0.29050E-02   -0.13698E-02 30072   0.872E-01    0.375E-01
DAV:   5    -0.923393463701E+02    0.46117E-03   -0.40667E-03 32672   0.509E-01    0.167E-01
DAV:   6    -0.923393962981E+02   -0.49928E-04   -0.59076E-04 24936   0.171E-01
  26 F= -.92339396E+02 E0= -.92339398E+02  d E =-.173245E+00
       N       E                     dE             d eps       ncg     rms          rms(c)
DAV:   1    -0.923194574992E+02    0.19889E-01   -0.11716E+01 21216   0.233E+01    0.223E+00
DAV:   2    -0.924099341656E+02   -0.90477E-01   -0.13183E+00 21376   0.643E+00    0.133E+00
DAV:   3    -0.924031087232E+02    0.68254E-02   -0.44763E-02 28424   0.176E+00    0.580E-01
DAV:   4    -0.924001638478E+02    0.29449E-02   -0.14090E-02 29984   0.904E-01    0.369E-01
DAV:   5    -0.923998314457E+02    0.33240E-03   -0.39121E-03 32432   0.494E-01    0.160E-01
DAV:   6    -0.923998765803E+02   -0.45135E-04   -0.53410E-04 24328   0.164E-01
  27 F= -.92399877E+02 E0= -.92399844E+02  d E =-.233726E+00
       N       E                     dE             d eps       ncg     rms          rms(c)
DAV:   1    -0.924618905808E+02   -0.62059E-01   -0.14117E+01 21216   0.261E+01    0.283E+00
DAV:   2    -0.925761983976E+02   -0.11431E+00   -0.16269E+00 21160   0.732E+00    0.151E+00
DAV:   3    -0.925720633063E+02    0.41351E-02   -0.56630E-02 28344   0.207E+00    0.698E-01
DAV:   4    -0.925696017274E+02    0.24616E-02   -0.12913E-02 33656   0.902E-01    0.421E-01
DAV:   5    -0.925692316374E+02    0.37009E-03   -0.33987E-03 30904   0.491E-01    0.183E-01
DAV:   6    -0.925693096415E+02   -0.78004E-04   -0.59697E-04 28440   0.182E-01
  28 F= -.92569310E+02 E0= -.92569378E+02  d E =-.169433E+00
       N       E                     dE             d eps       ncg     rms          rms(c)
DAV:   1    -0.925583360190E+02    0.10896E-01   -0.52035E+00 21256   0.159E+01    0.171E+00
DAV:   2    -0.926003286560E+02   -0.41993E-01   -0.60174E-01 21288   0.450E+00    0.102E+00
DAV:   3    -0.925988501020E+02    0.14786E-02   -0.21083E-02 28440   0.129E+00    0.474E-01
DAV:   4    -0.925978965544E+02    0.95355E-03   -0.49088E-03 32912   0.548E-01    0.266E-01
DAV:   5    -0.925978010472E+02    0.95507E-04   -0.12933E-03 31104   0.308E-01    0.111E-01
DAV:   6    -0.925978250580E+02   -0.24011E-04   -0.16244E-04 15712   0.112E-01
  29 F= -.92597825E+02 E0= -.92597909E+02  d E =-.197948E+00
       N       E                     dE             d eps       ncg     rms          rms(c)
DAV:   1    -0.926122514508E+02   -0.14450E-01   -0.99678E+00 19872   0.230E+01    0.301E+00
DAV:   2    -0.926886437470E+02   -0.76392E-01   -0.15168E+00 21072   0.728E+00    0.990E-01
DAV:   3    -0.926864777510E+02    0.21660E-02   -0.57730E-02 29056   0.157E+00    0.573E-01
DAV:   4    -0.926841437209E+02    0.23340E-02   -0.82282E-03 30272   0.754E-01    0.427E-01
DAV:   5    -0.926837269877E+02    0.41673E-03   -0.40199E-03 35544   0.468E-01    0.265E-01
DAV:   6    -0.926837674970E+02   -0.40509E-04   -0.49580E-04 23944   0.163E-01
  30 F= -.92683767E+02 E0= -.92683871E+02  d E =-.859424E-01
       N       E                     dE             d eps       ncg     rms          rms(c)
DAV:   1    -0.926818802189E+02    0.18468E-02   -0.85159E-01 20416   0.667E+00    0.916E-01
DAV:   2    -0.926884941026E+02   -0.66139E-02   -0.13016E-01 21220   0.211E+00    0.298E-01
DAV:   3    -0.926882375913E+02    0.25651E-03   -0.47662E-03 29068   0.438E-01    0.173E-01
DAV:   4    -0.926880208708E+02    0.21672E-03   -0.74243E-04 27824   0.218E-01    0.125E-01
DAV:   5    -0.926879850279E+02    0.35843E-04   -0.30260E-04 21968   0.144E-01
  31 F= -.92687985E+02 E0= -.92688032E+02  d E =-.901600E-01
       N       E                     dE             d eps       ncg     rms          rms(c)
DAV:   1    -0.927212964665E+02   -0.33276E-01   -0.53877E+00 19504   0.164E+01    0.233E+00
DAV:   2    -0.927466488492E+02   -0.25352E-01   -0.80642E-01 21344   0.551E+00    0.752E-01
DAV:   3    -0.927455864391E+02    0.10624E-02   -0.36049E-02 28520   0.121E+00    0.423E-01
DAV:   4    -0.927440495185E+02    0.15369E-02   -0.47166E-03 31384   0.520E-01    0.289E-01
DAV:   5    -0.927437949876E+02    0.25453E-03   -0.18932E-03 34744   0.327E-01    0.228E-01
DAV:   6    -0.927438081270E+02   -0.13139E-04   -0.23505E-04 20208   0.116E-01
  32 F= -.92743808E+02 E0= -.92743971E+02  d E =-.558231E-01
       N       E                     dE             d eps       ncg     rms          rms(c)
DAV:   1    -0.927394343291E+02    0.43607E-02   -0.33274E+00 19488   0.128E+01    0.184E+00
DAV:   2    -0.927547021541E+02   -0.15268E-01   -0.49882E-01 21356   0.431E+00    0.613E-01
DAV:   3    -0.927540220172E+02    0.68014E-03   -0.21968E-02 28400   0.924E-01    0.354E-01
DAV:   4    -0.927530355069E+02    0.98651E-03   -0.30726E-03 31512   0.404E-01    0.228E-01
DAV:   5    -0.927529032476E+02    0.13226E-03   -0.11251E-03 34376   0.259E-01    0.183E-01
DAV:   6    -0.927529081658E+02   -0.49183E-05   -0.13068E-04 15776   0.925E-02
  33 F= -.92752908E+02 E0= -.92753133E+02  d E =-.649231E-01
       N       E                     dE             d eps       ncg     rms          rms(c)
DAV:   1    -0.927738774851E+02   -0.20974E-01   -0.30418E+00 20448   0.113E+01    0.803E-01
DAV:   2    -0.927931190471E+02   -0.19242E-01   -0.31381E-01 21584   0.319E+00    0.646E-01
DAV:   3    -0.927926106799E+02    0.50837E-03   -0.10296E-02 29608   0.692E-01    0.338E-01
DAV:   4    -0.927919003040E+02    0.71038E-03   -0.16626E-03 28168   0.301E-01    0.166E-01
DAV:   5    -0.927918253205E+02    0.74984E-04   -0.64472E-04 26560   0.206E-01
  34 F= -.92791825E+02 E0= -.92791943E+02  d E =-.389172E-01
       N       E                     dE             d eps       ncg     rms          rms(c)
DAV:   1    -0.927879986739E+02    0.39016E-02   -0.25019E+00 20784   0.102E+01    0.715E-01
DAV:   2    -0.928037887321E+02   -0.15790E-01   -0.25547E-01 21632   0.286E+00    0.593E-01
DAV:   3    -0.928034422756E+02    0.34646E-03   -0.82707E-03 29656   0.619E-01    0.315E-01
DAV:   4    -0.928028961037E+02    0.54617E-03   -0.13026E-03 28144   0.264E-01    0.152E-01
DAV:   5    -0.928028386292E+02    0.57475E-04   -0.50393E-04 26352   0.185E-01
  35 F= -.92802839E+02 E0= -.92802858E+02  d E =-.499305E-01
       N       E                     dE             d eps       ncg     rms          rms(c)
DAV:   1    -0.928103664973E+02   -0.74704E-02   -0.25804E+00 20976   0.116E+01    0.163E+00
DAV:   2    -0.928336648137E+02   -0.23298E-01   -0.38149E-01 21096   0.342E+00    0.560E-01
DAV:   3    -0.928322104340E+02    0.14544E-02   -0.12383E-02 29224   0.802E-01    0.258E-01
DAV:   4    -0.928316902607E+02    0.52017E-03   -0.24985E-03 32840   0.397E-01    0.181E-01
DAV:   5    -0.928316186154E+02    0.71645E-04   -0.64148E-04 27160   0.206E-01
  36 F= -.92831619E+02 E0= -.92831716E+02  d E =-.287800E-01
       N       E                     dE             d eps       ncg     rms          rms(c)
DAV:   1    -0.928254422372E+02    0.62480E-02   -0.13503E+00 20688   0.848E+00    0.114E+00
DAV:   2    -0.928377840320E+02   -0.12342E-01   -0.20165E-01 21156   0.249E+00    0.401E-01
DAV:   3    -0.928370134137E+02    0.77062E-03   -0.63821E-03 29136   0.559E-01    0.193E-01
DAV:   4    -0.928367419140E+02    0.27150E-03   -0.12859E-03 31984   0.275E-01    0.139E-01
DAV:   5    -0.928367147599E+02    0.27154E-04   -0.29146E-04 20112   0.149E-01
  37 F= -.92836715E+02 E0= -.92836810E+02  d E =-.338761E-01
       N       E                     dE             d eps       ncg     rms          rms(c)
DAV:   1    -0.928466340463E+02   -0.98921E-02   -0.21063E+00 21144   0.944E+00    0.717E-01
DAV:   2    -0.928594327115E+02   -0.12799E-01   -0.20155E-01 21544   0.243E+00    0.410E-01
DAV:   3    -0.928581092406E+02    0.13235E-02   -0.54081E-03 28832   0.474E-01    0.215E-01
DAV:   4    -0.928576402262E+02    0.46901E-03   -0.13552E-03 28040   0.244E-01    0.870E-02
DAV:   5    -0.928576326415E+02    0.75847E-05   -0.24116E-04 18928   0.144E-01
  38 F= -.92857633E+02 E0= -.92857766E+02  d E =-.209179E-01
       N       E                     dE             d eps       ncg     rms          rms(c)
DAV:   1    -0.928576667873E+02   -0.26561E-04   -0.30450E-01 21320   0.360E+00    0.266E-01
DAV:   2    -0.928595420306E+02   -0.18752E-02   -0.29168E-02 21592   0.924E-01    0.159E-01
DAV:   3    -0.928593657757E+02    0.17625E-03   -0.79075E-04 27992   0.189E-01    0.830E-02
DAV:   4    -0.928592945070E+02    0.71269E-04   -0.16577E-04 17032   0.100E-01
  39 F= -.92859295E+02 E0= -.92859415E+02  d E =-.225797E-01
       N       E                     dE             d eps       ncg     rms          rms(c)
DAV:   1    -0.928822419458E+02   -0.22876E-01   -0.19887E+00 19448   0.894E+00    0.142E+00
DAV:   2    -0.928846995961E+02   -0.24577E-02   -0.19856E-01 24000   0.290E+00    0.516E-01
DAV:   3    -0.928840360238E+02    0.66357E-03   -0.10150E-02 29024   0.740E-01    0.239E-01
DAV:   4    -0.928835178292E+02    0.51819E-03   -0.14201E-03 29720   0.291E-01    0.180E-01
DAV:   5    -0.928834357662E+02    0.82063E-04   -0.55265E-04 27960   0.173E-01
  40 F= -.92883436E+02 E0= -.92883532E+02  d E =-.241413E-01
       N       E                     dE             d eps       ncg     rms          rms(c)
DAV:   1    -0.928889718376E+02   -0.54540E-02   -0.18773E+00 19456   0.866E+00    0.132E+00
DAV:   2    -0.928912391661E+02   -0.22673E-02   -0.18636E-01 24216   0.280E+00    0.528E-01
DAV:   3    -0.928906019755E+02    0.63719E-03   -0.92160E-03 28792   0.701E-01    0.251E-01
DAV:   4    -0.928901152034E+02    0.48677E-03   -0.14368E-03 31880   0.288E-01    0.195E-01
DAV:   5    -0.928900486200E+02    0.66583E-04   -0.49482E-04 28968   0.174E-01
  41 F= -.92890049E+02 E0= -.92890083E+02  d E =-.307541E-01
       N       E                     dE             d eps       ncg     rms          rms(c)
DAV:   1    -0.928962966501E+02   -0.61814E-02   -0.22916E+00 21232   0.984E+00    0.988E-01
DAV:   2    -0.929074985084E+02   -0.11202E-01   -0.20047E-01 22240   0.270E+00    0.489E-01
DAV:   3    -0.929073782232E+02    0.12029E-03   -0.64587E-03 28584   0.524E-01    0.262E-01
DAV:   4    -0.929071006687E+02    0.27755E-03   -0.11967E-03 30888   0.232E-01    0.155E-01
DAV:   5    -0.929071081517E+02   -0.74831E-05   -0.35932E-04 21944   0.149E-01
  42 F= -.92907108E+02 E0= -.92907191E+02  d E =-.170595E-01
       N       E                     dE             d eps       ncg     rms          rms(c)
DAV:   1    -0.929069091121E+02    0.19156E-03   -0.32385E-01 21396   0.371E+00    0.364E-01
DAV:   2    -0.929085219462E+02   -0.16128E-02   -0.28648E-02 22280   0.101E+00    0.202E-01
DAV:   3    -0.929085212273E+02    0.71895E-06   -0.92970E-04 27124   0.197E-01
  43 F= -.92908521E+02 E0= -.92908623E+02  d E =-.184726E-01
       N       E                     dE             d eps       ncg     rms          rms(c)
DAV:   1    -0.929061510269E+02    0.23709E-02   -0.28754E+00 21216   0.116E+01    0.857E-01
DAV:   2    -0.929296678493E+02   -0.23517E-01   -0.29831E-01 21296   0.292E+00    0.475E-01
DAV:   3    -0.929289918986E+02    0.67595E-03   -0.63285E-03 28312   0.497E-01    0.266E-01
DAV:   4    -0.929286175336E+02    0.37437E-03   -0.14499E-03 28712   0.254E-01    0.740E-02
DAV:   5    -0.929286352704E+02   -0.17737E-04   -0.26807E-04 20904   0.127E-01
  44 F= -.92928635E+02 E0= -.92928745E+02  d E =-.201140E-01
       N       E                     dE             d eps       ncg     rms          rms(c)
DAV:   1    -0.929254883830E+02    0.31292E-02   -0.73058E-01 21308   0.586E+00    0.407E-01
DAV:   2    -0.929314453981E+02   -0.59570E-02   -0.75676E-02 21392   0.148E+00    0.236E-01
DAV:   3    -0.929312891319E+02    0.15627E-03   -0.16147E-03 27712   0.255E-01    0.136E-01
DAV:   4    -0.929311960343E+02    0.93098E-04   -0.36165E-04 23680   0.137E-01
  45 F= -.92931196E+02 E0= -.92931314E+02  d E =-.226748E-01
       N       E                     dE             d eps       ncg     rms          rms(c)
DAV:   1    -0.929312622695E+02    0.26862E-04   -0.27792E+00 21200   0.106E+01    0.693E-01
DAV:   2    -0.929477835000E+02   -0.16521E-01   -0.22763E-01 22152   0.273E+00    0.504E-01
DAV:   3    -0.929473362534E+02    0.44725E-03   -0.67989E-03 29600   0.599E-01    0.260E-01
DAV:   4    -0.929469317585E+02    0.40449E-03   -0.11231E-03 29736   0.251E-01    0.119E-01
DAV:   5    -0.929469108320E+02    0.20927E-04   -0.37307E-04 22528   0.158E-01
  46 F= -.92946911E+02 E0= -.92947127E+02  d E =-.157148E-01
       N       E                     dE             d eps       ncg     rms          rms(c)
DAV:   1    -0.929455288072E+02    0.14030E-02   -0.42736E-01 21292   0.418E+00    0.267E-01
DAV:   2    -0.929480931818E+02   -0.25644E-02   -0.35125E-02 22328   0.107E+00    0.206E-01
DAV:   3    -0.929480331687E+02    0.60013E-04   -0.10440E-03 28080   0.233E-01    0.106E-01
DAV:   4    -0.929479698523E+02    0.63316E-04   -0.13452E-04 17512   0.100E-01
  47 F= -.92947970E+02 E0= -.92948217E+02  d E =-.167738E-01
       N       E                     dE             d eps       ncg     rms          rms(c)
DAV:   1    -0.929517112210E+02   -0.36781E-02   -0.24066E+00 20864   0.989E+00    0.834E-01
DAV:   2    -0.929635592531E+02   -0.11848E-01   -0.20861E-01 22168   0.283E+00    0.618E-01
DAV:   3    -0.929632583043E+02    0.30095E-03   -0.86305E-03 29344   0.733E-01    0.279E-01
DAV:   4    -0.929628494853E+02    0.40882E-03   -0.10597E-03 27984   0.251E-01    0.187E-01
DAV:   5    -0.929627858249E+02    0.63660E-04   -0.66020E-04 27744   0.195E-01
  48 F= -.92962786E+02 E0= -.92963011E+02  d E =-.148160E-01
       N       E                     dE             d eps       ncg     rms          rms(c)
DAV:   1    -0.929611660633E+02    0.16834E-02   -0.77795E-01 20384   0.563E+00    0.460E-01
DAV:   2    -0.929651465047E+02   -0.39804E-02   -0.68859E-02 22208   0.162E+00    0.368E-01
DAV:   3    -0.929650835866E+02    0.62918E-04   -0.28210E-03 29384   0.411E-01    0.173E-01
DAV:   4    -0.929649589264E+02    0.12466E-03   -0.31218E-04 22880   0.142E-01    0.132E-01
DAV:   5    -0.929649390305E+02    0.19896E-04   -0.22840E-04 16840   0.125E-01
  49 F= -.92964939E+02 E0= -.92965143E+02  d E =-.169692E-01
       N       E                     dE             d eps       ncg     rms          rms(c)
DAV:   1    -0.929630227631E+02    0.19362E-02   -0.12688E+00 20720   0.788E+00    0.754E-01
DAV:   2    -0.929744573735E+02   -0.11435E-01   -0.15902E-01 21248   0.223E+00    0.374E-01
DAV:   3    -0.929740779005E+02    0.37947E-03   -0.45754E-03 29032   0.479E-01    0.192E-01
DAV:   4    -0.929738667997E+02    0.21110E-03   -0.90056E-04 28320   0.238E-01    0.126E-01
DAV:   5    -0.929738388000E+02    0.28000E-04   -0.26718E-04 20784   0.140E-01
  50 F= -.92973839E+02 E0= -.92974117E+02  d E =-.889977E-02
       N       E                     dE             d eps       ncg     rms          rms(c)
DAV:   1    -0.929737875337E+02    0.79266E-04   -0.90216E-03 22492   0.684E-01    0.679E-02
DAV:   2    -0.929738724544E+02   -0.84921E-04   -0.12002E-03 21440   0.195E-01    0.555E-02
DAV:   3    -0.929738693637E+02    0.30907E-05   -0.31743E-05 13060   0.462E-02
  51 F= -.92973869E+02 E0= -.92974151E+02  d E =-.893033E-02
       N       E                     dE             d eps       ncg     rms          rms(c)
DAV:   1    -0.929736986466E+02    0.17381E-03   -0.10634E+00 20708   0.690E+00    0.526E-01
DAV:   2    -0.929816595334E+02   -0.79609E-02   -0.11376E-01 21312   0.194E+00    0.319E-01
DAV:   3    -0.929813562204E+02    0.30331E-03   -0.32111E-03 29736   0.428E-01    0.180E-01
DAV:   4    -0.929811545033E+02    0.20172E-03   -0.67022E-04 27864   0.188E-01    0.869E-02
DAV:   5    -0.929811388473E+02    0.15656E-04   -0.15423E-04 15568   0.119E-01
  52 F= -.92981139E+02 E0= -.92981405E+02  d E =-.726948E-02
       N       E                     dE             d eps       ncg     rms          rms(c)
DAV:   1    -0.929806664456E+02    0.48806E-03   -0.13201E-01 20796   0.245E+00    0.180E-01
DAV:   2    -0.929816722886E+02   -0.10058E-02   -0.14341E-02 21400   0.692E-01    0.122E-01
DAV:   3    -0.929816390741E+02    0.33214E-04   -0.40384E-04 26220   0.157E-01
  53 F= -.92981639E+02 E0= -.92981899E+02  d E =-.776971E-02
       N       E                     dE             d eps       ncg     rms          rms(c)
DAV:   1    -0.929836189089E+02   -0.19466E-02   -0.73902E-01 21156   0.547E+00    0.533E-01
DAV:   2    -0.929879647568E+02   -0.43458E-02   -0.66854E-02 22552   0.157E+00    0.352E-01
DAV:   3    -0.929878177295E+02    0.14703E-03   -0.23677E-03 30088   0.378E-01    0.172E-01
DAV:   4    -0.929876889538E+02    0.12878E-03   -0.41613E-04 25008   0.159E-01    0.101E-01
DAV:   5    -0.929876775242E+02    0.11430E-04   -0.14504E-04 14032   0.116E-01
  54 F= -.92987678E+02 E0= -.92987908E+02  d E =-.603845E-02
       N       E                     dE             d eps       ncg     rms          rms(c)
DAV:   1    -0.929870640988E+02    0.62485E-03   -0.28449E-01 21232   0.340E+00    0.322E-01
DAV:   2    -0.929887594106E+02   -0.16953E-02   -0.25830E-02 22664   0.989E-01    0.230E-01
DAV:   3    -0.929887167527E+02    0.42658E-04   -0.94560E-04 28384   0.245E-01
  55 F= -.92988717E+02 E0= -.92988926E+02  d E =-.707768E-02
       N       E                     dE             d eps       ncg     rms          rms(c)
DAV:   1    -0.929925738311E+02   -0.38144E-02   -0.50538E-01 19476   0.447E+00    0.636E-01
DAV:   2    -0.929941730162E+02   -0.15992E-02   -0.45935E-02 23960   0.139E+00    0.236E-01
DAV:   3    -0.929940932468E+02    0.79769E-04   -0.19005E-03 28364   0.278E-01    0.137E-01
DAV:   4    -0.929940167517E+02    0.76495E-04   -0.27789E-04 20032   0.130E-01
  56 F= -.92994017E+02 E0= -.92994207E+02  d E =-.530000E-02
       N       E                     dE             d eps       ncg     rms          rms(c)
DAV:   1    -0.929936113778E+02    0.48187E-03   -0.85974E-01 19456   0.584E+00    0.808E-01
DAV:   2    -0.929963695200E+02   -0.27581E-02   -0.78382E-02 24104   0.183E+00    0.288E-01
DAV:   3    -0.929962821001E+02    0.87420E-04   -0.33655E-03 28672   0.390E-01    0.157E-01
DAV:   4    -0.929961723892E+02    0.10971E-03   -0.46029E-04 25920   0.174E-01    0.112E-01
DAV:   5    -0.929961721934E+02    0.19577E-06   -0.19440E-04 18672   0.117E-01
  57 F= -.92996172E+02 E0= -.92996323E+02  d E =-.745544E-02
       N       E                     dE             d eps       ncg     rms          rms(c)
DAV:   1    -0.929987615146E+02   -0.25891E-02   -0.16286E-01 21280   0.240E+00    0.170E-01
DAV:   2    -0.929995305058E+02   -0.76899E-03   -0.10649E-02 23704   0.615E-01    0.137E-01
DAV:   3    -0.929995093615E+02    0.21144E-04   -0.29532E-04 25280   0.126E-01
  58 F= -.92999509E+02 E0= -.92999671E+02  d E =-.333717E-02
       N       E                     dE             d eps       ncg     rms          rms(c)
DAV:   1    -0.929988458239E+02    0.68468E-03   -0.14610E+00 21216   0.718E+00    0.471E-01
DAV:   2    -0.930056105923E+02   -0.67648E-02   -0.94402E-02 23680   0.183E+00    0.371E-01
DAV:   3    -0.930053974545E+02    0.21314E-03   -0.26408E-03 29792   0.358E-01    0.228E-01
DAV:   4    -0.930052130618E+02    0.18439E-03   -0.62135E-04 26544   0.183E-01    0.966E-02
DAV:   5    -0.930052026573E+02    0.10404E-04   -0.18749E-04 16232   0.134E-01
  59 F= -.93005203E+02 E0= -.93005378E+02  d E =-.903046E-02
       N       E                     dE             d eps       ncg     rms          rms(c)
DAV:   1    -0.930081039882E+02   -0.28909E-02   -0.75191E-02 20752   0.188E+00    0.287E-01
DAV:   2    -0.930084489850E+02   -0.34500E-03   -0.91358E-03 21920   0.578E-01    0.108E-01
DAV:   3    -0.930084173537E+02    0.31631E-04   -0.40970E-04 25340   0.146E-01
  60 F= -.93008417E+02 E0= -.93008587E+02  d E =-.321470E-02
