  15  15   1   0
  0.9864525E+01  0.3768931E-09  0.6640761E-09  0.6971454E-09  0.5000000E-15
  1.000000000000000E-004
  CAR 
 unknown system                          
     14.91912629    -36.58460527  301      0.90218348      1.00000000
    -36.585  0.0000E+00  0.0000E+00  0.0000E+00  0.0000E+00
    -36.413  0.0000E+00  0.0000E+00  0.0000E+00  0.0000E+00
    -36.241  0.0000E+00  0.0000E+00  0.0000E+00  0.0000E+00
    -36.070  0.0000E+00  0.0000E+00  0.0000E+00  0.0000E+00
    -35.898  0.0000E+00  0.0000E+00  0.0000E+00  0.0000E+00
    -35.726  0.0000E+00  0.0000E+00  0.0000E+00  0.0000E+00
    -35.555  0.0000E+00  0.0000E+00  0.0000E+00  0.0000E+00
    -35.383  0.0000E+00  0.0000E+00  0.0000E+00  0.0000E+00
    -35.211  0.0000E+00  0.0000E+00  0.0000E+00  0.0000E+00
    -35.039  0.0000E+00  0.0000E+00  0.0000E+00  0.0000E+00
    -34.868  0.0000E+00  0.0000E+00  0.0000E+00  0.0000E+00
    -34.696  0.0000E+00  0.0000E+00  0.0000E+00  0.0000E+00
    -34.524  0.0000E+00  0.0000E+00  0.0000E+00  0.0000E+00
    -34.353  0.0000E+00  0.0000E+00  0.0000E+00  0.0000E+00
    -34.181  0.0000E+00  0.0000E+00  0.1010E-01  0.1010E-01
    -34.009  0.4411E+00  0.4411E+00  0.1853E-01  0.1853E-01
    -33.838  0.0000E+00  0.0000E+00  0.2020E-01  0.2020E-01
    -33.666  0.0000E+00  0.0000E+00  0.2020E-01  0.2020E-01
    -33.494  0.0000E+00  0.0000E+00  0.2020E-01  0.2020E-01
    -33.323  0.0000E+00  0.0000E+00  0.2020E-01  0.2020E-01
    -33.151  0.0000E+00  0.0000E+00  0.2020E-01  0.2020E-01
    -32.979  0.0000E+00  0.0000E+00  0.2020E-01  0.2020E-01
    -32.808  0.0000E+00  0.0000E+00  0.2020E-01  0.2020E-01
    -32.636  0.0000E+00  0.0000E+00  0.2020E-01  0.2020E-01
    -32.464  0.0000E+00  0.0000E+00  0.2020E-01  0.2020E-01
    -32.293  0.0000E+00  0.0000E+00  0.2020E-01  0.2020E-01
    -32.121  0.0000E+00  0.0000E+00  0.2020E-01  0.2020E-01
    -31.949  0.0000E+00  0.0000E+00  0.2020E-01  0.2020E-01
    -31.778  0.0000E+00  0.0000E+00  0.2020E-01  0.2020E-01
    -31.606  0.0000E+00  0.0000E+00  0.2020E-01  0.2020E-01
    -31.434  0.0000E+00  0.0000E+00  0.2020E-01  0.2020E-01
    -31.263  0.0000E+00  0.0000E+00  0.2020E-01  0.2020E-01
    -31.091  0.0000E+00  0.0000E+00  0.2020E-01  0.2020E-01
    -30.919  0.0000E+00  0.0000E+00  0.2020E-01  0.2020E-01
    -30.748  0.0000E+00  0.0000E+00  0.2020E-01  0.2020E-01
    -30.576  0.0000E+00  0.0000E+00  0.2020E-01  0.2020E-01
    -30.404  0.0000E+00  0.0000E+00  0.2020E-01  0.2020E-01
    -30.232  0.0000E+00  0.0000E+00  0.2020E-01  0.2020E-01
    -30.061  0.1481E+00  0.1481E+00  0.3278E-01  0.3278E-01
    -29.889  0.0000E+00  0.0000E+00  0.5051E-01  0.5051E-01
    -29.717  0.0000E+00  0.0000E+00  0.5051E-01  0.5051E-01
    -29.546  0.0000E+00  0.0000E+00  0.5051E-01  0.5051E-01
    -29.374  0.0000E+00  0.0000E+00  0.5051E-01  0.5051E-01
    -29.202  0.0000E+00  0.0000E+00  0.5051E-01  0.5051E-01
    -29.031  0.0000E+00  0.0000E+00  0.5051E-01  0.5051E-01
    -28.859  0.0000E+00  0.0000E+00  0.5051E-01  0.5051E-01
    -28.687  0.0000E+00  0.0000E+00  0.5051E-01  0.5051E-01
    -28.516  0.0000E+00  0.0000E+00  0.5051E-01  0.5051E-01
    -28.344  0.0000E+00  0.0000E+00  0.5051E-01  0.5051E-01
    -28.172  0.0000E+00  0.0000E+00  0.5051E-01  0.5051E-01
    -28.001  0.0000E+00  0.0000E+00  0.5051E-01  0.5051E-01
    -27.829  0.0000E+00  0.0000E+00  0.5051E-01  0.5051E-01
    -27.657  0.0000E+00  0.0000E+00  0.5051E-01  0.5051E-01
    -27.486  0.0000E+00  0.0000E+00  0.5051E-01  0.5051E-01
    -27.314  0.0000E+00  0.0000E+00  0.5051E-01  0.5051E-01
    -27.142  0.0000E+00  0.0000E+00  0.5051E-01  0.5051E-01
    -26.971  0.0000E+00  0.0000E+00  0.5051E-01  0.5051E-01
    -26.799  0.0000E+00  0.0000E+00  0.5051E-01  0.5051E-01
    -26.627  0.0000E+00  0.0000E+00  0.5051E-01  0.5051E-01
    -26.456  0.0000E+00  0.0000E+00  0.5051E-01  0.5051E-01
    -26.284  0.0000E+00  0.0000E+00  0.5051E-01  0.5051E-01
    -26.112  0.0000E+00  0.0000E+00  0.5051E-01  0.5051E-01
    -25.941  0.0000E+00  0.0000E+00  0.5051E-01  0.5051E-01
    -25.769  0.0000E+00  0.0000E+00  0.5051E-01  0.5051E-01
    -25.597  0.0000E+00  0.0000E+00  0.5051E-01  0.5051E-01
    -25.425  0.0000E+00  0.0000E+00  0.5051E-01  0.5051E-01
    -25.254  0.0000E+00  0.0000E+00  0.5051E-01  0.5051E-01
    -25.082  0.0000E+00  0.0000E+00  0.5051E-01  0.5051E-01
    -24.910  0.0000E+00  0.0000E+00  0.5051E-01  0.5051E-01
    -24.739  0.0000E+00  0.0000E+00  0.5051E-01  0.5051E-01
    -24.567  0.0000E+00  0.0000E+00  0.5051E-01  0.5051E-01
    -24.395  0.0000E+00  0.0000E+00  0.5051E-01  0.5051E-01
    -24.224  0.0000E+00  0.0000E+00  0.5051E-01  0.5051E-01
    -24.052  0.0000E+00  0.0000E+00  0.5051E-01  0.5051E-01
    -23.880  0.0000E+00  0.0000E+00  0.5051E-01  0.5051E-01
    -23.709  0.0000E+00  0.0000E+00  0.5051E-01  0.5051E-01
    -23.537  0.0000E+00  0.0000E+00  0.5051E-01  0.5051E-01
    -23.365  0.0000E+00  0.0000E+00  0.5051E-01  0.5051E-01
    -23.194  0.0000E+00  0.0000E+00  0.5051E-01  0.5051E-01
    -23.022  0.0000E+00  0.0000E+00  0.5051E-01  0.5051E-01
    -22.850  0.0000E+00  0.0000E+00  0.5051E-01  0.5051E-01
    -22.679  0.0000E+00  0.0000E+00  0.5051E-01  0.5051E-01
    -22.507  0.0000E+00  0.0000E+00  0.5051E-01  0.5051E-01
    -22.335  0.0000E+00  0.0000E+00  0.5051E-01  0.5051E-01
    -22.164  0.0000E+00  0.0000E+00  0.5051E-01  0.5051E-01
    -21.992  0.0000E+00  0.0000E+00  0.5051E-01  0.5051E-01
    -21.820  0.0000E+00  0.0000E+00  0.5051E-01  0.5051E-01
    -21.649  0.0000E+00  0.0000E+00  0.5051E-01  0.5051E-01
    -21.477  0.0000E+00  0.0000E+00  0.5051E-01  0.5051E-01
    -21.305  0.0000E+00  0.0000E+00  0.5051E-01  0.5051E-01
    -21.133  0.0000E+00  0.0000E+00  0.5051E-01  0.5051E-01
    -20.962  0.0000E+00  0.0000E+00  0.5051E-01  0.5051E-01
    -20.790  0.0000E+00  0.0000E+00  0.5051E-01  0.5051E-01
    -20.618  0.0000E+00  0.0000E+00  0.5051E-01  0.5051E-01
    -20.447  0.0000E+00  0.0000E+00  0.5051E-01  0.5051E-01
    -20.275  0.0000E+00  0.0000E+00  0.5051E-01  0.5051E-01
    -20.103  0.0000E+00  0.0000E+00  0.5051E-01  0.5051E-01
    -19.932  0.0000E+00  0.0000E+00  0.5051E-01  0.5051E-01
    -19.760  0.0000E+00  0.0000E+00  0.5051E-01  0.5051E-01
    -19.588  0.0000E+00  0.0000E+00  0.5051E-01  0.5051E-01
    -19.417  0.0000E+00  0.0000E+00  0.5051E-01  0.5051E-01
    -19.245  0.0000E+00  0.0000E+00  0.5051E-01  0.5051E-01
    -19.073  0.0000E+00  0.0000E+00  0.5051E-01  0.5051E-01
    -18.902  0.0000E+00  0.0000E+00  0.5051E-01  0.5051E-01
    -18.730  0.0000E+00  0.0000E+00  0.5051E-01  0.5051E-01
    -18.558  0.0000E+00  0.0000E+00  0.5051E-01  0.5051E-01
    -18.387  0.0000E+00  0.0000E+00  0.5051E-01  0.5051E-01
    -18.215  0.0000E+00  0.0000E+00  0.5051E-01  0.5051E-01
    -18.043  0.0000E+00  0.0000E+00  0.5051E-01  0.5051E-01
    -17.872  0.0000E+00  0.0000E+00  0.5051E-01  0.5051E-01
    -17.700  0.0000E+00  0.0000E+00  0.5051E-01  0.5051E-01
    -17.528  0.0000E+00  0.0000E+00  0.5051E-01  0.5051E-01
    -17.357  0.0000E+00  0.0000E+00  0.5051E-01  0.5051E-01
    -17.185  0.0000E+00  0.0000E+00  0.5051E-01  0.5051E-01
    -17.013  0.0000E+00  0.0000E+00  0.5051E-01  0.5051E-01
    -16.842  0.0000E+00  0.0000E+00  0.5051E-01  0.5051E-01
    -16.670  0.0000E+00  0.0000E+00  0.5051E-01  0.5051E-01
    -16.498  0.0000E+00  0.0000E+00  0.5051E-01  0.5051E-01
    -16.326  0.1716E+00  0.1716E+00  0.6015E-01  0.6015E-01
    -16.155  0.8498E-01  0.8498E-01  0.8179E-01  0.8179E-01
    -15.983  0.4876E-01  0.4876E-01  0.1086E+00  0.1086E+00
    -15.811  0.0000E+00  0.0000E+00  0.1111E+00  0.1111E+00
    -15.640  0.0000E+00  0.0000E+00  0.1111E+00  0.1111E+00
    -15.468  0.0000E+00  0.0000E+00  0.1111E+00  0.1111E+00
    -15.296  0.0000E+00  0.0000E+00  0.1111E+00  0.1111E+00
    -15.125  0.0000E+00  0.0000E+00  0.1111E+00  0.1111E+00
    -14.953  0.0000E+00  0.0000E+00  0.1111E+00  0.1111E+00
    -14.781  0.0000E+00  0.0000E+00  0.1111E+00  0.1111E+00
    -14.610  0.0000E+00  0.0000E+00  0.1111E+00  0.1111E+00
    -14.438  0.0000E+00  0.0000E+00  0.1111E+00  0.1111E+00
    -14.266  0.0000E+00  0.0000E+00  0.1111E+00  0.1111E+00
    -14.095  0.0000E+00  0.0000E+00  0.1111E+00  0.1111E+00
    -13.923  0.0000E+00  0.0000E+00  0.1111E+00  0.1111E+00
    -13.751  0.0000E+00  0.0000E+00  0.1111E+00  0.1111E+00
    -13.580  0.0000E+00  0.0000E+00  0.1111E+00  0.1111E+00
    -13.408  0.0000E+00  0.0000E+00  0.1111E+00  0.1111E+00
    -13.236  0.0000E+00  0.0000E+00  0.1111E+00  0.1111E+00
    -13.065  0.0000E+00  0.0000E+00  0.1111E+00  0.1111E+00
    -12.893  0.0000E+00  0.0000E+00  0.1111E+00  0.1111E+00
    -12.721  0.0000E+00  0.0000E+00  0.1111E+00  0.1111E+00
    -12.550  0.0000E+00  0.0000E+00  0.1111E+00  0.1111E+00
    -12.378  0.0000E+00  0.0000E+00  0.1111E+00  0.1111E+00
    -12.206  0.0000E+00  0.0000E+00  0.1111E+00  0.1111E+00
    -12.034  0.0000E+00  0.0000E+00  0.1111E+00  0.1111E+00
    -11.863  0.0000E+00  0.0000E+00  0.1111E+00  0.1111E+00
    -11.691  0.0000E+00  0.0000E+00  0.1111E+00  0.1111E+00
    -11.519  0.0000E+00  0.0000E+00  0.1111E+00  0.1111E+00
    -11.348  0.0000E+00  0.0000E+00  0.1111E+00  0.1111E+00
    -11.176  0.0000E+00  0.0000E+00  0.1111E+00  0.1111E+00
    -11.004  0.0000E+00  0.0000E+00  0.1111E+00  0.1111E+00
    -10.833  0.0000E+00  0.0000E+00  0.1111E+00  0.1111E+00
    -10.661  0.0000E+00  0.0000E+00  0.1111E+00  0.1111E+00
    -10.489  0.0000E+00  0.0000E+00  0.1111E+00  0.1111E+00
    -10.318  0.0000E+00  0.0000E+00  0.1111E+00  0.1111E+00
    -10.146  0.0000E+00  0.0000E+00  0.1111E+00  0.1111E+00
     -9.974  0.0000E+00  0.0000E+00  0.1111E+00  0.1111E+00
     -9.803  0.0000E+00  0.0000E+00  0.1111E+00  0.1111E+00
     -9.631  0.0000E+00  0.0000E+00  0.1111E+00  0.1111E+00
     -9.459  0.0000E+00  0.0000E+00  0.1111E+00  0.1111E+00
     -9.288  0.0000E+00  0.0000E+00  0.1111E+00  0.1111E+00
     -9.116  0.0000E+00  0.0000E+00  0.1111E+00  0.1111E+00
     -8.944  0.0000E+00  0.0000E+00  0.1111E+00  0.1111E+00
     -8.773  0.0000E+00  0.0000E+00  0.1111E+00  0.1111E+00
     -8.601  0.0000E+00  0.0000E+00  0.1111E+00  0.1111E+00
     -8.429  0.0000E+00  0.0000E+00  0.1111E+00  0.1111E+00
     -8.258  0.2608E-01  0.2608E-01  0.1128E+00  0.1128E+00
     -8.086  0.1095E-01  0.1095E-01  0.1154E+00  0.1154E+00
     -7.914  0.1052E-01  0.1052E-01  0.1173E+00  0.1173E+00
     -7.743  0.1061E-01  0.1061E-01  0.1191E+00  0.1191E+00
     -7.571  0.0000E+00  0.0000E+00  0.1212E+00  0.1212E+00
     -7.399  0.0000E+00  0.0000E+00  0.1212E+00  0.1212E+00
     -7.227  0.0000E+00  0.0000E+00  0.1212E+00  0.1212E+00
     -7.056  0.0000E+00  0.0000E+00  0.1212E+00  0.1212E+00
     -6.884  0.0000E+00  0.0000E+00  0.1212E+00  0.1212E+00
     -6.712  0.0000E+00  0.0000E+00  0.1212E+00  0.1212E+00
     -6.541  0.0000E+00  0.0000E+00  0.1212E+00  0.1212E+00
     -6.369  0.0000E+00  0.0000E+00  0.1212E+00  0.1212E+00
     -6.197  0.3826E-01  0.3826E-01  0.1255E+00  0.1255E+00
     -6.026  0.1586E-01  0.1586E-01  0.1304E+00  0.1304E+00
     -5.854  0.0000E+00  0.0000E+00  0.1313E+00  0.1313E+00
     -5.682  0.0000E+00  0.0000E+00  0.1313E+00  0.1313E+00
     -5.511  0.0000E+00  0.0000E+00  0.1313E+00  0.1313E+00
     -5.339  0.0000E+00  0.0000E+00  0.1313E+00  0.1313E+00
     -5.167  0.2119E-02  0.2119E-02  0.1314E+00  0.1314E+00
     -4.996  0.8630E-02  0.8630E-02  0.1324E+00  0.1324E+00
     -4.824  0.1091E-01  0.1091E-01  0.1345E+00  0.1345E+00
     -4.652  0.6910E-02  0.6910E-02  0.1358E+00  0.1358E+00
     -4.481  0.6641E-02  0.6641E-02  0.1370E+00  0.1370E+00
     -4.309  0.5609E-02  0.5609E-02  0.1380E+00  0.1380E+00
     -4.137  0.5614E-02  0.5614E-02  0.1390E+00  0.1390E+00
     -3.966  0.1655E-01  0.1655E-01  0.1405E+00  0.1405E+00
     -3.794  0.0000E+00  0.0000E+00  0.1414E+00  0.1414E+00
     -3.622  0.6533E-02  0.6533E-02  0.1416E+00  0.1416E+00
     -3.451  0.1494E-01  0.1494E-01  0.1441E+00  0.1441E+00
     -3.279  0.9635E-02  0.9635E-02  0.1458E+00  0.1458E+00
     -3.107  0.3537E-01  0.3537E-01  0.1500E+00  0.1500E+00
     -2.936  0.2392E-01  0.2392E-01  0.1573E+00  0.1573E+00
     -2.764  0.4983E-01  0.4983E-01  0.1631E+00  0.1631E+00
     -2.592  0.2394E-01  0.2394E-01  0.1686E+00  0.1686E+00
     -2.420  0.6294E-01  0.6294E-01  0.1746E+00  0.1746E+00
     -2.249  0.0000E+00  0.0000E+00  0.1818E+00  0.1818E+00
     -2.077  0.0000E+00  0.0000E+00  0.1818E+00  0.1818E+00
     -1.905  0.8047E-02  0.8047E-02  0.1843E+00  0.1843E+00
     -1.734  0.7881E-02  0.7881E-02  0.1857E+00  0.1857E+00
     -1.562  0.6277E-02  0.6277E-02  0.1868E+00  0.1868E+00
     -1.390  0.6255E-02  0.6255E-02  0.1879E+00  0.1879E+00
     -1.219  0.3422E-01  0.3422E-01  0.1928E+00  0.1928E+00
     -1.047  0.4742E-01  0.4742E-01  0.1996E+00  0.1996E+00
     -0.875  0.2296E-01  0.2296E-01  0.2078E+00  0.2078E+00
     -0.704  0.1467E-01  0.1467E-01  0.2105E+00  0.2105E+00
     -0.532  0.0000E+00  0.0000E+00  0.2121E+00  0.2121E+00
     -0.360  0.0000E+00  0.0000E+00  0.2121E+00  0.2121E+00
     -0.189  0.0000E+00  0.0000E+00  0.2121E+00  0.2121E+00
     -0.017  0.0000E+00  0.0000E+00  0.2121E+00  0.2121E+00
      0.155  0.0000E+00  0.0000E+00  0.2121E+00  0.2121E+00
      0.326  0.0000E+00  0.0000E+00  0.2121E+00  0.2121E+00
      0.498  0.8264E-02  0.8264E-02  0.2142E+00  0.2142E+00
      0.670  0.8256E-02  0.8256E-02  0.2156E+00  0.2156E+00
      0.841  0.5525E-02  0.5525E-02  0.2168E+00  0.2168E+00
      1.013  0.5524E-02  0.5524E-02  0.2178E+00  0.2178E+00
      1.185  0.5523E-02  0.5523E-02  0.2187E+00  0.2187E+00
      1.356  0.1014E-01  0.1014E-01  0.2200E+00  0.2200E+00
      1.528  0.9725E-02  0.9725E-02  0.2217E+00  0.2217E+00
      1.700  0.0000E+00  0.0000E+00  0.2222E+00  0.2222E+00
      1.872  0.0000E+00  0.0000E+00  0.2222E+00  0.2222E+00
      2.043  0.0000E+00  0.0000E+00  0.2222E+00  0.2222E+00
      2.215  0.0000E+00  0.0000E+00  0.2222E+00  0.2222E+00
      2.387  0.0000E+00  0.0000E+00  0.2222E+00  0.2222E+00
      2.558  0.0000E+00  0.0000E+00  0.2222E+00  0.2222E+00
      2.730  0.2539E-01  0.2539E-01  0.2232E+00  0.2232E+00
      2.902  0.5153E-01  0.5153E-01  0.2300E+00  0.2300E+00
      3.073  0.2195E-01  0.2195E-01  0.2348E+00  0.2348E+00
      3.245  0.2736E-01  0.2736E-01  0.2383E+00  0.2383E+00
      3.417  0.1797E-01  0.1797E-01  0.2432E+00  0.2432E+00
      3.588  0.3756E-01  0.3756E-01  0.2476E+00  0.2476E+00
      3.760  0.5205E-02  0.5205E-02  0.2523E+00  0.2523E+00
      3.932  0.3386E-01  0.3386E-01  0.2547E+00  0.2547E+00
      4.103  0.3071E-01  0.3071E-01  0.2617E+00  0.2617E+00
      4.275  0.6234E-02  0.6234E-02  0.2628E+00  0.2628E+00
      4.447  0.4111E-01  0.4111E-01  0.2681E+00  0.2681E+00
      4.618  0.1052E-01  0.1052E-01  0.2722E+00  0.2722E+00
      4.790  0.3200E-01  0.3200E-01  0.2740E+00  0.2740E+00
      4.962  0.2973E-01  0.2973E-01  0.2799E+00  0.2799E+00
      5.133  0.2566E-01  0.2566E-01  0.2843E+00  0.2843E+00
      5.305  0.2309E-01  0.2309E-01  0.2908E+00  0.2908E+00
      5.477  0.5019E-02  0.5019E-02  0.2927E+00  0.2927E+00
      5.648  0.4623E-01  0.4623E-01  0.2987E+00  0.2987E+00
      5.820  0.1725E-01  0.1725E-01  0.3037E+00  0.3037E+00
      5.992  0.5310E-01  0.5310E-01  0.3099E+00  0.3099E+00
      6.163  0.1366E-01  0.1366E-01  0.3133E+00  0.3133E+00
      6.335  0.4520E-01  0.4520E-01  0.3213E+00  0.3213E+00
      6.507  0.7075E-01  0.7075E-01  0.3273E+00  0.3273E+00
      6.679  0.5061E-02  0.5061E-02  0.3333E+00  0.3333E+00
      6.850  0.5134E-01  0.5134E-01  0.3396E+00  0.3396E+00
      7.022  0.1452E-01  0.1452E-01  0.3439E+00  0.3439E+00
      7.194  0.3155E-01  0.3155E-01  0.3511E+00  0.3511E+00
      7.365  0.2538E-01  0.2538E-01  0.3543E+00  0.3543E+00
      7.537  0.3467E-01  0.3467E-01  0.3608E+00  0.3608E+00
      7.709  0.2553E-01  0.2553E-01  0.3653E+00  0.3653E+00
      7.880  0.3232E-01  0.3232E-01  0.3714E+00  0.3714E+00
      8.052  0.1852E-01  0.1852E-01  0.3751E+00  0.3751E+00
      8.224  0.3635E-01  0.3635E-01  0.3809E+00  0.3809E+00
      8.395  0.1691E-01  0.1691E-01  0.3844E+00  0.3844E+00
      8.567  0.4065E-01  0.4065E-01  0.3895E+00  0.3895E+00
      8.739  0.1291E-01  0.1291E-01  0.3946E+00  0.3946E+00
      8.910  0.4287E-01  0.4287E-01  0.4006E+00  0.4006E+00
      9.082  0.2656E-02  0.2656E-02  0.4040E+00  0.4040E+00
      9.254  0.4846E-01  0.4846E-01  0.4091E+00  0.4091E+00
      9.425  0.1343E-01  0.1343E-01  0.4139E+00  0.4139E+00
      9.597  0.1587E-01  0.1587E-01  0.4171E+00  0.4171E+00
      9.769  0.3285E-01  0.3285E-01  0.4219E+00  0.4219E+00
      9.940  0.1196E-01  0.1196E-01  0.4264E+00  0.4264E+00
     10.112  0.3432E-01  0.3432E-01  0.4295E+00  0.4295E+00
     10.284  0.2095E-01  0.2095E-01  0.4360E+00  0.4360E+00
     10.455  0.1350E-01  0.1350E-01  0.4378E+00  0.4378E+00
     10.627  0.2489E-01  0.2489E-01  0.4417E+00  0.4417E+00
     10.799  0.1604E-01  0.1604E-01  0.4449E+00  0.4449E+00
     10.971  0.4253E-01  0.4253E-01  0.4494E+00  0.4494E+00
     11.142  0.1410E-01  0.1410E-01  0.4539E+00  0.4539E+00
     11.314  0.1705E-01  0.1705E-01  0.4562E+00  0.4562E+00
     11.486  0.2687E-01  0.2687E-01  0.4609E+00  0.4609E+00
     11.657  0.1651E-01  0.1651E-01  0.4641E+00  0.4641E+00
     11.829  0.2493E-01  0.2493E-01  0.4686E+00  0.4686E+00
     12.001  0.3506E-01  0.3506E-01  0.4729E+00  0.4729E+00
     12.172  0.1619E-01  0.1619E-01  0.4756E+00  0.4756E+00
     12.344  0.4042E-01  0.4042E-01  0.4819E+00  0.4819E+00
     12.516  0.2112E-02  0.2112E-02  0.4848E+00  0.4848E+00
     12.687  0.0000E+00  0.0000E+00  0.4848E+00  0.4848E+00
     12.859  0.0000E+00  0.0000E+00  0.4848E+00  0.4848E+00
     13.031  0.0000E+00  0.0000E+00  0.4848E+00  0.4848E+00
     13.202  0.0000E+00  0.0000E+00  0.4848E+00  0.4848E+00
     13.374  0.0000E+00  0.0000E+00  0.4848E+00  0.4848E+00
     13.546  0.0000E+00  0.0000E+00  0.4848E+00  0.4848E+00
     13.717  0.0000E+00  0.0000E+00  0.4848E+00  0.4848E+00
     13.889  0.0000E+00  0.0000E+00  0.4848E+00  0.4848E+00
     14.061  0.0000E+00  0.0000E+00  0.4848E+00  0.4848E+00
     14.232  0.0000E+00  0.0000E+00  0.4848E+00  0.4848E+00
     14.404  0.0000E+00  0.0000E+00  0.4848E+00  0.4848E+00
     14.576  0.0000E+00  0.0000E+00  0.4848E+00  0.4848E+00
     14.747  0.0000E+00  0.0000E+00  0.4848E+00  0.4848E+00
     14.919  0.0000E+00  0.0000E+00  0.4848E+00  0.4848E+00
     14.91912629    -36.58460527  301      0.90218348      1.00000000
    -36.585  0.0000E+00  0.0000E+00  0.0000E+00  0.0000E+00  0.0000E+00  0.0000E+00  0.0000E+00  0.0000E+00  0.0000E+00  0.0000E+00  0.0000E+00  0.0000E+00  0.0000E+00  0.0000E+00  0.0000E+00  0.0000E+00  0.0000E+00  0.0000E+00
    -36.413  0.0000E+00  0.0000E+00  0.0000E+00  0.0000E+00  0.0000E+00  0.0000E+00  0.0000E+00  0.0000E+00  0.0000E+00  0.0000E+00  0.0000E+00  0.0000E+00  0.0000E+00  0.0000E+00  0.0000E+00  0.0000E+00  0.0000E+00  0.0000E+00
    -36.241  0.0000E+00  0.0000E+00  0.0000E+00  0.0000E+00  0.0000E+00  0.0000E+00  0.0000E+00  0.0000E+00  0.0000E+00  0.0000E+00  0.0000E+00  0.0000E+00  0.0000E+00  0.0000E+00  0.0000E+00  0.0000E+00  0.0000E+00  0.0000E+00
    -36.070  0.0000E+00  0.0000E+00  0.0000E+00  0.0000E+00  0.0000E+00  0.0000E+00  0.0000E+00  0.0000E+00  0.0000E+00  0.0000E+00  0.0000E+00  0.0000E+00  0.0000E+00  0.0000E+00  0.0000E+00  0.0000E+00  0.0000E+00  0.0000E+00
    -35.898  0.0000E+00  0.0000E+00  0.0000E+00  0.0000E+00  0.0000E+00  0.0000E+00  0.0000E+00  0.0000E+00  0.0000E+00  0.0000E+00  0.0000E+00  0.0000E+00  0.0000E+00  0.0000E+00  0.0000E+00  0.0000E+00  0.0000E+00  0.0000E+00
    -35.726  0.0000E+00  0.0000E+00  0.0000E+00  0.0000E+00  0.0000E+00  0.0000E+00  0.0000E+00  0.0000E+00  0.0000E+00  0.0000E+00  0.0000E+00  0.0000E+00  0.0000E+00  0.0000E+00  0.0000E+00  0.0000E+00  0.0000E+00  0.0000E+00
    -35.555  0.0000E+00  0.0000E+00  0.0000E+00  0.0000E+00  0.0000E+00  0.0000E+00  0.0000E+00  0.0000E+00  0.0000E+00  0.0000E+00  0.0000E+00  0.0000E+00  0.0000E+00  0.0000E+00  0.0000E+00  0.0000E+00  0.0000E+00  0.0000E+00
    -35.383  0.0000E+00  0.0000E+00  0.0000E+00  0.0000E+00  0.0000E+00  0.0000E+00  0.0000E+00  0.0000E+00  0.0000E+00  0.0000E+00  0.0000E+00  0.0000E+00  0.0000E+00  0.0000E+00  0.0000E+00  0.0000E+00  0.0000E+00  0.0000E+00
    -35.211  0.0000E+00  0.0000E+00  0.0000E+00  0.0000E+00  0.0000E+00  0.0000E+00  0.0000E+00  0.0000E+00  0.0000E+00  0.0000E+00  0.0000E+00  0.0000E+00  0.0000E+00  0.0000E+00  0.0000E+00  0.0000E+00  0.0000E+00  0.0000E+00
    -35.039  0.0000E+00  0.0000E+00  0.0000E+00  0.0000E+00  0.0000E+00  0.0000E+00  0.0000E+00  0.0000E+00  0.0000E+00  0.0000E+00  0.0000E+00  0.0000E+00  0.0000E+00  0.0000E+00  0.0000E+00  0.0000E+00  0.0000E+00  0.0000E+00
    -34.868  0.0000E+00  0.0000E+00  0.0000E+00  0.0000E+00  0.0000E+00  0.0000E+00  0.0000E+00  0.0000E+00  0.0000E+00  0.0000E+00  0.0000E+00  0.0000E+00  0.0000E+00  0.0000E+00  0.0000E+00  0.0000E+00  0.0000E+00  0.0000E+00
    -34.696  0.0000E+00  0.0000E+00  0.0000E+00  0.0000E+00  0.0000E+00  0.0000E+00  0.0000E+00  0.0000E+00  0.0000E+00  0.0000E+00  0.0000E+00  0.0000E+00  0.0000E+00  0.0000E+00  0.0000E+00  0.0000E+00  0.0000E+00  0.0000E+00
    -34.524  0.0000E+00  0.0000E+00  0.0000E+00  0.0000E+00  0.0000E+00  0.0000E+00  0.0000E+00  0.0000E+00  0.0000E+00  0.0000E+00  0.0000E+00  0.0000E+00  0.0000E+00  0.0000E+00  0.0000E+00  0.0000E+00  0.0000E+00  0.0000E+00
    -34.353  0.0000E+00  0.0000E+00  0.0000E+00  0.0000E+00  0.0000E+00  0.0000E+00  0.0000E+00  0.0000E+00  0.0000E+00  0.0000E+00  0.0000E+00  0.0000E+00  0.0000E+00  0.0000E+00  0.0000E+00  0.0000E+00  0.0000E+00  0.0000E+00
    -34.181  0.0000E+00  0.0000E+00  0.0000E+00  0.0000E+00  0.0000E+00  0.0000E+00  0.0000E+00  0.0000E+00  0.0000E+00  0.0000E+00  0.0000E+00  0.0000E+00  0.0000E+00  0.0000E+00  0.0000E+00  0.0000E+00  0.0000E+00  0.0000E+00
    -34.009  0.6679E-02  0.6678E-02  0.3037E-05  0.3036E-05  0.3076E-05  0.3076E-05  0.1677E-05  0.1677E-05  0.4759E-06  0.4760E-06  0.8048E-06  0.8048E-06  0.5263E-06  0.5263E-06  0.1143E-05  0.1144E-05  0.9808E-07  0.9808E-07
    -33.838  0.0000E+00  0.0000E+00  0.0000E+00  0.0000E+00  0.0000E+00  0.0000E+00  0.0000E+00  0.0000E+00  0.0000E+00  0.0000E+00  0.0000E+00  0.0000E+00  0.0000E+00  0.0000E+00  0.0000E+00  0.0000E+00  0.0000E+00  0.0000E+00
    -33.666  0.0000E+00  0.0000E+00  0.0000E+00  0.0000E+00  0.0000E+00  0.0000E+00  0.0000E+00  0.0000E+00  0.0000E+00  0.0000E+00  0.0000E+00  0.0000E+00  0.0000E+00  0.0000E+00  0.0000E+00  0.0000E+00  0.0000E+00  0.0000E+00
    -33.494  0.0000E+00  0.0000E+00  0.0000E+00  0.0000E+00  0.0000E+00  0.0000E+00  0.0000E+00  0.0000E+00  0.0000E+00  0.0000E+00  0.0000E+00  0.0000E+00  0.0000E+00  0.0000E+00  0.0000E+00  0.0000E+00  0.0000E+00  0.0000E+00
    -33.323  0.0000E+00  0.0000E+00  0.0000E+00  0.0000E+00  0.0000E+00  0.0000E+00  0.0000E+00  0.0000E+00  0.0000E+00  0.0000E+00  0.0000E+00  0.0000E+00  0.0000E+00  0.0000E+00  0.0000E+00  0.0000E+00  0.0000E+00  0.0000E+00
    -33.151  0.0000E+00  0.0000E+00  0.0000E+00  0.0000E+00  0.0000E+00  0.0000E+00  0.0000E+00  0.0000E+00  0.0000E+00  0.0000E+00  0.0000E+00  0.0000E+00  0.0000E+00  0.0000E+00  0.0000E+00  0.0000E+00  0.0000E+00  0.0000E+00
    -32.979  0.0000E+00  0.0000E+00  0.0000E+00  0.0000E+00  0.0000E+00  0.0000E+00  0.0000E+00  0.0000E+00  0.0000E+00  0.0000E+00  0.0000E+00  0.0000E+00  0.0000E+00  0.0000E+00  0.0000E+00  0.0000E+00  0.0000E+00  0.0000E+00
    -32.808  0.0000E+00  0.0000E+00  0.0000E+00  0.0000E+00  0.0000E+00  0.0000E+00  0.0000E+00  0.0000E+00  0.0000E+00  0.0000E+00  0.0000E+00  0.0000E+00  0.0000E+00  0.0000E+00  0.0000E+00  0.0000E+00  0.0000E+00  0.0000E+00
    -32.636  0.0000E+00  0.0000E+00  0.0000E+00  0.0000E+00  0.0000E+00  0.0000E+00  0.0000E+00  0.0000E+00  0.0000E+00  0.0000E+00  0.0000E+00  0.0000E+00  0.0000E+00  0.0000E+00  0.0000E+00  0.0000E+00  0.0000E+00  0.0000E+00
    -32.464  0.0000E+00  0.0000E+00  0.0000E+00  0.0000E+00  0.0000E+00  0.0000E+00  0.0000E+00  0.0000E+00  0.0000E+00  0.0000E+00  0.0000E+00  0.0000E+00  0.0000E+00  0.0000E+00  0.0000E+00  0.0000E+00  0.0000E+00  0.0000E+00
    -32.293  0.0000E+00  0.0000E+00  0.0000E+00  0.0000E+00  0.0000E+00  0.0000E+00  0.0000E+00  0.0000E+00  0.0000E+00  0.0000E+00  0.0000E+00  0.0000E+00  0.0000E+00  0.0000E+00  0.0000E+00  0.0000E+00  0.0000E+00  0.0000E+00
    -32.121  0.0000E+00  0.0000E+00  0.0000E+00  0.0000E+00  0.0000E+00  0.0000E+00  0.0000E+00  0.0000E+00  0.0000E+00  0.0000E+00  0.0000E+00  0.0000E+00  0.0000E+00  0.0000E+00  0.0000E+00  0.0000E+00  0.0000E+00  0.0000E+00
    -31.949  0.0000E+00  0.0000E+00  0.0000E+00  0.0000E+00  0.0000E+00  0.0000E+00  0.0000E+00  0.0000E+00  0.0000E+00  0.0000E+00  0.0000E+00  0.0000E+00  0.0000E+00  0.0000E+00  0.0000E+00  0.0000E+00  0.0000E+00  0.0000E+00
    -31.778  0.0000E+00  0.0000E+00  0.0000E+00  0.0000E+00  0.0000E+00  0.0000E+00  0.0000E+00  0.0000E+00  0.0000E+00  0.0000E+00  0.0000E+00  0.0000E+00  0.0000E+00  0.0000E+00  0.0000E+00  0.0000E+00  0.0000E+00  0.0000E+00
    -31.606  0.0000E+00  0.0000E+00  0.0000E+00  0.0000E+00  0.0000E+00  0.0000E+00  0.0000E+00  0.0000E+00  0.0000E+00  0.0000E+00  0.0000E+00  0.0000E+00  0.0000E+00  0.0000E+00  0.0000E+00  0.0000E+00  0.0000E+00  0.0000E+00
    -31.434  0.0000E+00  0.0000E+00  0.0000E+00  0.0000E+00  0.0000E+00  0.0000E+00  0.0000E+00  0.0000E+00  0.0000E+00  0.0000E+00  0.0000E+00  0.0000E+00  0.0000E+00  0.0000E+00  0.0000E+00  0.0000E+00  0.0000E+00  0.0000E+00
    -31.263  0.0000E+00  0.0000E+00  0.0000E+00  0.0000E+00  0.0000E+00  0.0000E+00  0.0000E+00  0.0000E+00  0.0000E+00  0.0000E+00  0.0000E+00  0.0000E+00  0.0000E+00  0.0000E+00  0.0000E+00  0.0000E+00  0.0000E+00  0.0000E+00
    -31.091  0.0000E+00  0.0000E+00  0.0000E+00  0.0000E+00  0.0000E+00  0.0000E+00  0.0000E+00  0.0000E+00  0.0000E+00  0.0000E+00  0.0000E+00  0.0000E+00  0.0000E+00  0.0000E+00  0.0000E+00  0.0000E+00  0.0000E+00  0.0000E+00
    -30.919  0.0000E+00  0.0000E+00  0.0000E+00  0.0000E+00  0.0000E+00  0.0000E+00  0.0000E+00  0.0000E+00  0.0000E+00  0.0000E+00  0.0000E+00  0.0000E+00  0.0000E+00  0.0000E+00  0.0000E+00  0.0000E+00  0.0000E+00  0.0000E+00
    -30.748  0.0000E+00  0.0000E+00  0.0000E+00  0.0000E+00  0.0000E+00  0.0000E+00  0.0000E+00  0.0000E+00  0.0000E+00  0.0000E+00  0.0000E+00  0.0000E+00  0.0000E+00  0.0000E+00  0.0000E+00  0.0000E+00  0.0000E+00  0.0000E+00
    -30.576  0.0000E+00  0.0000E+00  0.0000E+00  0.0000E+00  0.0000E+00  0.0000E+00  0.0000E+00  0.0000E+00  0.0000E+00  0.0000E+00  0.0000E+00  0.0000E+00  0.0000E+00  0.0000E+00  0.0000E+00  0.0000E+00  0.0000E+00  0.0000E+00
    -30.404  0.0000E+00  0.0000E+00  0.0000E+00  0.0000E+00  0.0000E+00  0.0000E+00  0.0000E+00  0.0000E+00  0.0000E+00  0.0000E+00  0.0000E+00  0.0000E+00  0.0000E+00  0.0000E+00  0.0000E+00  0.0000E+00  0.0000E+00  0.0000E+00
    -30.232  0.0000E+00  0.0000E+00  0.0000E+00  0.0000E+00  0.0000E+00  0.0000E+00  0.0000E+00  0.0000E+00  0.0000E+00  0.0000E+00  0.0000E+00  0.0000E+00  0.0000E+00  0.0000E+00  0.0000E+00  0.0000E+00  0.0000E+00  0.0000E+00
    -30.061  0.1677E-03  0.1677E-03  0.8761E-05  0.8762E-05  0.4253E-04  0.4253E-04  0.3461E-05  0.3461E-05  0.8435E-06  0.8437E-06  0.5422E-05  0.5422E-05  0.5056E-05  0.5055E-05  0.2019E-05  0.2019E-05  0.4279E-08  0.4273E-08
    -29.889  0.0000E+00  0.0000E+00  0.0000E+00  0.0000E+00  0.0000E+00  0.0000E+00  0.0000E+00  0.0000E+00  0.0000E+00  0.0000E+00  0.0000E+00  0.0000E+00  0.0000E+00  0.0000E+00  0.0000E+00  0.0000E+00  0.0000E+00  0.0000E+00
    -29.717  0.0000E+00  0.0000E+00  0.0000E+00  0.0000E+00  0.0000E+00  0.0000E+00  0.0000E+00  0.0000E+00  0.0000E+00  0.0000E+00  0.0000E+00  0.0000E+00  0.0000E+00  0.0000E+00  0.0000E+00  0.0000E+00  0.0000E+00  0.0000E+00
    -29.546  0.0000E+00  0.0000E+00  0.0000E+00  0.0000E+00  0.0000E+00  0.0000E+00  0.0000E+00  0.0000E+00  0.0000E+00  0.0000E+00  0.0000E+00  0.0000E+00  0.0000E+00  0.0000E+00  0.0000E+00  0.0000E+00  0.0000E+00  0.0000E+00
    -29.374  0.0000E+00  0.0000E+00  0.0000E+00  0.0000E+00  0.0000E+00  0.0000E+00  0.0000E+00  0.0000E+00  0.0000E+00  0.0000E+00  0.0000E+00  0.0000E+00  0.0000E+00  0.0000E+00  0.0000E+00  0.0000E+00  0.0000E+00  0.0000E+00
    -29.202  0.0000E+00  0.0000E+00  0.0000E+00  0.0000E+00  0.0000E+00  0.0000E+00  0.0000E+00  0.0000E+00  0.0000E+00  0.0000E+00  0.0000E+00  0.0000E+00  0.0000E+00  0.0000E+00  0.0000E+00  0.0000E+00  0.0000E+00  0.0000E+00
    -29.031  0.0000E+00  0.0000E+00  0.0000E+00  0.0000E+00  0.0000E+00  0.0000E+00  0.0000E+00  0.0000E+00  0.0000E+00  0.0000E+00  0.0000E+00  0.0000E+00  0.0000E+00  0.0000E+00  0.0000E+00  0.0000E+00  0.0000E+00  0.0000E+00
    -28.859  0.0000E+00  0.0000E+00  0.0000E+00  0.0000E+00  0.0000E+00  0.0000E+00  0.0000E+00  0.0000E+00  0.0000E+00  0.0000E+00  0.0000E+00  0.0000E+00  0.0000E+00  0.0000E+00  0.0000E+00  0.0000E+00  0.0000E+00  0.0000E+00
    -28.687  0.0000E+00  0.0000E+00  0.0000E+00  0.0000E+00  0.0000E+00  0.0000E+00  0.0000E+00  0.0000E+00  0.0000E+00  0.0000E+00  0.0000E+00  0.0000E+00  0.0000E+00  0.0000E+00  0.0000E+00  0.0000E+00  0.0000E+00  0.0000E+00
    -28.516  0.0000E+00  0.0000E+00  0.0000E+00  0.0000E+00  0.0000E+00  0.0000E+00  0.0000E+00  0.0000E+00  0.0000E+00  0.0000E+00  0.0000E+00  0.0000E+00  0.0000E+00  0.0000E+00  0.0000E+00  0.0000E+00  0.0000E+00  0.0000E+00
    -28.344  0.0000E+00  0.0000E+00  0.0000E+00  0.0000E+00  0.0000E+00  0.0000E+00  0.0000E+00  0.0000E+00  0.0000E+00  0.0000E+00  0.0000E+00  0.0000E+00  0.0000E+00  0.0000E+00  0.0000E+00  0.0000E+00  0.0000E+00  0.0000E+00
    -28.172  0.0000E+00  0.0000E+00  0.0000E+00  0.0000E+00  0.0000E+00  0.0000E+00  0.0000E+00  0.0000E+00  0.0000E+00  0.0000E+00  0.0000E+00  0.0000E+00  0.0000E+00  0.0000E+00  0.0000E+00  0.0000E+00  0.0000E+00  0.0000E+00
    -28.001  0.0000E+00  0.0000E+00  0.0000E+00  0.0000E+00  0.0000E+00  0.0000E+00  0.0000E+00  0.0000E+00  0.0000E+00  0.0000E+00  0.0000E+00  0.0000E+00  0.0000E+00  0.0000E+00  0.0000E+00  0.0000E+00  0.0000E+00  0.0000E+00