       N       E                     dE             d eps       ncg     rms          rms(c)
DAV:   1     0.225500463562E+03    0.22550E+03   -0.19263E+04  6144   0.813E+02
DAV:   2    -0.383939227155E+02   -0.26389E+03   -0.25119E+03  6640   0.236E+02
DAV:   3    -0.551687080551E+02   -0.16775E+02   -0.16595E+02 10640   0.537E+01
DAV:   4    -0.555452855577E+02   -0.37658E+00   -0.37571E+00  7344   0.589E+00
DAV:   5    -0.555556641818E+02   -0.10379E-01   -0.10376E-01  9616   0.897E-01    0.401E+01
RMM:   6    -0.563243316361E+02   -0.76867E+00   -0.52886E+00  6550   0.707E+00    0.199E+01
RMM:   7    -0.558174239513E+02    0.50691E+00   -0.14673E+00  6665   0.518E+00    0.941E+00
RMM:   8    -0.558764090465E+02   -0.58985E-01   -0.30946E-01  6439   0.299E+00    0.423E+00
RMM:   9    -0.559073010086E+02   -0.30892E-01   -0.81694E-02  6416   0.138E+00    0.183E+00
RMM:  10    -0.559142853047E+02   -0.69843E-02   -0.18672E-02  6264   0.860E-01    0.105E+00
RMM:  11    -0.559159436053E+02   -0.16583E-02   -0.45936E-03  5778   0.368E-01    0.320E-01
RMM:  12    -0.559164632364E+02   -0.51963E-03   -0.12152E-03  5262   0.220E-01
   1 F= -.55916463E+02 E0= -.55916463E+02  d E =-.559165E+02  mag=     0.0039
       N       E                     dE             d eps       ncg     rms          rms(c)
DAV:   1    -0.561504920580E+02   -0.23455E+00   -0.33992E+00  8464   0.882E+00    0.434E+00
RMM:   2    -0.560143086062E+02    0.13618E+00   -0.37329E-01  6703   0.253E+00    0.108E+00
RMM:   3    -0.559862879411E+02    0.28021E-01   -0.38114E-02  6679   0.127E+00    0.973E-01
RMM:   4    -0.559798064508E+02    0.64815E-02   -0.13015E-02  6326   0.580E-01    0.935E-01
RMM:   5    -0.559794240293E+02    0.38242E-03   -0.45508E-03  6116   0.485E-01
   2 F= -.55979424E+02 E0= -.55979424E+02  d E =-.629608E-01  mag=     0.0002
       N       E                     dE             d eps       ncg     rms          rms(c)
DAV:   1    -0.574918991998E+02   -0.15121E+01   -0.29774E+01  7040   0.259E+01    0.133E+01
RMM:   2    -0.563001712600E+02    0.11917E+01   -0.32638E+00  6577   0.750E+00    0.336E+00
RMM:   3    -0.560036195224E+02    0.29655E+00   -0.35125E-01  6447   0.418E+00    0.316E+00
RMM:   4    -0.559533118181E+02    0.50308E-01   -0.11068E-01  6866   0.165E+00    0.349E+00
RMM:   5    -0.559497407679E+02    0.35711E-02   -0.44960E-02  7249   0.141E+00    0.793E-01
RMM:   6    -0.559423590264E+02    0.73817E-02   -0.68865E-02  7580   0.833E-01    0.487E-01
RMM:   7    -0.559444672660E+02   -0.21082E-02   -0.18888E-02  7299   0.713E-01    0.322E-01
RMM:   8    -0.559450531955E+02   -0.58593E-03   -0.46339E-03  6568   0.200E-01
   3 F= -.55945053E+02 E0= -.55945053E+02  d E =-.285900E-01  mag=     0.0001
       N       E                     dE             d eps       ncg     rms          rms(c)
DAV:   1    -0.563904603847E+02   -0.44599E+00   -0.73818E+00  8256   0.125E+01    0.605E+00
RMM:   2    -0.560817837332E+02    0.30868E+00   -0.79677E-01  6745   0.370E+00    0.160E+00
RMM:   3    -0.560188821478E+02    0.62902E-01   -0.84213E-02  6950   0.166E+00    0.119E+00
RMM:   4    -0.560003347719E+02    0.18547E-01   -0.35924E-02  6739   0.864E-01    0.108E+00
RMM:   5    -0.560011543278E+02   -0.81956E-03   -0.11928E-02  6878   0.688E-01    0.272E-01
RMM:   6    -0.560011893418E+02   -0.35014E-04   -0.10180E-02  7054   0.302E-01    0.113E-01
RMM:   7    -0.560013918901E+02   -0.20255E-03   -0.17151E-03  5666   0.200E-01
   4 F= -.56001392E+02 E0= -.56001392E+02  d E =-.849287E-01  mag=    -0.0000
       N       E                     dE             d eps       ncg     rms          rms(c)
DAV:   1    -0.559903557221E+02    0.10834E-01   -0.26976E+00  6576   0.773E+00    0.198E+00
RMM:   2    -0.559870048249E+02    0.33509E-02   -0.18324E-01  6453   0.167E+00    0.114E+00
RMM:   3    -0.559810479251E+02    0.59569E-02   -0.19317E-02  6536   0.125E+00    0.364E-01
RMM:   4    -0.559813856187E+02   -0.33769E-03   -0.43232E-03  5956   0.252E-01
   5 F= -.55981386E+02 E0= -.55981386E+02  d E =0.200063E-01  mag=    -0.0000
       N       E                     dE             d eps       ncg     rms          rms(c)
DAV:   1    -0.560219865448E+02   -0.40939E-01   -0.94466E-01  6496   0.459E+00    0.130E+00
RMM:   2    -0.560212686024E+02    0.71794E-03   -0.63213E-02  6540   0.961E-01    0.705E-01
RMM:   3    -0.560188796213E+02    0.23890E-02   -0.52854E-03  6022   0.641E-01    0.143E-01
RMM:   4    -0.560188414369E+02    0.38184E-04   -0.10495E-03  4909   0.180E-01
   6 F= -.56018841E+02 E0= -.56018841E+02  d E =-.174495E-01  mag=    -0.0000
       N       E                     dE             d eps       ncg     rms          rms(c)
DAV:   1    -0.560348273441E+02   -0.15948E-01   -0.94541E-01  7200   0.500E+00    0.677E-01
RMM:   2    -0.560361717602E+02   -0.13444E-02   -0.44831E-02  6226   0.819E-01    0.338E-01
RMM:   3    -0.560353586568E+02    0.81310E-03   -0.22704E-03  5325   0.434E-01    0.327E-01
RMM:   4    -0.560352875488E+02    0.71108E-04   -0.53514E-04  4566   0.111E-01
   7 F= -.56035288E+02 E0= -.56035288E+02  d E =-.164461E-01  mag=     0.0000
       N       E                     dE             d eps       ncg     rms          rms(c)
DAV:   1    -0.560364924483E+02   -0.11338E-02   -0.13103E-01  9216   0.188E+00    0.384E-01
RMM:   2    -0.560366822220E+02   -0.18977E-03   -0.63832E-03  5963   0.306E-01
   8 F= -.56036682E+02 E0= -.56036682E+02  d E =-.178408E-01  mag=     0.0000
       N       E                     dE             d eps       ncg     rms          rms(c)
DAV:   1    -0.560550123994E+02   -0.18520E-01   -0.10985E+00  7200   0.542E+00    0.829E-01
RMM:   2    -0.560482470586E+02    0.67653E-02   -0.71455E-02  6643   0.106E+00    0.442E-01
RMM:   3    -0.560459797661E+02    0.22673E-02   -0.33399E-03  5679   0.470E-01    0.350E-01
RMM:   4    -0.560456738012E+02    0.30596E-03   -0.22057E-03  5522   0.203E-01
   9 F= -.56045674E+02 E0= -.56045674E+02  d E =-.899158E-02  mag=    -0.0000
       N       E                     dE             d eps       ncg     rms          rms(c)
DAV:   1    -0.560460392392E+02   -0.59473E-04   -0.28041E-02  9216   0.917E-01    0.149E-01
RMM:   2    -0.560458011560E+02    0.23808E-03   -0.16679E-03  4781   0.171E-01
  10 F= -.56045801E+02 E0= -.56045801E+02  d E =-.911893E-02  mag=    -0.0000
       N       E                     dE             d eps       ncg     rms          rms(c)
DAV:   1    -0.560638634517E+02   -0.17824E-01   -0.42438E-01  6144   0.299E+00    0.992E-01
RMM:   2    -0.560542859249E+02    0.95775E-02   -0.32693E-02  6553   0.810E-01    0.328E-01
RMM:   3    -0.560523829428E+02    0.19030E-02   -0.30953E-03  5604   0.475E-01    0.243E-01
RMM:   4    -0.560519951298E+02    0.38781E-03   -0.16279E-03  5136   0.196E-01
  11 F= -.56051995E+02 E0= -.56051995E+02  d E =-.619397E-02  mag=     0.0000
       N       E                     dE             d eps       ncg     rms          rms(c)
DAV:   1    -0.561606884465E+02   -0.10831E+00   -0.37862E+00  6144   0.891E+00    0.301E+00
RMM:   2    -0.560781919080E+02    0.82497E-01   -0.28917E-01  6562   0.243E+00    0.983E-01
RMM:   3    -0.560616962989E+02    0.16496E-01   -0.29364E-02  6566   0.142E+00    0.656E-01
RMM:   4    -0.560580625213E+02    0.36338E-02   -0.13928E-02  6411   0.522E-01    0.685E-01
RMM:   5    -0.560589397569E+02   -0.87724E-03   -0.62491E-03  6272   0.442E-01    0.344E-01
RMM:   6    -0.560591427613E+02   -0.20300E-03   -0.30026E-03  5936   0.193E-01
  12 F= -.56059143E+02 E0= -.56059143E+02  d E =-.133416E-01  mag=    -0.0000
       N       E                     dE             d eps       ncg     rms          rms(c)
DAV:   1    -0.560834162268E+02   -0.24476E-01   -0.11735E+00  8256   0.595E+00    0.119E+00
RMM:   2    -0.560735025907E+02    0.99136E-02   -0.85123E-02  6706   0.114E+00    0.394E-01
RMM:   3    -0.560702501620E+02    0.32524E-02   -0.56100E-03  6329   0.477E-01    0.243E-01
RMM:   4    -0.560699578710E+02    0.29229E-03   -0.42219E-03  5854   0.250E-01
  13 F= -.56069958E+02 E0= -.56069958E+02  d E =-.108151E-01  mag=    -0.0000
       N       E                     dE             d eps       ncg     rms          rms(c)
DAV:   1    -0.560856767130E+02   -0.15427E-01   -0.10791E+00  7552   0.571E+00    0.112E+00
RMM:   2    -0.560750782225E+02    0.10598E-01   -0.78945E-02  6719   0.110E+00    0.407E-01
RMM:   3    -0.560716162170E+02    0.34620E-02   -0.59077E-03  6361   0.476E-01    0.277E-01
RMM:   4    -0.560712944320E+02    0.32179E-03   -0.45952E-03  5854   0.257E-01
  14 F= -.56071294E+02 E0= -.56071294E+02  d E =-.121517E-01  mag=    -0.0000
       N       E                     dE             d eps       ncg     rms          rms(c)
DAV:   1    -0.560821115825E+02   -0.10495E-01   -0.55908E-01  7584   0.408E+00    0.853E-01
RMM:   2    -0.560763340953E+02    0.57775E-02   -0.41179E-02  6696   0.816E-01    0.308E-01
RMM:   3    -0.560744105927E+02    0.19235E-02   -0.33425E-03  5822   0.352E-01    0.231E-01
RMM:   4    -0.560743045255E+02    0.10607E-03   -0.21575E-03  5372   0.178E-01
  15 F= -.56074305E+02 E0= -.56074305E+02  d E =-.301009E-02  mag=     0.0000
       N       E                     dE             d eps       ncg     rms          rms(c)
DAV:   1    -0.560761479831E+02   -0.17374E-02   -0.16344E-01  8960   0.224E+00    0.409E-01
RMM:   2    -0.560746116316E+02    0.15364E-02   -0.11795E-02  6458   0.446E-01    0.170E-01
RMM:   3    -0.560741531779E+02    0.45845E-03   -0.81413E-04  4429   0.215E-01
  16 F= -.56074153E+02 E0= -.56074153E+02  d E =-.285875E-02  mag=     0.0000
