       N       E                     dE             d eps       ncg     rms          rms(c)
DAV:   1     0.173867348695E+03    0.17387E+03   -0.14414E+04 14960   0.731E+02
DAV:   2    -0.482791895644E+02   -0.22215E+03   -0.21535E+03 18536   0.279E+02
DAV:   3    -0.626905475073E+02   -0.14411E+02   -0.14355E+02 22216   0.555E+01
DAV:   4    -0.635084445918E+02   -0.81790E+00   -0.81606E+00 24424   0.119E+01
DAV:   5    -0.635253124134E+02   -0.16868E-01   -0.16867E-01 21920   0.151E+00    0.416E+01
DAV:   6    -0.608773526048E+02    0.26480E+01   -0.46397E+00 21696   0.128E+01    0.195E+01
DAV:   7    -0.600813950060E+02    0.79596E+00   -0.20334E+00 21696   0.591E+00    0.793E+00
DAV:   8    -0.600743472160E+02    0.70478E-02   -0.46187E-01 23608   0.345E+00    0.275E+00
DAV:   9    -0.600749181429E+02   -0.57093E-03   -0.49184E-02 19704   0.978E-01    0.441E-01
DAV:  10    -0.600752910959E+02   -0.37295E-03   -0.55866E-03 21312   0.428E-01    0.170E-01
DAV:  11    -0.600756960291E+02   -0.40493E-03   -0.53271E-04 16520   0.138E-01    0.464E-02
DAV:  12    -0.600758325160E+02   -0.13649E-03   -0.16776E-04 16768   0.742E-02    0.199E-02
DAV:  13    -0.600758519051E+02   -0.19389E-04   -0.32351E-05 13408   0.354E-02
   1 F= -.60075852E+02 E0= -.60075925E+02  d E =-.600759E+02
       N       E                     dE             d eps       ncg     rms          rms(c)
DAV:   1    -0.600768241316E+02   -0.99162E-03   -0.77689E-02 17568   0.166E+00    0.183E-01
DAV:   2    -0.600771047692E+02   -0.28064E-03   -0.52891E-03 18952   0.379E-01    0.950E-02
DAV:   3    -0.600770408925E+02    0.63877E-04   -0.16928E-04 17304   0.764E-02
   2 F= -.60077041E+02 E0= -.60077114E+02  d E =-.118899E-02
       N       E                     dE             d eps       ncg     rms          rms(c)
DAV:   1    -0.600770646032E+02    0.40166E-04   -0.12024E-03 18416   0.214E-01    0.348E-02
DAV:   2    -0.600770676764E+02   -0.30732E-05   -0.79514E-05 10496   0.508E-02
   3 F= -.60077068E+02 E0= -.60077141E+02  d E =-.121577E-02
       N       E                     dE             d eps       ncg     rms          rms(c)
DAV:   1    -0.600779305434E+02   -0.86594E-03   -0.40279E-02 16520   0.125E+00    0.144E-01
DAV:   2    -0.600779027308E+02    0.27813E-04   -0.26749E-03 19968   0.337E-01    0.818E-02
DAV:   3    -0.600778727570E+02    0.29974E-04   -0.96441E-05 12472   0.611E-02
   4 F= -.60077873E+02 E0= -.60077947E+02  d E =-.805081E-03
       N       E                     dE             d eps       ncg     rms          rms(c)
DAV:   1    -0.600779701203E+02   -0.67390E-04   -0.16197E-02 16512   0.788E-01    0.845E-02
DAV:   2    -0.600779432216E+02    0.26899E-04   -0.10513E-03 19976   0.216E-01    0.762E-02
DAV:   3    -0.600779333880E+02    0.98336E-05   -0.42382E-05 11840   0.395E-02
   5 F= -.60077933E+02 E0= -.60078008E+02  d E =-.865712E-03
