       N       E                     dE             d eps       ncg     rms          rms(c)
DAV:   1     0.168265240601E+03    0.16827E+03   -0.13714E+04 15288   0.696E+02
DAV:   2    -0.429337820012E+02   -0.21120E+03   -0.20472E+03 19016   0.268E+02
DAV:   3    -0.566815270110E+02   -0.13748E+02   -0.13685E+02 22704   0.530E+01
DAV:   4    -0.575406616244E+02   -0.85913E+00   -0.85699E+00 25176   0.116E+01
DAV:   5    -0.575562695380E+02   -0.15608E-01   -0.15632E-01 22456   0.144E+00    0.413E+01
DAV:   6    -0.544568569410E+02    0.30994E+01   -0.65469E+00 22616   0.146E+01    0.184E+01
DAV:   7    -0.536947451535E+02    0.76211E+00   -0.20574E+00 22208   0.605E+00    0.914E+00
DAV:   8    -0.536716216995E+02    0.23123E-01   -0.62974E-01 23896   0.376E+00    0.271E+00
DAV:   9    -0.536698790144E+02    0.17427E-02   -0.53564E-02 19328   0.107E+00    0.744E-01
DAV:  10    -0.536701797297E+02   -0.30072E-03   -0.13572E-02 22368   0.545E-01    0.226E-01
DAV:  11    -0.536706978291E+02   -0.51810E-03   -0.82548E-04 19072   0.164E-01    0.886E-02
DAV:  12    -0.536710248218E+02   -0.32699E-03   -0.38639E-04 16608   0.954E-02    0.322E-02
DAV:  13    -0.536710466235E+02   -0.21802E-04   -0.38512E-05 15168   0.358E-02
   1 F= -.53671047E+02 E0= -.53671061E+02  d E =-.536710E+02
       N       E                     dE             d eps       ncg     rms          rms(c)
DAV:   1    -0.536860787777E+02   -0.15054E-01   -0.26887E+00 16704   0.119E+01    0.907E-01
DAV:   2    -0.537070156573E+02   -0.20937E-01   -0.32509E-01 17624   0.273E+00    0.482E-01
DAV:   3    -0.537046593846E+02    0.23563E-02   -0.64778E-03 22280   0.470E-01    0.248E-01
DAV:   4    -0.537038026978E+02    0.85669E-03   -0.22186E-03 22408   0.296E-01    0.746E-02
DAV:   5    -0.537038151081E+02   -0.12410E-04   -0.32530E-04 16456   0.105E-01
   2 F= -.53703815E+02 E0= -.53703828E+02  d E =-.327685E-01
       N       E                     dE             d eps       ncg     rms          rms(c)
DAV:   1    -0.537039357374E+02   -0.13304E-03   -0.69413E-02 17056   0.191E+00    0.143E-01
DAV:   2    -0.537045105418E+02   -0.57480E-03   -0.86818E-03 17976   0.443E-01    0.769E-02
DAV:   3    -0.537044506147E+02    0.59927E-04   -0.16443E-04 18968   0.778E-02
   3 F= -.53704451E+02 E0= -.53704463E+02  d E =-.334040E-01
       N       E                     dE             d eps       ncg     rms          rms(c)
DAV:   1    -0.537294484214E+02   -0.24938E-01   -0.77342E-01 16000   0.555E+00    0.590E-01
DAV:   2    -0.537294944005E+02   -0.45979E-04   -0.43077E-02 18640   0.118E+00    0.375E-01
DAV:   3    -0.537281648302E+02    0.13296E-02   -0.25023E-03 21600   0.293E-01    0.150E-01
DAV:   4    -0.537280250996E+02    0.13973E-03   -0.56385E-04 18920   0.142E-01    0.655E-02
DAV:   5    -0.537280277200E+02   -0.26205E-05   -0.55483E-05 12680   0.483E-02
   4 F= -.53728028E+02 E0= -.53728039E+02  d E =-.235771E-01
       N       E                     dE             d eps       ncg     rms          rms(c)
DAV:   1    -0.537465856888E+02   -0.18561E-01   -0.19188E+00 16168   0.873E+00    0.908E-01
DAV:   2    -0.537467802821E+02   -0.19459E-03   -0.10547E-01 18664   0.184E+00    0.582E-01
DAV:   3    -0.537435836746E+02    0.31966E-02   -0.59569E-03 21648   0.450E-01    0.234E-01
DAV:   4    -0.537432298383E+02    0.35384E-03   -0.14114E-03 21416   0.222E-01    0.102E-01
DAV:   5    -0.537432362697E+02   -0.64314E-05   -0.12714E-04 13352   0.720E-02
   5 F= -.53743236E+02 E0= -.53743246E+02  d E =-.387857E-01
       N       E                     dE             d eps       ncg     rms          rms(c)
DAV:   1    -0.537594144432E+02   -0.16185E-01   -0.76236E-01 16256   0.570E+00    0.671E-01
DAV:   2    -0.537606331910E+02   -0.12187E-02   -0.58475E-02 19112   0.143E+00    0.262E-01
DAV:   3    -0.537598739621E+02    0.75923E-03   -0.27282E-03 23392   0.276E-01    0.146E-01
DAV:   4    -0.537596489247E+02    0.22504E-03   -0.77290E-04 23760   0.152E-01    0.128E-01
DAV:   5    -0.537596733312E+02   -0.24407E-04   -0.69508E-05 12760   0.464E-02
   6 F= -.53759673E+02 E0= -.53759673E+02  d E =-.164371E-01
       N       E                     dE             d eps       ncg     rms          rms(c)
DAV:   1    -0.537648431398E+02   -0.51942E-02   -0.93822E-01 16304   0.634E+00    0.760E-01
DAV:   2    -0.537662832586E+02   -0.14401E-02   -0.71308E-02 19104   0.158E+00    0.291E-01
DAV:   3    -0.537653052305E+02    0.97803E-03   -0.33395E-03 23320   0.304E-01    0.161E-01
DAV:   4    -0.537650574960E+02    0.24773E-03   -0.95945E-04 24360   0.168E-01    0.143E-01
DAV:   5    -0.537650909734E+02   -0.33477E-04   -0.92946E-05 13360   0.513E-02
   7 F= -.53765091E+02 E0= -.53765102E+02  d E =-.218547E-01
       N       E                     dE             d eps       ncg     rms          rms(c)
DAV:   1    -0.537751490962E+02   -0.10092E-01   -0.22022E-01 14880   0.269E+00    0.419E-01
DAV:   2    -0.537746678997E+02    0.48120E-03   -0.89113E-03 20472   0.661E-01    0.148E-01
DAV:   3    -0.537744017585E+02    0.26614E-03   -0.65733E-04 20832   0.146E-01    0.864E-02
DAV:   4    -0.537743491693E+02    0.52589E-04   -0.21700E-04 16168   0.834E-02
   8 F= -.53774349E+02 E0= -.53774361E+02  d E =-.925820E-02
       N       E                     dE             d eps       ncg     rms          rms(c)
DAV:   1    -0.537994804867E+02   -0.25079E-01   -0.20000E+00 14848   0.811E+00    0.125E+00
DAV:   2    -0.537953496512E+02    0.41308E-02   -0.82163E-02 20536   0.200E+00    0.432E-01
DAV:   3    -0.537929303669E+02    0.24193E-02   -0.58488E-03 21968   0.436E-01    0.267E-01
DAV:   4    -0.537923995926E+02    0.53077E-03   -0.23114E-03 25688   0.249E-01    0.236E-01
DAV:   5    -0.537924795749E+02   -0.79982E-04   -0.18072E-04 15272   0.635E-02
   9 F= -.53792480E+02 E0= -.53792494E+02  d E =-.273886E-01
       N       E                     dE             d eps       ncg     rms          rms(c)
DAV:   1    -0.538112900627E+02   -0.18890E-01   -0.79961E+00 14848   0.162E+01    0.259E+00
DAV:   2    -0.537954044006E+02    0.15886E-01   -0.33001E-01 20568   0.405E+00    0.865E-01
DAV:   3    -0.537858766375E+02    0.95278E-02   -0.22430E-02 22360   0.849E-01    0.497E-01
DAV:   4    -0.537838893902E+02    0.19872E-02   -0.86751E-03 25584   0.482E-01    0.441E-01
DAV:   5    -0.537841853840E+02   -0.29599E-03   -0.83755E-04 21448   0.127E-01    0.220E-01
DAV:   6    -0.537842295059E+02   -0.44122E-04   -0.70668E-04 24576   0.136E-01
  10 F= -.53784230E+02 E0= -.53784251E+02  d E =-.191385E-01
       N       E                     dE             d eps       ncg     rms          rms(c)
DAV:   1    -0.538065403187E+02   -0.22355E-01   -0.29772E+00 14848   0.991E+00    0.152E+00
DAV:   2    -0.538009956723E+02    0.55446E-02   -0.12660E-01 20592   0.250E+00    0.546E-01
DAV:   3    -0.537973240972E+02    0.36716E-02   -0.90177E-03 21784   0.550E-01    0.325E-01
DAV:   4    -0.537964162611E+02    0.90784E-03   -0.31574E-03 24512   0.300E-01    0.288E-01
DAV:   5    -0.537964998107E+02   -0.83550E-04   -0.31256E-04 17640   0.778E-02
  11 F= -.53796500E+02 E0= -.53796517E+02  d E =-.314088E-01
       N       E                     dE             d eps       ncg     rms          rms(c)
DAV:   1    -0.538052530742E+02   -0.88368E-02   -0.74144E-01 16704   0.612E+00    0.404E-01
DAV:   2    -0.538110312820E+02   -0.57782E-02   -0.78805E-02 17280   0.140E+00    0.174E-01
DAV:   3    -0.538109736414E+02    0.57641E-04   -0.15870E-03 23576   0.205E-01    0.107E-01
DAV:   4    -0.538109305369E+02    0.43105E-04   -0.22758E-04 15744   0.983E-02
  12 F= -.53810931E+02 E0= -.53810951E+02  d E =-.144307E-01
       N       E                     dE             d eps       ncg     rms          rms(c)
DAV:   1    -0.538004777811E+02    0.10496E-01   -0.25679E+00 15936   0.114E+01    0.746E-01
DAV:   2    -0.538215371912E+02   -0.21059E-01   -0.28615E-01 17496   0.265E+00    0.339E-01
DAV:   3    -0.538213312262E+02    0.20597E-03   -0.55673E-03 23320   0.396E-01    0.219E-01
DAV:   4    -0.538212179041E+02    0.11332E-03   -0.11773E-03 24024   0.197E-01    0.130E-01
DAV:   5    -0.538212419885E+02   -0.24084E-04   -0.14054E-04 15320   0.671E-02
  13 F= -.53821242E+02 E0= -.53821242E+02  d E =-.247422E-01
       N       E                     dE             d eps       ncg     rms          rms(c)
DAV:   1    -0.538420322268E+02   -0.20814E-01   -0.78776E-01 14864   0.512E+00    0.678E-01
DAV:   2    -0.538406087221E+02    0.14235E-02   -0.36253E-02 20440   0.129E+00    0.239E-01
DAV:   3    -0.538398852279E+02    0.72349E-03   -0.23201E-03 21152   0.272E-01    0.168E-01
DAV:   4    -0.538397049345E+02    0.18029E-03   -0.94821E-04 24464   0.143E-01    0.166E-01
DAV:   5    -0.538397334082E+02   -0.28474E-04   -0.62192E-05 12536   0.421E-02
  14 F= -.53839733E+02 E0= -.53839764E+02  d E =-.184914E-01
       N       E                     dE             d eps       ncg     rms          rms(c)
DAV:   1    -0.538853827791E+02   -0.45678E-01   -0.70349E+00 14848   0.153E+01    0.196E+00
DAV:   2    -0.538731250940E+02    0.12258E-01   -0.32572E-01 20448   0.385E+00    0.736E-01
DAV:   3    -0.538664732465E+02    0.66518E-02   -0.21425E-02 21176   0.827E-01    0.497E-01
DAV:   4    -0.538646734512E+02    0.17998E-02   -0.81592E-03 25704   0.422E-01    0.490E-01
DAV:   5    -0.538649715626E+02   -0.29811E-03   -0.71933E-04 19968   0.119E-01    0.269E-01
DAV:   6    -0.538649434075E+02    0.28155E-04   -0.10462E-03 25128   0.144E-01    0.930E-02
DAV:   7    -0.538649512786E+02   -0.78711E-05   -0.10357E-04 13944   0.437E-02
  15 F= -.53864951E+02 E0= -.53864992E+02  d E =-.437093E-01
       N       E                     dE             d eps       ncg     rms          rms(c)
DAV:   1    -0.538803631272E+02   -0.15420E-01   -0.72294E-01 14848   0.481E+00    0.433E-01
DAV:   2    -0.538806476400E+02   -0.28451E-03   -0.27685E-02 20144   0.109E+00    0.209E-01
DAV:   3    -0.538801841405E+02    0.46350E-03   -0.13077E-03 20368   0.202E-01    0.123E-01
DAV:   4    -0.538800461599E+02    0.13798E-03   -0.49360E-04 20032   0.122E-01    0.875E-02
DAV:   5    -0.538800524261E+02   -0.62662E-05   -0.64490E-05 12656   0.490E-02
  16 F= -.53880052E+02 E0= -.53880098E+02  d E =-.151011E-01
       N       E                     dE             d eps       ncg     rms          rms(c)
DAV:   1    -0.538874806672E+02   -0.74345E-02   -0.11461E+00 14848   0.605E+00    0.544E-01
DAV:   2    -0.538879007474E+02   -0.42008E-03   -0.43732E-02 20120   0.136E+00    0.261E-01
DAV:   3    -0.538871641076E+02    0.73664E-03   -0.21011E-03 20464   0.254E-01    0.152E-01
DAV:   4    -0.538869498121E+02    0.21430E-03   -0.81957E-04 24112   0.154E-01    0.109E-01
DAV:   5    -0.538869593199E+02   -0.95077E-05   -0.82973E-05 13416   0.502E-02
  17 F= -.53886959E+02 E0= -.53887013E+02  d E =-.220080E-01
       N       E                     dE             d eps       ncg     rms          rms(c)
DAV:   1    -0.538979192759E+02   -0.10969E-01   -0.31547E-01 14920   0.318E+00    0.479E-01
DAV:   2    -0.538971446159E+02    0.77466E-03   -0.13972E-02 20120   0.801E-01    0.166E-01
DAV:   3    -0.538966334889E+02    0.51113E-03   -0.10951E-03 21704   0.183E-01    0.101E-01
DAV:   4    -0.538965273526E+02    0.10614E-03   -0.33402E-04 18520   0.979E-02    0.952E-02
DAV:   5    -0.538965416105E+02   -0.14258E-04   -0.39697E-05 12024   0.421E-02
  18 F= -.53896542E+02 E0= -.53896595E+02  d E =-.958229E-02
       N       E                     dE             d eps       ncg     rms          rms(c)
DAV:   1    -0.539274900581E+02   -0.30963E-01   -0.28449E+00 14848   0.955E+00    0.151E+00
DAV:   2    -0.539191914085E+02    0.82986E-02   -0.12394E-01 20168   0.241E+00    0.497E-01
DAV:   3    -0.539155243098E+02    0.36671E-02   -0.94793E-03 21824   0.536E-01    0.293E-01
DAV:   4    -0.539147243977E+02    0.79991E-03   -0.36164E-03 27120   0.295E-01    0.293E-01
DAV:   5    -0.539148493521E+02   -0.12495E-03   -0.19459E-04 16120   0.678E-02    0.160E-01
DAV:   6    -0.539148684257E+02   -0.19074E-04   -0.41628E-04 20288   0.104E-01
  19 F= -.53914868E+02 E0= -.53914921E+02  d E =-.279091E-01
       N       E                     dE             d eps       ncg     rms          rms(c)
DAV:   1    -0.539524316918E+02   -0.37582E-01   -0.11470E+01 14848   0.192E+01    0.318E+00
DAV:   2    -0.539186831334E+02    0.33749E-01   -0.51309E-01 20208   0.494E+00    0.987E-01
DAV:   3    -0.539039717419E+02    0.14711E-01   -0.37563E-02 22200   0.108E+00    0.579E-01
DAV:   4    -0.539006422741E+02    0.33295E-02   -0.14767E-02 27312   0.601E-01    0.572E-01
DAV:   5    -0.539011263693E+02   -0.48410E-03   -0.85174E-04 20360   0.139E-01    0.308E-01
DAV:   6    -0.539012110525E+02   -0.84683E-04   -0.18337E-03 28320   0.201E-01    0.886E-02
DAV:   7    -0.539012114083E+02   -0.35578E-06   -0.72725E-05 12672   0.463E-02
  20 F= -.53901211E+02 E0= -.53901260E+02  d E =-.142521E-01
       N       E                     dE             d eps       ncg     rms          rms(c)
DAV:   1    -0.539427869024E+02   -0.41576E-01   -0.55712E+00 14848   0.134E+01    0.204E+00
DAV:   2    -0.539270902911E+02    0.15697E-01   -0.25065E-01 20040   0.342E+00    0.724E-01
DAV:   3    -0.539197382318E+02    0.73521E-02   -0.20142E-02 21704   0.792E-01    0.446E-01
DAV:   4    -0.539178766394E+02    0.18616E-02   -0.67521E-03 26400   0.411E-01    0.437E-01
DAV:   5    -0.539180800209E+02   -0.20338E-03   -0.50785E-04 19240   0.104E-01    0.230E-01
DAV:   6    -0.539180122011E+02    0.67820E-04   -0.96485E-04 24776   0.144E-01
  21 F= -.53918012E+02 E0= -.53918064E+02  d E =-.310529E-01
       N       E                     dE             d eps       ncg     rms          rms(c)
DAV:   1    -0.539222371575E+02   -0.41571E-02   -0.62740E-01 16704   0.545E+00    0.461E-01
DAV:   2    -0.539252325633E+02   -0.29954E-02   -0.57610E-02 19024   0.135E+00    0.210E-01
DAV:   3    -0.539250738762E+02    0.15869E-03   -0.16650E-03 21776   0.212E-01    0.115E-01
DAV:   4    -0.539249945920E+02    0.79284E-04   -0.35230E-04 20416   0.107E-01
  22 F= -.53924995E+02 E0= -.53925050E+02  d E =-.698239E-02
       N       E                     dE             d eps       ncg     rms          rms(c)
DAV:   1    -0.539249277233E+02    0.14615E-03   -0.25397E-01 16704   0.348E+00    0.285E-01
DAV:   2    -0.539261285388E+02   -0.12008E-02   -0.23299E-02 19336   0.860E-01    0.149E-01
DAV:   3    -0.539260755149E+02    0.53024E-04   -0.69439E-04 21464   0.135E-01
  23 F= -.53926076E+02 E0= -.53926135E+02  d E =-.806331E-02
       N       E                     dE             d eps       ncg     rms          rms(c)
DAV:   1    -0.539318974590E+02   -0.57689E-02   -0.28139E-01 14848   0.293E+00    0.299E-01
DAV:   2    -0.539318056144E+02    0.91845E-04   -0.12208E-02 20616   0.789E-01    0.255E-01
DAV:   3    -0.539317360245E+02    0.69590E-04   -0.58563E-04 21216   0.124E-01
  24 F= -.53931736E+02 E0= -.53931795E+02  d E =-.566051E-02
       N       E                     dE             d eps       ncg     rms          rms(c)
DAV:   1    -0.539390426408E+02   -0.72370E-02   -0.22889E+00 14848   0.835E+00    0.848E-01
DAV:   2    -0.539385081687E+02    0.53447E-03   -0.98903E-02 20520   0.224E+00    0.692E-01
DAV:   3    -0.539379403778E+02    0.56779E-03   -0.46629E-03 23832   0.357E-01    0.401E-01
DAV:   4    -0.539375768673E+02    0.36351E-03   -0.16355E-03 24424   0.223E-01    0.143E-01
DAV:   5    -0.539376112753E+02   -0.34408E-04   -0.19137E-04 15424   0.757E-02
  25 F= -.53937611E+02 E0= -.53937671E+02  d E =-.115358E-01
       N       E                     dE             d eps       ncg     rms          rms(c)
DAV:   1    -0.539391989010E+02   -0.16220E-02   -0.38191E-01 16704   0.418E+00    0.292E-01
DAV:   2    -0.539411521980E+02   -0.19533E-02   -0.30712E-02 18720   0.100E+00    0.198E-01
DAV:   3    -0.539411214636E+02    0.30734E-04   -0.81891E-04 22440   0.146E-01
  26 F= -.53941121E+02 E0= -.53941174E+02  d E =-.351019E-02
       N       E                     dE             d eps       ncg     rms          rms(c)
DAV:   1    -0.539411106606E+02    0.41537E-04   -0.22051E-02 17696   0.994E-01    0.823E-02
DAV:   2    -0.539411932137E+02   -0.82553E-04   -0.17241E-03 19624   0.238E-01    0.764E-02
DAV:   3    -0.539411924777E+02    0.73603E-06   -0.45333E-05 12616   0.390E-02
  27 F= -.53941192E+02 E0= -.53941244E+02  d E =-.358120E-02
       N       E                     dE             d eps       ncg     rms          rms(c)
DAV:   1    -0.539448559540E+02   -0.36627E-02   -0.17602E-01 14848   0.253E+00    0.212E-01
DAV:   2    -0.539451968656E+02   -0.34091E-03   -0.86251E-03 19136   0.591E-01    0.104E-01
DAV:   3    -0.539451340323E+02    0.62833E-04   -0.33183E-04 20288   0.959E-02
  28 F= -.53945134E+02 E0= -.53945186E+02  d E =-.394155E-02
       N       E                     dE             d eps       ncg     rms          rms(c)
DAV:   1    -0.539504111313E+02   -0.52143E-02   -0.15820E+00 14848   0.756E+00    0.664E-01
DAV:   2    -0.539534296334E+02   -0.30185E-02   -0.77574E-02 19088   0.178E+00    0.308E-01
DAV:   3    -0.539528321387E+02    0.59749E-03   -0.31053E-03 23664   0.289E-01    0.170E-01
DAV:   4    -0.539526167000E+02    0.21544E-03   -0.76543E-04 22464   0.159E-01    0.932E-02
DAV:   5    -0.539526324143E+02   -0.15714E-04   -0.75688E-05 12840   0.506E-02
  29 F= -.53952632E+02 E0= -.53952632E+02  d E =-.114399E-01
       N       E                     dE             d eps       ncg     rms          rms(c)
DAV:   1    -0.539390385244E+02    0.13578E-01   -0.63692E+00 14848   0.152E+01    0.138E+00
DAV:   2    -0.539509465633E+02   -0.11908E-01   -0.31582E-01 19120   0.358E+00    0.612E-01
DAV:   3    -0.539485753954E+02    0.23712E-02   -0.12213E-02 23336   0.577E-01    0.333E-01
DAV:   4    -0.539476928171E+02    0.88258E-03   -0.31516E-03 24408   0.320E-01    0.180E-01
DAV:   5    -0.539477520333E+02   -0.59216E-04   -0.36474E-04 17856   0.956E-02
  30 F= -.53947752E+02 E0= -.53947813E+02  d E =-.655956E-02
       N       E                     dE             d eps       ncg     rms          rms(c)
DAV:   1    -0.539498683628E+02   -0.21755E-02   -0.28984E+00 14848   0.102E+01    0.855E-01
DAV:   2    -0.539555439941E+02   -0.56756E-02   -0.14354E-01 19080   0.242E+00    0.418E-01
DAV:   3    -0.539543141116E+02    0.12299E-02   -0.57436E-03 24040   0.404E-01    0.225E-01
DAV:   4    -0.539538386034E+02    0.47551E-03   -0.14312E-03 24136   0.213E-01    0.119E-01
DAV:   5    -0.539538498644E+02   -0.11261E-04   -0.13445E-04 14048   0.627E-02
  31 F= -.53953850E+02 E0= -.53953905E+02  d E =-.126574E-01
       N       E                     dE             d eps       ncg     rms          rms(c)
DAV:   1    -0.539568913778E+02   -0.30528E-02   -0.29789E-01 15336   0.333E+00    0.213E-01
DAV:   2    -0.539579566164E+02   -0.10652E-02   -0.15110E-02 18504   0.714E-01    0.121E-01
DAV:   3    -0.539578812640E+02    0.75352E-04   -0.36247E-04 21472   0.993E-02
  32 F= -.53957881E+02 E0= -.53957938E+02  d E =-.403140E-02
       N       E                     dE             d eps       ncg     rms          rms(c)
DAV:   1    -0.539566666374E+02    0.12900E-02   -0.12167E+00 15592   0.672E+00    0.434E-01
DAV:   2    -0.539608504576E+02   -0.41838E-02   -0.60591E-02 18552   0.142E+00    0.243E-01
DAV:   3    -0.539605530626E+02    0.29739E-03   -0.15561E-03 24328   0.201E-01    0.134E-01
DAV:   4    -0.539604247172E+02    0.12835E-03   -0.42279E-04 17456   0.130E-01    0.238E-02
DAV:   5    -0.539604295200E+02   -0.48027E-05   -0.60326E-05 12376   0.545E-02
  33 F= -.53960430E+02 E0= -.53960492E+02  d E =-.657966E-02
       N       E                     dE             d eps       ncg     rms          rms(c)
DAV:   1    -0.539628154984E+02   -0.23908E-02   -0.90812E-02 14928   0.151E+00    0.111E-01
DAV:   2    -0.539628684731E+02   -0.52975E-04   -0.18614E-03 20248   0.282E-01    0.586E-02
DAV:   3    -0.539628357989E+02    0.32674E-04   -0.65426E-05 12960   0.454E-02
  34 F= -.53962836E+02 E0= -.53962899E+02  d E =-.240628E-02
       N       E                     dE             d eps       ncg     rms          rms(c)
DAV:   1    -0.539686682499E+02   -0.57998E-02   -0.81336E-01 14848   0.453E+00    0.334E-01
DAV:   2    -0.539690772033E+02   -0.40895E-03   -0.16505E-02 20424   0.839E-01    0.179E-01
DAV:   3    -0.539687872935E+02    0.28991E-03   -0.77976E-04 22064   0.136E-01    0.765E-02
DAV:   4    -0.539687331749E+02    0.54119E-04   -0.14969E-04 13192   0.765E-02
  35 F= -.53968733E+02 E0= -.53968802E+02  d E =-.830365E-02
       N       E                     dE             d eps       ncg     rms          rms(c)
DAV:   1    -0.539739612011E+02   -0.51739E-02   -0.32651E+00 14848   0.907E+00    0.656E-01
DAV:   2    -0.539756624237E+02   -0.17012E-02   -0.67002E-02 20344   0.169E+00    0.361E-01
DAV:   3    -0.539745096162E+02    0.11528E-02   -0.30422E-03 22624   0.271E-01    0.157E-01
DAV:   4    -0.539742851318E+02    0.22448E-03   -0.69562E-04 20512   0.153E-01    0.311E-02
DAV:   5    -0.539742907271E+02   -0.55954E-05   -0.52647E-05 12752   0.460E-02
  36 F= -.53974291E+02 E0= -.53974374E+02  d E =-.138612E-01
       N       E                     dE             d eps       ncg     rms          rms(c)
DAV:   1    -0.539776348882E+02   -0.33498E-02   -0.71051E-01 16704   0.565E+00    0.322E-01
DAV:   2    -0.539821118749E+02   -0.44770E-02   -0.56357E-02 17536   0.118E+00    0.171E-01
DAV:   3    -0.539820777954E+02    0.34079E-04   -0.96101E-04 23624   0.157E-01
  37 F= -.53982078E+02 E0= -.53982166E+02  d E =-.778707E-02
       N       E                     dE             d eps       ncg     rms          rms(c)
DAV:   1    -0.539789705121E+02    0.31414E-02   -0.98641E-01 16704   0.663E+00    0.379E-01
DAV:   2    -0.539850179263E+02   -0.60474E-02   -0.77783E-02 17736   0.139E+00    0.211E-01
DAV:   3    -0.539849767816E+02    0.41145E-04   -0.13797E-03 23920   0.188E-01    0.125E-01
DAV:   4    -0.539849024451E+02    0.74337E-04   -0.25676E-04 16600   0.112E-01
  38 F= -.53984902E+02 E0= -.53984995E+02  d E =-.106117E-01
       N       E                     dE             d eps       ncg     rms          rms(c)
DAV:   1    -0.539910346582E+02   -0.60579E-02   -0.37916E-01 14896   0.336E+00    0.365E-01
DAV:   2    -0.539906488978E+02    0.38576E-03   -0.12458E-02 20584   0.760E-01    0.158E-01
DAV:   3    -0.539904069504E+02    0.24195E-03   -0.75197E-04 21136   0.153E-01    0.860E-02
DAV:   4    -0.539903252029E+02    0.81748E-04   -0.25011E-04 17384   0.860E-02
  39 F= -.53990325E+02 E0= -.53990419E+02  d E =-.542276E-02
       N       E                     dE             d eps       ncg     rms          rms(c)
DAV:   1    -0.540057608070E+02   -0.15354E-01   -0.34233E+00 14848   0.101E+01    0.114E+00
DAV:   2    -0.540019688082E+02    0.37920E-02   -0.11388E-01 20704   0.230E+00    0.482E-01
DAV:   3    -0.539996374079E+02    0.23314E-02   -0.68293E-03 22200   0.459E-01    0.268E-01
DAV:   4    -0.539988962239E+02    0.74118E-03   -0.26980E-03 25864   0.262E-01    0.225E-01
DAV:   5    -0.539989692641E+02   -0.73040E-04   -0.27459E-04 17640   0.681E-02
  40 F= -.53998969E+02 E0= -.53999067E+02  d E =-.140668E-01
       N       E                     dE             d eps       ncg     rms          rms(c)
DAV:   1    -0.540009826562E+02   -0.20864E-02   -0.98746E-01 16704   0.652E+00    0.507E-01
DAV:   2    -0.540059212115E+02   -0.49386E-02   -0.73580E-02 18352   0.140E+00    0.243E-01
DAV:   3    -0.540054006260E+02    0.52059E-03   -0.17748E-03 22992   0.228E-01    0.125E-01
DAV:   4    -0.540052634143E+02    0.13721E-03   -0.58554E-04 19456   0.135E-01    0.566E-02
DAV:   5    -0.540052739119E+02   -0.10498E-04   -0.80258E-05 13504   0.530E-02
  41 F= -.54005274E+02 E0= -.54005379E+02  d E =-.630465E-02
       N       E                     dE             d eps       ncg     rms          rms(c)
DAV:   1    -0.540052778823E+02   -0.14468E-04   -0.13814E-03 19024   0.244E-01    0.190E-02
DAV:   2    -0.540052844049E+02   -0.65227E-05   -0.10310E-04 13968   0.532E-02
  42 F= -.54005284E+02 E0= -.54005390E+02  d E =-.631514E-02
       N       E                     dE             d eps       ncg     rms          rms(c)
DAV:   1    -0.540109555440E+02   -0.56777E-02   -0.44411E-01 16704   0.381E+00    0.263E-01
DAV:   2    -0.540113283193E+02   -0.37278E-03   -0.14521E-02 18824   0.730E-01    0.164E-01
DAV:   3    -0.540111001635E+02    0.22816E-03   -0.59007E-04 21336   0.128E-01    0.772E-02
DAV:   4    -0.540110482896E+02    0.51874E-04   -0.11669E-04 12920   0.695E-02
  43 F= -.54011048E+02 E0= -.54011154E+02  d E =-.576388E-02
       N       E                     dE             d eps       ncg     rms          rms(c)
DAV:   1    -0.540152632778E+02   -0.41631E-02   -0.22679E+00 16704   0.862E+00    0.589E-01
DAV:   2    -0.540173016551E+02   -0.20384E-02   -0.74486E-02 18712   0.165E+00    0.378E-01
DAV:   3    -0.540161945636E+02    0.11071E-02   -0.29758E-03 22720   0.285E-01    0.184E-01
DAV:   4    -0.540159333182E+02    0.26125E-03   -0.71333E-04 19872   0.155E-01    0.618E-02
DAV:   5    -0.540159344965E+02   -0.11783E-05   -0.67267E-05 12544   0.525E-02
  44 F= -.54015934E+02 E0= -.54016035E+02  d E =-.106501E-01
       N       E                     dE             d eps       ncg     rms          rms(c)
DAV:   1    -0.540183317646E+02   -0.23984E-02   -0.29755E-01 16704   0.356E+00    0.224E-01
DAV:   2    -0.540199259500E+02   -0.15942E-02   -0.21082E-02 18328   0.723E-01    0.136E-01
DAV:   3    -0.540198921017E+02    0.33848E-04   -0.41341E-04 21792   0.107E-01
  45 F= -.54019892E+02 E0= -.54019985E+02  d E =-.395761E-02
       N       E                     dE             d eps       ncg     rms          rms(c)
DAV:   1    -0.540194871118E+02    0.43884E-03   -0.31827E-01 16704   0.366E+00    0.233E-01
DAV:   2    -0.540211465318E+02   -0.16594E-02   -0.22326E-02 18376   0.742E-01    0.145E-01
DAV:   3    -0.540211119860E+02    0.34546E-04   -0.46182E-04 22816   0.111E-01
  46 F= -.54021112E+02 E0= -.54021196E+02  d E =-.517749E-02
       N       E                     dE             d eps       ncg     rms          rms(c)
DAV:   1    -0.540224925968E+02   -0.13461E-02   -0.24232E-02 17448   0.996E-01    0.136E-01
DAV:   2    -0.540224533452E+02    0.39252E-04   -0.15820E-03 19712   0.235E-01    0.649E-02
DAV:   3    -0.540224098538E+02    0.43491E-04   -0.91364E-05 12776   0.580E-02
  47 F= -.54022410E+02 E0= -.54022492E+02  d E =-.129787E-02
       N       E                     dE             d eps       ncg     rms          rms(c)
DAV:   1    -0.540249160446E+02   -0.24627E-02   -0.21421E-01 16704   0.297E+00    0.396E-01
DAV:   2    -0.540246089476E+02    0.30710E-03   -0.13759E-02 19680   0.695E-01    0.151E-01
DAV:   3    -0.540245570608E+02    0.51887E-04   -0.97129E-04 24672   0.165E-01
  48 F= -.54024557E+02 E0= -.54024557E+02  d E =-.344507E-02
       N       E                     dE             d eps       ncg     rms          rms(c)
DAV:   1    -0.540255615802E+02   -0.95263E-03   -0.41569E-02 16816   0.136E+00    0.188E-01
DAV:   2    -0.540255155909E+02    0.45989E-04   -0.32791E-03 19688   0.338E-01    0.791E-02
DAV:   3    -0.540254508983E+02    0.64693E-04   -0.20184E-04 15192   0.760E-02
  49 F= -.54025451E+02 E0= -.54025528E+02  d E =-.893838E-03
       N       E                     dE             d eps       ncg     rms          rms(c)
DAV:   1    -0.540263302498E+02   -0.81466E-03   -0.96186E-02 16736   0.205E+00    0.256E-01
DAV:   2    -0.540262908298E+02    0.39420E-04   -0.72922E-03 19624   0.502E-01    0.101E-01
DAV:   3    -0.540261611367E+02    0.12969E-03   -0.42642E-04 21096   0.108E-01    0.653E-02
DAV:   4    -0.540261370701E+02    0.24067E-04   -0.86428E-05 12616   0.607E-02
  50 F= -.54026137E+02 E0= -.54026215E+02  d E =-.158001E-02
       N       E                     dE             d eps       ncg     rms          rms(c)
DAV:   1    -0.540269034603E+02   -0.74232E-03   -0.26618E-02 14848   0.102E+00    0.916E-02
DAV:   2    -0.540269846390E+02   -0.81179E-04   -0.15330E-03 18792   0.237E-01    0.533E-02
DAV:   3    -0.540269711803E+02    0.13459E-04   -0.48019E-05 12424   0.425E-02
  51 F= -.54026971E+02 E0= -.54027049E+02  d E =-.834110E-03
       N       E                     dE             d eps       ncg     rms          rms(c)
DAV:   1    -0.540277483830E+02   -0.76374E-03   -0.23851E-01 14848   0.303E+00    0.237E-01
DAV:   2    -0.540284950799E+02   -0.74670E-03   -0.13486E-02 19064   0.709E-01    0.131E-01
DAV:   3    -0.540284009051E+02    0.94175E-04   -0.49014E-04 22744   0.114E-01
  52 F= -.54028401E+02 E0= -.54028478E+02  d E =-.226383E-02
       N       E                     dE             d eps       ncg     rms          rms(c)
DAV:   1    -0.540284765233E+02    0.18557E-04   -0.97612E-02 16544   0.235E+00    0.255E-01
DAV:   2    -0.540292246418E+02   -0.74812E-03   -0.14301E-02 17232   0.594E-01    0.918E-02
DAV:   3    -0.540291341075E+02    0.90534E-04   -0.44137E-04 21800   0.116E-01
  53 F= -.54029134E+02 E0= -.54029206E+02  d E =-.733202E-03
       N       E                     dE             d eps       ncg     rms          rms(c)
DAV:   1    -0.540291125062E+02    0.11214E-03   -0.22805E-04 15288   0.112E-01    0.608E-02
DAV:   2    -0.540291174210E+02   -0.49147E-05   -0.58869E-05 10048   0.519E-02
  54 F= -.54029117E+02 E0= -.54029190E+02  d E =-.716516E-03
