unknown system                          
           1
     3.624207   -0.005549    0.103686
    -0.000629    5.368537    0.001906
     1.575252    2.679767    5.568861
   Sr   H    Nb   Sr
   1   7   1   1
Direct configuration=     1
   0.32281104  0.33122698  0.95796144
   0.82790801  0.63769197  0.95457850
   0.84046643  0.05803579  0.92158149
   0.97235672  0.60669257  0.64526782
   0.47223185  0.15355828  0.64516926
   0.47269906  0.80563398  0.64502149
   0.10466475  0.33445502  0.36837987
   0.11978668  0.94677386  0.33566771
   0.97323384  0.95833480  0.64523056
   0.62322161  0.64398776  0.33232188
unknown system                          
           1
     3.627634   -0.004835    0.104799
     0.000427    5.367276    0.001892
     1.579101    2.679435    5.564593
   Sr   H    Nb   Sr
   1   7   1   1
Direct configuration=     2
   0.32264882  0.33131486  0.95788654
   0.82768160  0.63787559  0.95447013
   0.84024558  0.05781606  0.92162461
   0.97237517  0.60668774  0.64526673
   0.47228605  0.15378272  0.64517171
   0.47266225  0.80550556  0.64502836
   0.10486340  0.33426251  0.36837782
   0.11993873  0.94687500  0.33582880
   0.97332101  0.95827807  0.64512343
   0.62335740  0.64399289  0.33240185
unknown system                          
           1
     3.631783   -0.003970    0.106146
     0.001707    5.365749    0.001876
     1.583762    2.679033    5.559424
   Sr   H    Nb   Sr
   1   7   1   1
Direct configuration=     3
   0.32245265  0.33142133  0.95779581
   0.82740778  0.63809807  0.95433886
   0.83997838  0.05754991  0.92167693
   0.97239749  0.60668189  0.64526540
   0.47235154  0.15405457  0.64517467
   0.47261774  0.80535002  0.64503670
   0.10510383  0.33402932  0.36837530
   0.12012238  0.94699743  0.33602401
   0.97342667  0.95820940  0.64499358
   0.62352155  0.64399907  0.33249875
