 running on   32 total cores
 distrk:  each k-point on   32 cores,    1 groups
 distr:  one band on    8 cores,    4 groups
 using from now: INCAR     
 vasp.5.4.4.18Apr17-6-g9f103f2a35 (build Nov 01 2019 12:17:22) complex          
  
 POSCAR found type information on POSCAR  H  Sr H  Nb H 
 POSCAR found :  5 types and       9 ions
 LDA part: xc-table for Pade appr. of Perdew
 generate k-points for:   13   14    6
 POSCAR, INCAR and KPOINTS ok, starting setup
 FFT: planning ...
 WAVECAR not read
 entering main loop
       N       E                     dE             d eps       ncg     rms          rms(c)
DAV:   1     0.117361878548E+03    0.11736E+03   -0.96091E+03 22288   0.782E+02
DAV:   2    -0.316835549685E+02   -0.14905E+03   -0.14506E+03 29368   0.304E+02
DAV:   3    -0.397074327390E+02   -0.80239E+01   -0.79967E+01 38972   0.556E+01
DAV:   4    -0.399155004444E+02   -0.20807E+00   -0.20777E+00 31356   0.692E+00
DAV:   5    -0.399217097509E+02   -0.62093E-02   -0.62081E-02 36352   0.112E+00    0.381E+01
DAV:   6    -0.359642871373E+02    0.39574E+01   -0.12577E+01 33824   0.259E+01    0.155E+01
DAV:   7    -0.357489798488E+02    0.21531E+00   -0.16460E+00 26156   0.693E+00    0.794E+00
DAV:   8    -0.357427003234E+02    0.62795E-02   -0.21754E-01 27792   0.284E+00    0.915E-01
DAV:   9    -0.357369755560E+02    0.57248E-02   -0.27548E-02 30796   0.971E-01    0.496E-01
DAV:  10    -0.357372382552E+02   -0.26270E-03   -0.33421E-03 30684   0.315E-01    0.168E-01
DAV:  11    -0.357372735639E+02   -0.35309E-04   -0.20177E-04 25252   0.102E-01
   1 F= -.35737274E+02 E0= -.35737292E+02  d E =-.357373E+02
 curvature:   0.00 expect dE= 0.000E+00 dE for cont linesearch  0.000E+00
 trial: gam= 0.00000 g(F)=  0.147E-02 g(S)=  0.618E-03 ort = 0.000E+00 (trialstep = 0.100E+01)
 search vector abs. value=  0.208E-02
 bond charge predicted
       N       E                     dE             d eps       ncg     rms          rms(c)
DAV:   1    -0.357377669863E+02   -0.52873E-03   -0.12450E-01 26968   0.358E+00    0.313E-01
DAV:   2    -0.357384345517E+02   -0.66757E-03   -0.16720E-02 24168   0.927E-01    0.109E-01
DAV:   3    -0.357382932195E+02    0.14133E-03   -0.56765E-04 33764   0.170E-01    0.501E-02
DAV:   4    -0.357382672528E+02    0.25967E-04   -0.84137E-05 16304   0.676E-02
   2 F= -.35738267E+02 E0= -.35738285E+02  d E =-.993689E-03
 trial-energy change:   -0.000994  1 .order   -0.001035   -0.002085    0.000014
 step:   0.9932(harm=  0.9932)  dis= 0.00356  next Energy=   -35.738309 (dE=-0.104E-02)
 bond charge predicted
       N       E                     dE             d eps       ncg     rms          rms(c)
DAV:   1    -0.357382713149E+02    0.21905E-04   -0.46662E-05 13428   0.594E-02    0.315E-02
DAV:   2    -0.357382739430E+02   -0.26281E-05   -0.19063E-05 12476   0.419E-02
   3 F= -.35738274E+02 E0= -.35738292E+02  d E =-.100038E-02
 curvature:  -0.50 expect dE=-0.688E-03 dE for cont linesearch -0.717E-06
 trial: gam= 0.69078 g(F)=  0.133E-02 g(S)=  0.540E-04 ort =-0.548E-04 (trialstep = 0.903E+00)
 search vector abs. value=  0.230E-02
 bond charge predicted
       N       E                     dE             d eps       ncg     rms          rms(c)
DAV:   1    -0.357395775830E+02   -0.13063E-02   -0.54718E-02 22072   0.209E+00    0.229E-01
DAV:   2    -0.357394381985E+02    0.13938E-03   -0.50938E-03 27640   0.569E-01    0.736E-02
DAV:   3    -0.357393658745E+02    0.72324E-04   -0.21998E-04 19820   0.110E-01
   4 F= -.35739366E+02 E0= -.35739366E+02  d E =-.109193E-02
 ZBRENT: can't locate minimum, use default step
 trial-energy change:   -0.001092  1 .order   -0.001166   -0.001217   -0.001114
 step:   3.6140(harm= 10.6617)  dis= 0.01367  next Energy=   -35.745456 (dE=-0.718E-02)
 bond charge predicted
       N       E                     dE             d eps       ncg     rms          rms(c)
DAV:   1    -0.357429769210E+02   -0.35387E-02   -0.48985E-01 22232   0.625E+00    0.698E-01
DAV:   2    -0.357415298034E+02    0.14471E-02   -0.45611E-02 27880   0.171E+00    0.225E-01
DAV:   3    -0.357408404059E+02    0.68940E-03   -0.22166E-03 29876   0.336E-01    0.122E-01
DAV:   4    -0.357406312552E+02    0.20915E-03   -0.77608E-04 37796   0.174E-01    0.113E-01
DAV:   5    -0.357406530643E+02   -0.21809E-04   -0.66470E-05 15720   0.577E-02
   5 F= -.35740653E+02 E0= -.35740669E+02  d E =-.237912E-02
 curvature:  -4.36 expect dE=-0.144E-01 dE for cont linesearch -0.254E-04
 trial: gam= 2.19774 g(F)=  0.209E-02 g(S)=  0.122E-02 ort = 0.116E-03 (trialstep = 0.223E+00)
 search vector abs. value=  0.149E-01
 bond charge predicted
       N       E                     dE             d eps       ncg     rms          rms(c)
DAV:   1    -0.357413879359E+02   -0.75668E-03   -0.16579E-02 25548   0.110E+00    0.589E-02
DAV:   2    -0.357414288680E+02   -0.40932E-04   -0.98912E-04 26216   0.222E-01
   6 F= -.35741429E+02 E0= -.35741444E+02  d E =-.775804E-03
 ZBRENT: can't locate minimum, use default step
 trial-energy change:   -0.000776  1 .order   -0.000782   -0.000793   -0.000770
 step:   0.8916(harm=  7.6764)  dis= 0.00998  next Energy=   -35.754313 (dE=-0.137E-01)
 bond charge predicted
       N       E                     dE             d eps       ncg     rms          rms(c)
DAV:   1    -0.357432860493E+02   -0.18981E-02   -0.15048E-01 25712   0.332E+00    0.168E-01
DAV:   2    -0.357436394326E+02   -0.35338E-03   -0.87926E-03 26292   0.664E-01    0.951E-02
DAV:   3    -0.357435633644E+02    0.76068E-04   -0.27428E-04 29000   0.123E-01
   7 F= -.35743563E+02 E0= -.35743577E+02  d E =-.291030E-02
 curvature:  -2.76 expect dE=-0.766E-02 dE for cont linesearch -0.195E-02
 ZBRENT: increasing intervall
 opt :   2.2290  next Energy=   -35.747632 (dE=-0.698E-02)
 bond charge predicted
       N       E                     dE             d eps       ncg     rms          rms(c)
DAV:   1    -0.357458878476E+02   -0.22484E-02   -0.59904E-01 25840   0.660E+00    0.320E-01
DAV:   2    -0.357474381355E+02   -0.15503E-02   -0.34812E-02 26172   0.132E+00    0.177E-01
DAV:   3    -0.357471954912E+02    0.24264E-03   -0.10345E-03 33192   0.236E-01    0.989E-02
DAV:   4    -0.357471164789E+02    0.79012E-04   -0.20171E-04 17948   0.121E-01
   8 F= -.35747116E+02 E0= -.35747129E+02  d E =-.646341E-02
 curvature:  -5.76 expect dE=-0.141E-01 dE for cont linesearch -0.221E-02
 ZBRENT: increasing intervall
 opt :   4.9039  next Energy=   -35.751229 (dE=-0.106E-01)
 bond charge predicted
       N       E                     dE             d eps       ncg     rms          rms(c)
DAV:   1    -0.357462931417E+02    0.90235E-03   -0.24075E+00 25952   0.133E+01    0.641E-01
DAV:   2    -0.357525679743E+02   -0.62748E-02   -0.14066E-01 26068   0.264E+00    0.353E-01
DAV:   3    -0.357515945207E+02    0.97345E-03   -0.41117E-03 33148   0.471E-01    0.200E-01
DAV:   4    -0.357512787075E+02    0.31581E-03   -0.94437E-04 29616   0.244E-01    0.418E-02
DAV:   5    -0.357512848406E+02   -0.61332E-05   -0.75845E-05 16756   0.731E-02
   9 F= -.35751285E+02 E0= -.35751285E+02  d E =-.106318E-01
 curvature: -10.73 expect dE=-0.569E-01 dE for cont linesearch -0.363E-03
 trial: gam= 1.45291 g(F)=  0.417E-02 g(S)=  0.113E-02 ort = 0.711E-03 (trialstep = 0.445E+00)
 search vector abs. value=  0.389E-01
 bond charge predicted
       N       E                     dE             d eps       ncg     rms          rms(c)
DAV:   1    -0.357535412736E+02   -0.22626E-02   -0.16089E-01 21960   0.294E+00    0.183E-01
DAV:   2    -0.357537562626E+02   -0.21499E-03   -0.53235E-03 28664   0.625E-01    0.870E-02
DAV:   3    -0.357536566149E+02    0.99648E-04   -0.23034E-04 23748   0.111E-01
  10 F= -.35753657E+02 E0= -.35753674E+02  d E =-.237177E-02
 trial-energy change:   -0.002372  1 .order   -0.002448   -0.002819   -0.002076
 step:   1.6876(harm=  1.6876)  dis= 0.03300  next Energy=   -35.756629 (dE=-0.534E-02)
 bond charge predicted
       N       E                     dE             d eps       ncg     rms          rms(c)
DAV:   1    -0.357549382780E+02   -0.11820E-02   -0.12488E+00 21920   0.819E+00    0.515E-01
DAV:   2    -0.357565629721E+02   -0.16247E-02   -0.41464E-02 28568   0.174E+00    0.245E-01
DAV:   3    -0.357559906456E+02    0.57233E-03   -0.19770E-03 35392   0.308E-01    0.130E-01
DAV:   4    -0.357559172689E+02    0.73377E-04   -0.41994E-04 26400   0.138E-01
  11 F= -.35755917E+02 E0= -.35755917E+02  d E =-.463243E-02
 curvature:  -5.18 expect dE=-0.433E-01 dE for cont linesearch -0.114E-03
 trial: gam= 0.00000 g(F)=  0.706E-02 g(S)=  0.128E-02 ort =-0.924E-03 (trialstep = 0.694E+00)
 search vector abs. value=  0.835E-02
 bond charge predicted
       N       E                     dE             d eps       ncg     rms          rms(c)
DAV:   1    -0.357548795643E+02    0.11111E-02   -0.37681E-01 26304   0.644E+00    0.266E-01
DAV:   2    -0.357590287571E+02   -0.41492E-02   -0.51027E-02 22240   0.148E+00    0.131E-01
DAV:   3    -0.357589485505E+02    0.80207E-04   -0.74700E-04 32356   0.215E-01
  12 F= -.35758949E+02 E0= -.35758949E+02  d E =-.303128E-02
 trial-energy change:   -0.003031  1 .order   -0.003121   -0.005789   -0.000453
 step:   0.7525(harm=  0.7525)  dis= 0.01110  next Energy=   -35.759057 (dE=-0.314E-02)
 bond charge predicted
       N       E                     dE             d eps       ncg     rms          rms(c)
DAV:   1    -0.357588572081E+02    0.17155E-03   -0.26133E-03 27936   0.530E-01    0.329E-02
DAV:   2    -0.357588807669E+02   -0.23559E-04   -0.36047E-04 26100   0.124E-01
  13 F= -.35758881E+02 E0= -.35758898E+02  d E =-.296350E-02
 curvature:  -0.38 expect dE=-0.925E-03 dE for cont linesearch -0.634E-05
 trial: gam= 0.33937 g(F)=  0.199E-02 g(S)=  0.471E-03 ort =-0.375E-03 (trialstep = 0.705E+00)
 search vector abs. value=  0.316E-02
 bond charge predicted
       N       E                     dE             d eps       ncg     rms          rms(c)
DAV:   1    -0.357602798142E+02   -0.14226E-02   -0.55330E-02 21948   0.200E+00    0.177E-01
DAV:   2    -0.357603176290E+02   -0.37815E-04   -0.38647E-03 26172   0.478E-01    0.919E-02
DAV:   3    -0.357602254760E+02    0.92153E-04   -0.21523E-04 23624   0.109E-01
  14 F= -.35760225E+02 E0= -.35760225E+02  d E =-.134471E-02
 trial-energy change:   -0.001345  1 .order   -0.001405   -0.001644   -0.001167
 step:   2.4316(harm=  2.4316)  dis= 0.01105  next Energy=   -35.761714 (dE=-0.283E-02)
 bond charge predicted
       N       E                     dE             d eps       ncg     rms          rms(c)
DAV:   1    -0.357613265658E+02   -0.10089E-02   -0.33094E-01 21920   0.489E+00    0.437E-01
DAV:   2    -0.357616203070E+02   -0.29374E-03   -0.23112E-02 26184   0.116E+00    0.229E-01
DAV:   3    -0.357611011601E+02    0.51915E-03   -0.14272E-03 37264   0.265E-01    0.931E-02
DAV:   4    -0.357610596639E+02    0.41496E-04   -0.17526E-04 19956   0.101E-01
  15 F= -.35761060E+02 E0= -.35761071E+02  d E =-.217890E-02
 curvature:  -1.65 expect dE=-0.421E-02 dE for cont linesearch -0.804E-04
 trial: gam= 1.04310 g(F)=  0.135E-02 g(S)=  0.120E-02 ort =-0.393E-03 (trialstep = 0.643E+00)
 search vector abs. value=  0.517E-02
 bond charge predicted
       N       E                     dE             d eps       ncg     rms          rms(c)
DAV:   1    -0.357627003494E+02   -0.15992E-02   -0.81140E-02 21940   0.247E+00    0.304E-01
DAV:   2    -0.357622646080E+02    0.43574E-03   -0.75093E-03 28712   0.749E-01    0.963E-02
DAV:   3    -0.357621135440E+02    0.15106E-03   -0.39945E-04 25340   0.144E-01    0.595E-02
DAV:   4    -0.357620633078E+02    0.50236E-04   -0.12743E-04 16252   0.874E-02
  16 F= -.35762063E+02 E0= -.35762074E+02  d E =-.100364E-02
 trial-energy change:   -0.001004  1 .order   -0.001082   -0.001375   -0.000790
 step:   1.5090(harm=  1.5090)  dis= 0.00809  next Energy=   -35.762674 (dE=-0.161E-02)
 bond charge predicted
       N       E                     dE             d eps       ncg     rms          rms(c)
DAV:   1    -0.357635095521E+02   -0.13960E-02   -0.14654E-01 21920   0.333E+00    0.398E-01
DAV:   2    -0.357627070733E+02    0.80248E-03   -0.13293E-02 28664   0.996E-01    0.127E-01
DAV:   3    -0.357624463666E+02    0.26071E-03   -0.74553E-04 29784   0.191E-01    0.847E-02
DAV:   4    -0.357623715214E+02    0.74845E-04   -0.26505E-04 25496   0.108E-01
  17 F= -.35762372E+02 E0= -.35762372E+02  d E =-.131186E-02
 curvature:  -1.82 expect dE=-0.273E-02 dE for cont linesearch -0.764E-05
 trial: gam= 0.40015 g(F)=  0.119E-02 g(S)=  0.301E-03 ort =-0.147E-03 (trialstep = 0.816E+00)
 search vector abs. value=  0.221E-02
 bond charge predicted
       N       E                     dE             d eps       ncg     rms          rms(c)
DAV:   1    -0.357632158529E+02   -0.76949E-03   -0.56312E-02 21968   0.230E+00    0.244E-01
DAV:   2    -0.357632062148E+02    0.96381E-05   -0.73189E-03 25924   0.667E-01    0.724E-02
DAV:   3    -0.357631152938E+02    0.90921E-04   -0.28079E-04 23608   0.121E-01
  18 F= -.35763115E+02 E0= -.35763115E+02  d E =-.743772E-03
 trial-energy change:   -0.000744  1 .order   -0.000865   -0.001172   -0.000558
 step:   1.5581(harm=  1.5581)  dis= 0.00588  next Energy=   -35.763490 (dE=-0.112E-02)
 bond charge predicted
       N       E                     dE             d eps       ncg     rms          rms(c)
DAV:   1    -0.357632165979E+02   -0.10383E-04   -0.45339E-02 21936   0.206E+00    0.222E-01
DAV:   2    -0.357631647916E+02    0.51806E-04   -0.60148E-03 26288   0.603E-01    0.716E-02
DAV:   3    -0.357630725119E+02    0.92280E-04   -0.24045E-04 22460   0.111E-01
  19 F= -.35763073E+02 E0= -.35763084E+02  d E =-.700991E-03
 curvature:  -1.20 expect dE=-0.147E-02 dE for cont linesearch -0.187E-04
 trial: gam= 0.94770 g(F)=  0.888E-03 g(S)=  0.344E-03 ort =-0.186E-03 (trialstep = 0.743E+00)
 search vector abs. value=  0.286E-02
 reached required accuracy - stopping structural energy minimisation
