  21  21   1   0
  0.1241760E+02  0.6259608E-09  0.6663245E-09  0.7687414E-09  0.5000000E-15
  1.000000000000000E-004
  CAR 
 unknown system                          
     10.59587535    -35.62167326  301      0.31247079      1.00000000
    -35.622  0.0000E+00  0.0000E+00  0.0000E+00  0.0000E+00
    -35.468  0.0000E+00  0.0000E+00  0.0000E+00  0.0000E+00
    -35.314  0.0000E+00  0.0000E+00  0.0000E+00  0.0000E+00
    -35.159  0.0000E+00  0.0000E+00  0.0000E+00  0.0000E+00
    -35.005  0.0000E+00  0.0000E+00  0.0000E+00  0.0000E+00
    -34.851  0.0000E+00  0.0000E+00  0.0000E+00  0.0000E+00
    -34.697  0.0000E+00  0.0000E+00  0.0000E+00  0.0000E+00
    -34.543  0.0000E+00  0.0000E+00  0.0000E+00  0.0000E+00
    -34.389  0.0000E+00  0.0000E+00  0.0000E+00  0.0000E+00
    -34.235  0.0000E+00  0.0000E+00  0.0000E+00  0.0000E+00
    -34.081  0.0000E+00  0.0000E+00  0.0000E+00  0.0000E+00
    -33.927  0.0000E+00  0.0000E+00  0.0000E+00  0.0000E+00
    -33.773  0.0000E+00  0.0000E+00  0.0000E+00  0.0000E+00
    -33.619  0.0000E+00  0.0000E+00  0.0000E+00  0.0000E+00
    -33.465  0.0000E+00  0.0000E+00  0.2020E-01  0.2020E-01
    -33.311  0.0000E+00  0.0000E+00  0.5051E-01  0.5051E-01
    -33.157  0.0000E+00  0.0000E+00  0.5051E-01  0.5051E-01
    -33.003  0.0000E+00  0.0000E+00  0.5051E-01  0.5051E-01
    -32.849  0.0000E+00  0.0000E+00  0.5051E-01  0.5051E-01
    -32.695  0.0000E+00  0.0000E+00  0.5051E-01  0.5051E-01
    -32.541  0.0000E+00  0.0000E+00  0.5051E-01  0.5051E-01
    -32.386  0.0000E+00  0.0000E+00  0.5051E-01  0.5051E-01
    -32.232  0.0000E+00  0.0000E+00  0.5051E-01  0.5051E-01
    -32.078  0.0000E+00  0.0000E+00  0.5051E-01  0.5051E-01
    -31.924  0.0000E+00  0.0000E+00  0.5051E-01  0.5051E-01
    -31.770  0.0000E+00  0.0000E+00  0.5051E-01  0.5051E-01
    -31.616  0.0000E+00  0.0000E+00  0.5051E-01  0.5051E-01
    -31.462  0.0000E+00  0.0000E+00  0.5051E-01  0.5051E-01
    -31.308  0.0000E+00  0.0000E+00  0.5051E-01  0.5051E-01
    -31.154  0.0000E+00  0.0000E+00  0.5051E-01  0.5051E-01
    -31.000  0.0000E+00  0.0000E+00  0.5051E-01  0.5051E-01
    -30.846  0.0000E+00  0.0000E+00  0.5051E-01  0.5051E-01
    -30.692  0.0000E+00  0.0000E+00  0.5051E-01  0.5051E-01
    -30.538  0.0000E+00  0.0000E+00  0.5051E-01  0.5051E-01
    -30.384  0.0000E+00  0.0000E+00  0.5051E-01  0.5051E-01
    -30.230  0.0000E+00  0.0000E+00  0.5051E-01  0.5051E-01
    -30.076  0.0000E+00  0.0000E+00  0.5051E-01  0.5051E-01
    -29.922  0.0000E+00  0.0000E+00  0.5051E-01  0.5051E-01
    -29.767  0.0000E+00  0.0000E+00  0.5051E-01  0.5051E-01
    -29.613  0.0000E+00  0.0000E+00  0.5051E-01  0.5051E-01
    -29.459  0.0000E+00  0.0000E+00  0.5051E-01  0.5051E-01
    -29.305  0.0000E+00  0.0000E+00  0.5051E-01  0.5051E-01
    -29.151  0.0000E+00  0.0000E+00  0.7071E-01  0.7071E-01
    -28.997  0.0000E+00  0.0000E+00  0.8081E-01  0.8081E-01
    -28.843  0.0000E+00  0.0000E+00  0.8081E-01  0.8081E-01
    -28.689  0.0000E+00  0.0000E+00  0.8081E-01  0.8081E-01
    -28.535  0.0000E+00  0.0000E+00  0.8081E-01  0.8081E-01
    -28.381  0.0000E+00  0.0000E+00  0.8081E-01  0.8081E-01
    -28.227  0.0000E+00  0.0000E+00  0.8081E-01  0.8081E-01
    -28.073  0.0000E+00  0.0000E+00  0.8081E-01  0.8081E-01
    -27.919  0.0000E+00  0.0000E+00  0.8081E-01  0.8081E-01
    -27.765  0.0000E+00  0.0000E+00  0.8081E-01  0.8081E-01
    -27.611  0.0000E+00  0.0000E+00  0.8081E-01  0.8081E-01
    -27.457  0.0000E+00  0.0000E+00  0.8081E-01  0.8081E-01
    -27.303  0.0000E+00  0.0000E+00  0.8081E-01  0.8081E-01
    -27.148  0.0000E+00  0.0000E+00  0.8081E-01  0.8081E-01
    -26.994  0.0000E+00  0.0000E+00  0.8081E-01  0.8081E-01
    -26.840  0.0000E+00  0.0000E+00  0.8081E-01  0.8081E-01
    -26.686  0.0000E+00  0.0000E+00  0.8081E-01  0.8081E-01
    -26.532  0.0000E+00  0.0000E+00  0.8081E-01  0.8081E-01
    -26.378  0.0000E+00  0.0000E+00  0.8081E-01  0.8081E-01
    -26.224  0.0000E+00  0.0000E+00  0.8081E-01  0.8081E-01
    -26.070  0.0000E+00  0.0000E+00  0.8081E-01  0.8081E-01
    -25.916  0.0000E+00  0.0000E+00  0.8081E-01  0.8081E-01
    -25.762  0.0000E+00  0.0000E+00  0.8081E-01  0.8081E-01
    -25.608  0.0000E+00  0.0000E+00  0.8081E-01  0.8081E-01
    -25.454  0.0000E+00  0.0000E+00  0.8081E-01  0.8081E-01
    -25.300  0.0000E+00  0.0000E+00  0.8081E-01  0.8081E-01
    -25.146  0.0000E+00  0.0000E+00  0.8081E-01  0.8081E-01
    -24.992  0.0000E+00  0.0000E+00  0.8081E-01  0.8081E-01
    -24.838  0.0000E+00  0.0000E+00  0.8081E-01  0.8081E-01
    -24.684  0.0000E+00  0.0000E+00  0.8081E-01  0.8081E-01
    -24.529  0.0000E+00  0.0000E+00  0.8081E-01  0.8081E-01
    -24.375  0.0000E+00  0.0000E+00  0.8081E-01  0.8081E-01
    -24.221  0.0000E+00  0.0000E+00  0.8081E-01  0.8081E-01
    -24.067  0.0000E+00  0.0000E+00  0.8081E-01  0.8081E-01
    -23.913  0.0000E+00  0.0000E+00  0.8081E-01  0.8081E-01
    -23.759  0.0000E+00  0.0000E+00  0.8081E-01  0.8081E-01
    -23.605  0.0000E+00  0.0000E+00  0.8081E-01  0.8081E-01
    -23.451  0.0000E+00  0.0000E+00  0.8081E-01  0.8081E-01
    -23.297  0.0000E+00  0.0000E+00  0.8081E-01  0.8081E-01
    -23.143  0.0000E+00  0.0000E+00  0.8081E-01  0.8081E-01
    -22.989  0.0000E+00  0.0000E+00  0.8081E-01  0.8081E-01
    -22.835  0.0000E+00  0.0000E+00  0.8081E-01  0.8081E-01
    -22.681  0.0000E+00  0.0000E+00  0.8081E-01  0.8081E-01
    -22.527  0.0000E+00  0.0000E+00  0.8081E-01  0.8081E-01
    -22.373  0.0000E+00  0.0000E+00  0.8081E-01  0.8081E-01
    -22.219  0.0000E+00  0.0000E+00  0.8081E-01  0.8081E-01
    -22.065  0.0000E+00  0.0000E+00  0.8081E-01  0.8081E-01
    -21.910  0.0000E+00  0.0000E+00  0.8081E-01  0.8081E-01
    -21.756  0.0000E+00  0.0000E+00  0.8081E-01  0.8081E-01
    -21.602  0.0000E+00  0.0000E+00  0.8081E-01  0.8081E-01
    -21.448  0.0000E+00  0.0000E+00  0.8081E-01  0.8081E-01
    -21.294  0.0000E+00  0.0000E+00  0.8081E-01  0.8081E-01
    -21.140  0.0000E+00  0.0000E+00  0.8081E-01  0.8081E-01
    -20.986  0.0000E+00  0.0000E+00  0.8081E-01  0.8081E-01
    -20.832  0.0000E+00  0.0000E+00  0.8081E-01  0.8081E-01
    -20.678  0.0000E+00  0.0000E+00  0.8081E-01  0.8081E-01
    -20.524  0.0000E+00  0.0000E+00  0.8081E-01  0.8081E-01
    -20.370  0.0000E+00  0.0000E+00  0.8081E-01  0.8081E-01
    -20.216  0.0000E+00  0.0000E+00  0.8081E-01  0.8081E-01
    -20.062  0.0000E+00  0.0000E+00  0.8081E-01  0.8081E-01
    -19.908  0.0000E+00  0.0000E+00  0.8081E-01  0.8081E-01
    -19.754  0.0000E+00  0.0000E+00  0.8081E-01  0.8081E-01
    -19.600  0.0000E+00  0.0000E+00  0.8081E-01  0.8081E-01
    -19.446  0.0000E+00  0.0000E+00  0.8081E-01  0.8081E-01
    -19.291  0.0000E+00  0.0000E+00  0.8081E-01  0.8081E-01
    -19.137  0.0000E+00  0.0000E+00  0.8081E-01  0.8081E-01
    -18.983  0.0000E+00  0.0000E+00  0.8081E-01  0.8081E-01
    -18.829  0.0000E+00  0.0000E+00  0.8081E-01  0.8081E-01
    -18.675  0.0000E+00  0.0000E+00  0.8081E-01  0.8081E-01
    -18.521  0.0000E+00  0.0000E+00  0.8081E-01  0.8081E-01
    -18.367  0.0000E+00  0.0000E+00  0.8081E-01  0.8081E-01
    -18.213  0.0000E+00  0.0000E+00  0.8081E-01  0.8081E-01
    -18.059  0.0000E+00  0.0000E+00  0.8081E-01  0.8081E-01
    -17.905  0.0000E+00  0.0000E+00  0.8081E-01  0.8081E-01
    -17.751  0.0000E+00  0.0000E+00  0.8081E-01  0.8081E-01
    -17.597  0.0000E+00  0.0000E+00  0.8081E-01  0.8081E-01
    -17.443  0.0000E+00  0.0000E+00  0.8081E-01  0.8081E-01
    -17.289  0.0000E+00  0.0000E+00  0.8081E-01  0.8081E-01
    -17.135  0.0000E+00  0.0000E+00  0.8081E-01  0.8081E-01
    -16.981  0.0000E+00  0.0000E+00  0.8081E-01  0.8081E-01
    -16.827  0.0000E+00  0.0000E+00  0.8081E-01  0.8081E-01
    -16.672  0.0000E+00  0.0000E+00  0.8081E-01  0.8081E-01
    -16.518  0.0000E+00  0.0000E+00  0.8081E-01  0.8081E-01
    -16.364  0.0000E+00  0.0000E+00  0.8081E-01  0.8081E-01
    -16.210  0.0000E+00  0.0000E+00  0.8081E-01  0.8081E-01
    -16.056  0.0000E+00  0.0000E+00  0.8081E-01  0.8081E-01
    -15.902  0.0000E+00  0.0000E+00  0.8081E-01  0.8081E-01
    -15.748  0.2339E+00  0.2339E+00  0.9705E-01  0.9705E-01
    -15.594  0.4129E+00  0.4129E+00  0.1302E+00  0.1302E+00
    -15.440  0.5494E+00  0.5494E+00  0.1784E+00  0.1784E+00
    -15.286  0.4546E-03  0.4545E-03  0.2222E+00  0.2222E+00
    -15.132  0.0000E+00  0.0000E+00  0.2323E+00  0.2323E+00
    -14.978  0.0000E+00  0.0000E+00  0.2323E+00  0.2323E+00
    -14.824  0.0000E+00  0.0000E+00  0.2323E+00  0.2323E+00
    -14.670  0.0000E+00  0.0000E+00  0.2323E+00  0.2323E+00
    -14.516  0.0000E+00  0.0000E+00  0.2323E+00  0.2323E+00
    -14.362  0.0000E+00  0.0000E+00  0.2323E+00  0.2323E+00
    -14.208  0.0000E+00  0.0000E+00  0.2323E+00  0.2323E+00
    -14.053  0.0000E+00  0.0000E+00  0.2323E+00  0.2323E+00
    -13.899  0.0000E+00  0.0000E+00  0.2323E+00  0.2323E+00
    -13.745  0.0000E+00  0.0000E+00  0.2323E+00  0.2323E+00
    -13.591  0.0000E+00  0.0000E+00  0.2323E+00  0.2323E+00
    -13.437  0.0000E+00  0.0000E+00  0.2323E+00  0.2323E+00
    -13.283  0.0000E+00  0.0000E+00  0.2323E+00  0.2323E+00
    -13.129  0.0000E+00  0.0000E+00  0.2323E+00  0.2323E+00
    -12.975  0.0000E+00  0.0000E+00  0.2323E+00  0.2323E+00
    -12.821  0.0000E+00  0.0000E+00  0.2323E+00  0.2323E+00
    -12.667  0.0000E+00  0.0000E+00  0.2323E+00  0.2323E+00
    -12.513  0.0000E+00  0.0000E+00  0.2323E+00  0.2323E+00
    -12.359  0.0000E+00  0.0000E+00  0.2323E+00  0.2323E+00
    -12.205  0.0000E+00  0.0000E+00  0.2323E+00  0.2323E+00
    -12.051  0.0000E+00  0.0000E+00  0.2323E+00  0.2323E+00
    -11.897  0.0000E+00  0.0000E+00  0.2323E+00  0.2323E+00
    -11.743  0.0000E+00  0.0000E+00  0.2323E+00  0.2323E+00
    -11.589  0.0000E+00  0.0000E+00  0.2323E+00  0.2323E+00
    -11.434  0.0000E+00  0.0000E+00  0.2323E+00  0.2323E+00
    -11.280  0.0000E+00  0.0000E+00  0.2323E+00  0.2323E+00
    -11.126  0.0000E+00  0.0000E+00  0.2323E+00  0.2323E+00
    -10.972  0.0000E+00  0.0000E+00  0.2323E+00  0.2323E+00
    -10.818  0.0000E+00  0.0000E+00  0.2323E+00  0.2323E+00
    -10.664  0.0000E+00  0.0000E+00  0.2323E+00  0.2323E+00
    -10.510  0.0000E+00  0.0000E+00  0.2323E+00  0.2323E+00
    -10.356  0.0000E+00  0.0000E+00  0.2323E+00  0.2323E+00
    -10.202  0.0000E+00  0.0000E+00  0.2323E+00  0.2323E+00
    -10.048  0.0000E+00  0.0000E+00  0.2323E+00  0.2323E+00
     -9.894  0.0000E+00  0.0000E+00  0.2323E+00  0.2323E+00
     -9.740  0.0000E+00  0.0000E+00  0.2323E+00  0.2323E+00
     -9.586  0.0000E+00  0.0000E+00  0.2323E+00  0.2323E+00
     -9.432  0.0000E+00  0.0000E+00  0.2323E+00  0.2323E+00
     -9.278  0.0000E+00  0.0000E+00  0.2323E+00  0.2323E+00
     -9.124  0.0000E+00  0.0000E+00  0.2323E+00  0.2323E+00
     -8.970  0.0000E+00  0.0000E+00  0.2323E+00  0.2323E+00
     -8.815  0.0000E+00  0.0000E+00  0.2323E+00  0.2323E+00
     -8.661  0.0000E+00  0.0000E+00  0.2323E+00  0.2323E+00
     -8.507  0.0000E+00  0.0000E+00  0.2323E+00  0.2323E+00
     -8.353  0.0000E+00  0.0000E+00  0.2323E+00  0.2323E+00
     -8.199  0.0000E+00  0.0000E+00  0.2323E+00  0.2323E+00
     -8.045  0.0000E+00  0.0000E+00  0.2323E+00  0.2323E+00
     -7.891  0.0000E+00  0.0000E+00  0.2323E+00  0.2323E+00
     -7.737  0.0000E+00  0.0000E+00  0.2323E+00  0.2323E+00
     -7.583  0.0000E+00  0.0000E+00  0.2323E+00  0.2323E+00
     -7.429  0.0000E+00  0.0000E+00  0.2323E+00  0.2323E+00
     -7.275  0.0000E+00  0.0000E+00  0.2323E+00  0.2323E+00
     -7.121  0.0000E+00  0.0000E+00  0.2323E+00  0.2323E+00
     -6.967  0.0000E+00  0.0000E+00  0.2323E+00  0.2323E+00
     -6.813  0.0000E+00  0.0000E+00  0.2323E+00  0.2323E+00
     -6.659  0.0000E+00  0.0000E+00  0.2323E+00  0.2323E+00
     -6.505  0.0000E+00  0.0000E+00  0.2323E+00  0.2323E+00
     -6.351  0.0000E+00  0.0000E+00  0.2323E+00  0.2323E+00
     -6.197  0.0000E+00  0.0000E+00  0.2323E+00  0.2323E+00
     -6.042  0.0000E+00  0.0000E+00  0.2323E+00  0.2323E+00
     -5.888  0.0000E+00  0.0000E+00  0.2323E+00  0.2323E+00
     -5.734  0.0000E+00  0.0000E+00  0.2323E+00  0.2323E+00
     -5.580  0.0000E+00  0.0000E+00  0.2323E+00  0.2323E+00
     -5.426  0.0000E+00  0.0000E+00  0.2323E+00  0.2323E+00
     -5.272  0.5521E-03  0.5521E-03  0.2323E+00  0.2323E+00
     -5.118  0.6767E-02  0.6767E-02  0.2328E+00  0.2328E+00
     -4.964  0.1405E-01  0.1405E-01  0.2345E+00  0.2345E+00
     -4.810  0.1858E-01  0.1858E-01  0.2369E+00  0.2369E+00
     -4.656  0.3106E-01  0.3106E-01  0.2410E+00  0.2410E+00
     -4.502  0.0000E+00  0.0000E+00  0.2424E+00  0.2424E+00
     -4.348  0.0000E+00  0.0000E+00  0.2424E+00  0.2424E+00
     -4.194  0.0000E+00  0.0000E+00  0.2424E+00  0.2424E+00
     -4.040  0.0000E+00  0.0000E+00  0.2424E+00  0.2424E+00
     -3.886  0.0000E+00  0.0000E+00  0.2424E+00  0.2424E+00
     -3.732  0.0000E+00  0.0000E+00  0.2424E+00  0.2424E+00
     -3.578  0.0000E+00  0.0000E+00  0.2424E+00  0.2424E+00
     -3.423  0.2863E-02  0.2863E-02  0.2425E+00  0.2425E+00
     -3.269  0.1971E-01  0.1971E-01  0.2440E+00  0.2440E+00
     -3.115  0.3455E-01  0.3455E-01  0.2487E+00  0.2487E+00
     -2.961  0.4485E-02  0.4485E-02  0.2524E+00  0.2524E+00
     -2.807  0.6080E-03  0.6080E-03  0.2525E+00  0.2525E+00
     -2.653  0.4415E-01  0.4415E-01  0.2560E+00  0.2560E+00
     -2.499  0.2766E-01  0.2766E-01  0.2616E+00  0.2616E+00
     -2.345  0.4328E-01  0.4328E-01  0.2666E+00  0.2666E+00
     -2.191  0.7349E-01  0.7349E-01  0.2752E+00  0.2752E+00
     -2.037  0.6161E-01  0.6161E-01  0.2850E+00  0.2850E+00
     -1.883  0.5052E-01  0.5052E-01  0.2938E+00  0.2938E+00
     -1.729  0.8473E-02  0.8473E-02  0.3031E+00  0.3031E+00
     -1.575  0.6303E-01  0.6303E-01  0.3121E+00  0.3121E+00
     -1.421  0.5909E-01  0.5909E-01  0.3212E+00  0.3212E+00
     -1.267  0.8930E-01  0.8930E-01  0.3306E+00  0.3306E+00
     -1.113  0.3288E-01  0.3289E-01  0.3345E+00  0.3345E+00
     -0.959  0.2706E-03  0.2706E-03  0.3434E+00  0.3434E+00
     -0.804  0.1058E+00  0.1058E+00  0.3499E+00  0.3499E+00
     -0.650  0.7385E-01  0.7385E-01  0.3549E+00  0.3549E+00
     -0.496  0.3768E-04  0.3767E-04  0.3636E+00  0.3636E+00
     -0.342  0.9329E-01  0.9329E-01  0.3700E+00  0.3700E+00
     -0.188  0.8168E-02  0.8167E-02  0.3740E+00  0.3740E+00
     -0.034  0.3330E-01  0.3330E-01  0.3767E+00  0.3767E+00
      0.120  0.1970E-01  0.1970E-01  0.3831E+00  0.3831E+00
      0.274  0.0000E+00  0.0000E+00  0.3838E+00  0.3838E+00
      0.428  0.0000E+00  0.0000E+00  0.3838E+00  0.3838E+00
      0.582  0.0000E+00  0.0000E+00  0.3838E+00  0.3838E+00
      0.736  0.0000E+00  0.0000E+00  0.3838E+00  0.3838E+00
      0.890  0.0000E+00  0.0000E+00  0.3838E+00  0.3838E+00
      1.044  0.0000E+00  0.0000E+00  0.3838E+00  0.3838E+00
      1.198  0.0000E+00  0.0000E+00  0.3838E+00  0.3838E+00
      1.352  0.0000E+00  0.0000E+00  0.3838E+00  0.3838E+00
      1.506  0.0000E+00  0.0000E+00  0.3838E+00  0.3838E+00
      1.660  0.0000E+00  0.0000E+00  0.3838E+00  0.3838E+00
      1.815  0.0000E+00  0.0000E+00  0.3838E+00  0.3838E+00
      1.969  0.0000E+00  0.0000E+00  0.3838E+00  0.3838E+00
      2.123  0.0000E+00  0.0000E+00  0.3838E+00  0.3838E+00
      2.277  0.0000E+00  0.0000E+00  0.3838E+00  0.3838E+00
      2.431  0.0000E+00  0.0000E+00  0.3838E+00  0.3838E+00
      2.585  0.0000E+00  0.0000E+00  0.3838E+00  0.3838E+00
      2.739  0.0000E+00  0.0000E+00  0.3838E+00  0.3838E+00
      2.893  0.0000E+00  0.0000E+00  0.3838E+00  0.3838E+00
      3.047  0.9283E-07  0.9274E-07  0.3838E+00  0.3838E+00
      3.201  0.2471E-01  0.2471E-01  0.3856E+00  0.3856E+00
      3.355  0.5716E-01  0.5716E-01  0.3928E+00  0.3928E+00
      3.509  0.1028E+00  0.1028E+00  0.4012E+00  0.4012E+00
      3.663  0.6776E-01  0.6776E-01  0.4071E+00  0.4071E+00
      3.817  0.2899E-01  0.2899E-01  0.4147E+00  0.4147E+00
      3.971  0.4483E-01  0.4483E-01  0.4226E+00  0.4226E+00
      4.125  0.4932E-01  0.4932E-01  0.4286E+00  0.4286E+00
      4.279  0.4152E-01  0.4152E-01  0.4355E+00  0.4355E+00
      4.434  0.2638E-01  0.2638E-01  0.4441E+00  0.4441E+00
      4.588  0.5703E-01  0.5703E-01  0.4494E+00  0.4494E+00
      4.742  0.4656E-01  0.4656E-01  0.4551E+00  0.4551E+00
      4.896  0.4026E-01  0.4026E-01  0.4619E+00  0.4619E+00
      5.050  0.3926E-01  0.3926E-01  0.4666E+00  0.4666E+00
      5.204  0.3065E-01  0.3065E-01  0.4721E+00  0.4721E+00
      5.358  0.4412E-01  0.4412E-01  0.4772E+00  0.4772E+00
      5.512  0.1353E-01  0.1353E-01  0.4847E+00  0.4847E+00
      5.666  0.6045E-01  0.6045E-01  0.4919E+00  0.4919E+00
      5.820  0.5581E-01  0.5581E-01  0.4964E+00  0.4964E+00
      5.974  0.2202E-01  0.2202E-01  0.5050E+00  0.5050E+00
      6.128  0.3484E-01  0.3484E-01  0.5140E+00  0.5140E+00
      6.282  0.5513E-01  0.5513E-01  0.5215E+00  0.5215E+00
      6.436  0.6267E-01  0.6267E-01  0.5275E+00  0.5275E+00
      6.590  0.4809E-01  0.4809E-01  0.5360E+00  0.5360E+00
      6.744  0.4381E-01  0.4381E-01  0.5450E+00  0.5450E+00
      6.898  0.4558E-01  0.4558E-01  0.5539E+00  0.5539E+00
      7.053  0.4783E-01  0.4783E-01  0.5644E+00  0.5644E+00
      7.207  0.4754E-01  0.4754E-01  0.5741E+00  0.5741E+00
      7.361  0.7239E-01  0.7239E-01  0.5828E+00  0.5828E+00
      7.515  0.7267E-01  0.7267E-01  0.5908E+00  0.5908E+00
      7.669  0.9914E-01  0.9914E-01  0.6022E+00  0.6022E+00
      7.823  0.6802E-01  0.6802E-01  0.6089E+00  0.6089E+00
      7.977  0.6412E-01  0.6412E-01  0.6187E+00  0.6187E+00
      8.131  0.4600E-01  0.4601E-01  0.6279E+00  0.6279E+00
      8.285  0.7157E-01  0.7143E-01  0.6363E+00  0.6363E+00
      8.439  0.3899E-01  0.3924E-01  0.6456E+00  0.6456E+00
      8.593  0.0000E+00  0.0000E+00  0.6465E+00  0.6465E+00
      8.747  0.0000E+00  0.0000E+00  0.6465E+00  0.6465E+00
      8.901  0.0000E+00  0.0000E+00  0.6465E+00  0.6465E+00
      9.055  0.0000E+00  0.0000E+00  0.6465E+00  0.6465E+00
      9.209  0.0000E+00  0.0000E+00  0.6465E+00  0.6465E+00
      9.363  0.0000E+00  0.0000E+00  0.6465E+00  0.6465E+00
      9.517  0.0000E+00  0.0000E+00  0.6465E+00  0.6465E+00
      9.672  0.0000E+00  0.0000E+00  0.6465E+00  0.6465E+00
      9.826  0.0000E+00  0.0000E+00  0.6465E+00  0.6465E+00
      9.980  0.0000E+00  0.0000E+00  0.6465E+00  0.6465E+00
     10.134  0.0000E+00  0.0000E+00  0.6465E+00  0.6465E+00
     10.288  0.0000E+00  0.0000E+00  0.6465E+00  0.6465E+00
     10.442  0.0000E+00  0.0000E+00  0.6465E+00  0.6465E+00
     10.596  0.0000E+00  0.0000E+00  0.6465E+00  0.6465E+00
     10.59587535    -35.62167326  301      0.31247079      1.00000000
    -35.622  0.0000E+00  0.0000E+00  0.0000E+00  0.0000E+00  0.0000E+00  0.0000E+00  0.0000E+00  0.0000E+00  0.0000E+00  0.0000E+00  0.0000E+00  0.0000E+00  0.0000E+00  0.0000E+00  0.0000E+00  0.0000E+00  0.0000E+00  0.0000E+00
    -35.468  0.0000E+00  0.0000E+00  0.0000E+00  0.0000E+00  0.0000E+00  0.0000E+00  0.0000E+00  0.0000E+00  0.0000E+00  0.0000E+00  0.0000E+00  0.0000E+00  0.0000E+00  0.0000E+00  0.0000E+00  0.0000E+00  0.0000E+00  0.0000E+00
    -35.314  0.0000E+00  0.0000E+00  0.0000E+00  0.0000E+00  0.0000E+00  0.0000E+00  0.0000E+00  0.0000E+00  0.0000E+00  0.0000E+00  0.0000E+00  0.0000E+00  0.0000E+00  0.0000E+00  0.0000E+00  0.0000E+00  0.0000E+00  0.0000E+00
    -35.159  0.0000E+00  0.0000E+00  0.0000E+00  0.0000E+00  0.0000E+00  0.0000E+00  0.0000E+00  0.0000E+00  0.0000E+00  0.0000E+00  0.0000E+00  0.0000E+00  0.0000E+00  0.0000E+00  0.0000E+00  0.0000E+00  0.0000E+00  0.0000E+00
    -35.005  0.0000E+00  0.0000E+00  0.0000E+00  0.0000E+00  0.0000E+00  0.0000E+00  0.0000E+00  0.0000E+00  0.0000E+00  0.0000E+00  0.0000E+00  0.0000E+00  0.0000E+00  0.0000E+00  0.0000E+00  0.0000E+00  0.0000E+00  0.0000E+00
    -34.851  0.0000E+00  0.0000E+00  0.0000E+00  0.0000E+00  0.0000E+00  0.0000E+00  0.0000E+00  0.0000E+00  0.0000E+00  0.0000E+00  0.0000E+00  0.0000E+00  0.0000E+00  0.0000E+00  0.0000E+00  0.0000E+00  0.0000E+00  0.0000E+00
    -34.697  0.0000E+00  0.0000E+00  0.0000E+00  0.0000E+00  0.0000E+00  0.0000E+00  0.0000E+00  0.0000E+00  0.0000E+00  0.0000E+00  0.0000E+00  0.0000E+00  0.0000E+00  0.0000E+00  0.0000E+00  0.0000E+00  0.0000E+00  0.0000E+00
    -34.543  0.0000E+00  0.0000E+00  0.0000E+00  0.0000E+00  0.0000E+00  0.0000E+00  0.0000E+00  0.0000E+00  0.0000E+00  0.0000E+00  0.0000E+00  0.0000E+00  0.0000E+00  0.0000E+00  0.0000E+00  0.0000E+00  0.0000E+00  0.0000E+00
    -34.389  0.0000E+00  0.0000E+00  0.0000E+00  0.0000E+00  0.0000E+00  0.0000E+00  0.0000E+00  0.0000E+00  0.0000E+00  0.0000E+00  0.0000E+00  0.0000E+00  0.0000E+00  0.0000E+00  0.0000E+00  0.0000E+00  0.0000E+00  0.0000E+00
    -34.235  0.0000E+00  0.0000E+00  0.0000E+00  0.0000E+00  0.0000E+00  0.0000E+00  0.0000E+00  0.0000E+00  0.0000E+00  0.0000E+00  0.0000E+00  0.0000E+00  0.0000E+00  0.0000E+00  0.0000E+00  0.0000E+00  0.0000E+00  0.0000E+00
    -34.081  0.0000E+00  0.0000E+00  0.0000E+00  0.0000E+00  0.0000E+00  0.0000E+00  0.0000E+00  0.0000E+00  0.0000E+00  0.0000E+00  0.0000E+00  0.0000E+00  0.0000E+00  0.0000E+00  0.0000E+00  0.0000E+00  0.0000E+00  0.0000E+00
    -33.927  0.0000E+00  0.0000E+00  0.0000E+00  0.0000E+00  0.0000E+00  0.0000E+00  0.0000E+00  0.0000E+00  0.0000E+00  0.0000E+00  0.0000E+00  0.0000E+00  0.0000E+00  0.0000E+00  0.0000E+00  0.0000E+00  0.0000E+00  0.0000E+00
    -33.773  0.0000E+00  0.0000E+00  0.0000E+00  0.0000E+00  0.0000E+00  0.0000E+00  0.0000E+00  0.0000E+00  0.0000E+00  0.0000E+00  0.0000E+00  0.0000E+00  0.0000E+00  0.0000E+00  0.0000E+00  0.0000E+00  0.0000E+00  0.0000E+00
    -33.619  0.0000E+00  0.0000E+00  0.0000E+00  0.0000E+00  0.0000E+00  0.0000E+00  0.0000E+00  0.0000E+00  0.0000E+00  0.0000E+00  0.0000E+00  0.0000E+00  0.0000E+00  0.0000E+00  0.0000E+00  0.0000E+00  0.0000E+00  0.0000E+00
    -33.465  0.0000E+00  0.0000E+00  0.0000E+00  0.0000E+00  0.0000E+00  0.0000E+00  0.0000E+00  0.0000E+00  0.0000E+00  0.0000E+00  0.0000E+00  0.0000E+00  0.0000E+00  0.0000E+00  0.0000E+00  0.0000E+00  0.0000E+00  0.0000E+00
    -33.311  0.0000E+00  0.0000E+00  0.0000E+00  0.0000E+00  0.0000E+00  0.0000E+00  0.0000E+00  0.0000E+00  0.0000E+00  0.0000E+00  0.0000E+00  0.0000E+00  0.0000E+00  0.0000E+00  0.0000E+00  0.0000E+00  0.0000E+00  0.0000E+00
    -33.157  0.0000E+00  0.0000E+00  0.0000E+00  0.0000E+00  0.0000E+00  0.0000E+00  0.0000E+00  0.0000E+00  0.0000E+00  0.0000E+00  0.0000E+00  0.0000E+00  0.0000E+00  0.0000E+00  0.0000E+00  0.0000E+00  0.0000E+00  0.0000E+00
    -33.003  0.0000E+00  0.0000E+00  0.0000E+00  0.0000E+00  0.0000E+00  0.0000E+00  0.0000E+00  0.0000E+00  0.0000E+00  0.0000E+00  0.0000E+00  0.0000E+00  0.0000E+00  0.0000E+00  0.0000E+00  0.0000E+00  0.0000E+00  0.0000E+00
    -32.849  0.0000E+00  0.0000E+00  0.0000E+00  0.0000E+00  0.0000E+00  0.0000E+00  0.0000E+00  0.0000E+00  0.0000E+00  0.0000E+00  0.0000E+00  0.0000E+00  0.0000E+00  0.0000E+00  0.0000E+00  0.0000E+00  0.0000E+00  0.0000E+00
    -32.695  0.0000E+00  0.0000E+00  0.0000E+00  0.0000E+00  0.0000E+00  0.0000E+00  0.0000E+00  0.0000E+00  0.0000E+00  0.0000E+00  0.0000E+00  0.0000E+00  0.0000E+00  0.0000E+00  0.0000E+00  0.0000E+00  0.0000E+00  0.0000E+00
    -32.541  0.0000E+00  0.0000E+00  0.0000E+00  0.0000E+00  0.0000E+00  0.0000E+00  0.0000E+00  0.0000E+00  0.0000E+00  0.0000E+00  0.0000E+00  0.0000E+00  0.0000E+00  0.0000E+00  0.0000E+00  0.0000E+00  0.0000E+00  0.0000E+00
    -32.386  0.0000E+00  0.0000E+00  0.0000E+00  0.0000E+00  0.0000E+00  0.0000E+00  0.0000E+00  0.0000E+00  0.0000E+00  0.0000E+00  0.0000E+00  0.0000E+00  0.0000E+00  0.0000E+00  0.0000E+00  0.0000E+00  0.0000E+00  0.0000E+00
    -32.232  0.0000E+00  0.0000E+00  0.0000E+00  0.0000E+00  0.0000E+00  0.0000E+00  0.0000E+00  0.0000E+00  0.0000E+00  0.0000E+00  0.0000E+00  0.0000E+00  0.0000E+00  0.0000E+00  0.0000E+00  0.0000E+00  0.0000E+00  0.0000E+00
    -32.078  0.0000E+00  0.0000E+00  0.0000E+00  0.0000E+00  0.0000E+00  0.0000E+00  0.0000E+00  0.0000E+00  0.0000E+00  0.0000E+00  0.0000E+00  0.0000E+00  0.0000E+00  0.0000E+00  0.0000E+00  0.0000E+00  0.0000E+00  0.0000E+00
    -31.924  0.0000E+00  0.0000E+00  0.0000E+00  0.0000E+00  0.0000E+00  0.0000E+00  0.0000E+00  0.0000E+00  0.0000E+00  0.0000E+00  0.0000E+00  0.0000E+00  0.0000E+00  0.0000E+00  0.0000E+00  0.0000E+00  0.0000E+00  0.0000E+00
    -31.770  0.0000E+00  0.0000E+00  0.0000E+00  0.0000E+00  0.0000E+00  0.0000E+00  0.0000E+00  0.0000E+00  0.0000E+00  0.0000E+00  0.0000E+00  0.0000E+00  0.0000E+00  0.0000E+00  0.0000E+00  0.0000E+00  0.0000E+00  0.0000E+00
    -31.616  0.0000E+00  0.0000E+00  0.0000E+00  0.0000E+00  0.0000E+00  0.0000E+00  0.0000E+00  0.0000E+00  0.0000E+00  0.0000E+00  0.0000E+00  0.0000E+00  0.0000E+00  0.0000E+00  0.0000E+00  0.0000E+00  0.0000E+00  0.0000E+00
    -31.462  0.0000E+00  0.0000E+00  0.0000E+00  0.0000E+00  0.0000E+00  0.0000E+00  0.0000E+00  0.0000E+00  0.0000E+00  0.0000E+00  0.0000E+00  0.0000E+00  0.0000E+00  0.0000E+00  0.0000E+00  0.0000E+00  0.0000E+00  0.0000E+00
    -31.308  0.0000E+00  0.0000E+00  0.0000E+00  0.0000E+00  0.0000E+00  0.0000E+00  0.0000E+00  0.0000E+00  0.0000E+00  0.0000E+00  0.0000E+00  0.0000E+00  0.0000E+00  0.0000E+00  0.0000E+00  0.0000E+00  0.0000E+00  0.0000E+00
    -31.154  0.0000E+00  0.0000E+00  0.0000E+00  0.0000E+00  0.0000E+00  0.0000E+00  0.0000E+00  0.0000E+00  0.0000E+00  0.0000E+00  0.0000E+00  0.0000E+00  0.0000E+00  0.0000E+00  0.0000E+00  0.0000E+00  0.0000E+00  0.0000E+00
    -31.000  0.0000E+00  0.0000E+00  0.0000E+00  0.0000E+00  0.0000E+00  0.0000E+00  0.0000E+00  0.0000E+00  0.0000E+00  0.0000E+00  0.0000E+00  0.0000E+00  0.0000E+00  0.0000E+00  0.0000E+00  0.0000E+00  0.0000E+00  0.0000E+00
    -30.846  0.0000E+00  0.0000E+00  0.0000E+00  0.0000E+00  0.0000E+00  0.0000E+00  0.0000E+00  0.0000E+00  0.0000E+00  0.0000E+00  0.0000E+00  0.0000E+00  0.0000E+00  0.0000E+00  0.0000E+00  0.0000E+00  0.0000E+00  0.0000E+00
    -30.692  0.0000E+00  0.0000E+00  0.0000E+00  0.0000E+00  0.0000E+00  0.0000E+00  0.0000E+00  0.0000E+00  0.0000E+00  0.0000E+00  0.0000E+00  0.0000E+00  0.0000E+00  0.0000E+00  0.0000E+00  0.0000E+00  0.0000E+00  0.0000E+00
    -30.538  0.0000E+00  0.0000E+00  0.0000E+00  0.0000E+00  0.0000E+00  0.0000E+00  0.0000E+00  0.0000E+00  0.0000E+00  0.0000E+00  0.0000E+00  0.0000E+00  0.0000E+00  0.0000E+00  0.0000E+00  0.0000E+00  0.0000E+00  0.0000E+00
    -30.384  0.0000E+00  0.0000E+00  0.0000E+00  0.0000E+00  0.0000E+00  0.0000E+00  0.0000E+00  0.0000E+00  0.0000E+00  0.0000E+00  0.0000E+00  0.0000E+00  0.0000E+00  0.0000E+00  0.0000E+00  0.0000E+00  0.0000E+00  0.0000E+00
    -30.230  0.0000E+00  0.0000E+00  0.0000E+00  0.0000E+00  0.0000E+00  0.0000E+00  0.0000E+00  0.0000E+00  0.0000E+00  0.0000E+00  0.0000E+00  0.0000E+00  0.0000E+00  0.0000E+00  0.0000E+00  0.0000E+00  0.0000E+00  0.0000E+00
    -30.076  0.0000E+00  0.0000E+00  0.0000E+00  0.0000E+00  0.0000E+00  0.0000E+00  0.0000E+00  0.0000E+00  0.0000E+00  0.0000E+00  0.0000E+00  0.0000E+00  0.0000E+00  0.0000E+00  0.0000E+00  0.0000E+00  0.0000E+00  0.0000E+00
    -29.922  0.0000E+00  0.0000E+00  0.0000E+00  0.0000E+00  0.0000E+00  0.0000E+00  0.0000E+00  0.0000E+00  0.0000E+00  0.0000E+00  0.0000E+00  0.0000E+00  0.0000E+00  0.0000E+00  0.0000E+00  0.0000E+00  0.0000E+00  0.0000E+00
    -29.767  0.0000E+00  0.0000E+00  0.0000E+00  0.0000E+00  0.0000E+00  0.0000E+00  0.0000E+00  0.0000E+00  0.0000E+00  0.0000E+00  0.0000E+00  0.0000E+00  0.0000E+00  0.0000E+00  0.0000E+00  0.0000E+00  0.0000E+00  0.0000E+00
    -29.613  0.0000E+00  0.0000E+00  0.0000E+00  0.0000E+00  0.0000E+00  0.0000E+00  0.0000E+00  0.0000E+00  0.0000E+00  0.0000E+00  0.0000E+00  0.0000E+00  0.0000E+00  0.0000E+00  0.0000E+00  0.0000E+00  0.0000E+00  0.0000E+00
    -29.459  0.0000E+00  0.0000E+00  0.0000E+00  0.0000E+00  0.0000E+00  0.0000E+00  0.0000E+00  0.0000E+00  0.0000E+00  0.0000E+00  0.0000E+00  0.0000E+00  0.0000E+00  0.0000E+00  0.0000E+00  0.0000E+00  0.0000E+00  0.0000E+00
    -29.305  0.0000E+00  0.0000E+00  0.0000E+00  0.0000E+00  0.0000E+00  0.0000E+00  0.0000E+00  0.0000E+00  0.0000E+00  0.0000E+00  0.0000E+00  0.0000E+00  0.0000E+00  0.0000E+00  0.0000E+00  0.0000E+00  0.0000E+00  0.0000E+00
    -29.151  0.0000E+00  0.0000E+00  0.0000E+00  0.0000E+00  0.0000E+00  0.0000E+00  0.0000E+00  0.0000E+00  0.0000E+00  0.0000E+00  0.0000E+00  0.0000E+00  0.0000E+00  0.0000E+00  0.0000E+00  0.0000E+00  0.0000E+00  0.0000E+00
    -28.997  0.0000E+00  0.0000E+00  0.0000E+00  0.0000E+00  0.0000E+00  0.0000E+00  0.0000E+00  0.0000E+00  0.0000E+00  0.0000E+00  0.0000E+00  0.0000E+00  0.0000E+00  0.0000E+00  0.0000E+00  0.0000E+00  0.0000E+00  0.0000E+00
    -28.843  0.0000E+00  0.0000E+00  0.0000E+00  0.0000E+00  0.0000E+00  0.0000E+00  0.0000E+00  0.0000E+00  0.0000E+00  0.0000E+00  0.0000E+00  0.0000E+00  0.0000E+00  0.0000E+00  0.0000E+00  0.0000E+00  0.0000E+00  0.0000E+00
    -28.689  0.0000E+00  0.0000E+00  0.0000E+00  0.0000E+00  0.0000E+00  0.0000E+00  0.0000E+00  0.0000E+00  0.0000E+00  0.0000E+00  0.0000E+00  0.0000E+00  0.0000E+00  0.0000E+00  0.0000E+00  0.0000E+00  0.0000E+00  0.0000E+00
    -28.535  0.0000E+00  0.0000E+00  0.0000E+00  0.0000E+00  0.0000E+00  0.0000E+00  0.0000E+00  0.0000E+00  0.0000E+00  0.0000E+00  0.0000E+00  0.0000E+00  0.0000E+00  0.0000E+00  0.0000E+00  0.0000E+00  0.0000E+00  0.0000E+00
    -28.381  0.0000E+00  0.0000E+00  0.0000E+00  0.0000E+00  0.0000E+00  0.0000E+00  0.0000E+00  0.0000E+00  0.0000E+00  0.0000E+00  0.0000E+00  0.0000E+00  0.0000E+00  0.0000E+00  0.0000E+00  0.0000E+00  0.0000E+00  0.0000E+00
    -28.227  0.0000E+00  0.0000E+00  0.0000E+00  0.0000E+00  0.0000E+00  0.0000E+00  0.0000E+00  0.0000E+00  0.0000E+00  0.0000E+00  0.0000E+00  0.0000E+00  0.0000E+00  0.0000E+00  0.0000E+00  0.0000E+00  0.0000E+00  0.0000E+00
    -28.073  0.0000E+00  0.0000E+00  0.0000E+00  0.0000E+00  0.0000E+00  0.0000E+00  0.0000E+00  0.0000E+00  0.0000E+00  0.0000E+00  0.0000E+00  0.0000E+00  0.0000E+00  0.0000E+00  0.0000E+00  0.0000E+00  0.0000E+00  0.0000E+00
    -27.919  0.0000E+00  0.0000E+00  0.0000E+00  0.0000E+00  0.0000E+00  0.0000E+00  0.0000E+00  0.0000E+00  0.0000E+00  0.0000E+00  0.0000E+00  0.0000E+00  0.0000E+00  0.0000E+00  0.0000E+00  0.0000E+00  0.0000E+00  0.0000E+00