       N       E                     dE             d eps       ncg     rms          rms(c)
DAV:   1     0.173235030026E+03    0.17324E+03   -0.12745E+04 20816   0.745E+02
DAV:   2    -0.254651778885E+02   -0.19870E+03   -0.19397E+03 25452   0.290E+02
DAV:   3    -0.397849746156E+02   -0.14320E+02   -0.14190E+02 34008   0.585E+01
DAV:   4    -0.406385045899E+02   -0.85353E+00   -0.85105E+00 32728   0.120E+01
DAV:   5    -0.406565505133E+02   -0.18046E-01   -0.18038E-01 32908   0.170E+00    0.392E+01
DAV:   6    -0.382101321717E+02    0.24464E+01   -0.27102E+01 31936   0.176E+01    0.133E+01
DAV:   7    -0.376189833979E+02    0.59115E+00   -0.14916E+01 32312   0.116E+01    0.180E+01
DAV:   8    -0.371025579970E+02    0.51643E+00   -0.20387E+00 31160   0.586E+00    0.512E+00
DAV:   9    -0.370912284962E+02    0.11330E-01   -0.20318E-01 34548   0.211E+00    0.120E+00
DAV:  10    -0.370825919793E+02    0.86365E-02   -0.30004E-02 25392   0.724E-01    0.338E-01
DAV:  11    -0.370828575156E+02   -0.26554E-03   -0.39451E-03 30388   0.308E-01    0.176E-01
DAV:  12    -0.370828925050E+02   -0.34989E-04   -0.32277E-04 22120   0.905E-02
   1 F= -.37082893E+02 E0= -.37082868E+02  d E =-.370829E+02
       N       E                     dE             d eps       ncg     rms          rms(c)
DAV:   1    -0.370831271630E+02   -0.26965E-03   -0.14572E-01 24220   0.298E+00    0.288E-01
DAV:   2    -0.370842649259E+02   -0.11378E-02   -0.19206E-02 23012   0.748E-01    0.167E-01
DAV:   3    -0.370841184242E+02    0.14650E-03   -0.14036E-03 30872   0.149E-01    0.125E-01
DAV:   4    -0.370840597854E+02    0.58639E-04   -0.24166E-04 15324   0.840E-02
   2 F= -.37084060E+02 E0= -.37084041E+02  d E =-.116728E-02
       N       E                     dE             d eps       ncg     rms          rms(c)
DAV:   1    -0.370839728685E+02    0.14556E-03   -0.18437E-02 24296   0.107E+00    0.124E-01
DAV:   2    -0.370840862561E+02   -0.11339E-03   -0.25454E-03 23136   0.268E-01    0.698E-02
DAV:   3    -0.370840577219E+02    0.28534E-04   -0.27233E-04 17548   0.619E-02
   3 F= -.37084058E+02 E0= -.37084037E+02  d E =-.116522E-02
       N       E                     dE             d eps       ncg     rms          rms(c)
DAV:   1    -0.370856990574E+02   -0.16128E-02   -0.67310E-02 20728   0.164E+00    0.390E-01
DAV:   2    -0.370849320744E+02    0.76698E-03   -0.16473E-02 31072   0.651E-01    0.302E-01
DAV:   3    -0.370842464286E+02    0.68565E-03   -0.42188E-03 31272   0.209E-01    0.105E-01
DAV:   4    -0.370841125571E+02    0.13387E-03   -0.44907E-04 26816   0.111E-01    0.131E-01
DAV:   5    -0.370841228215E+02   -0.10264E-04   -0.42379E-05 12540   0.315E-02
   4 F= -.37084123E+02 E0= -.37084108E+02  d E =-.650997E-04
       N       E                     dE             d eps       ncg     rms          rms(c)
DAV:   1    -0.370841122001E+02    0.35704E-06   -0.90515E-05 11676   0.597E-02    0.216E-02
DAV:   2    -0.370841084720E+02    0.37280E-05   -0.34318E-05 11380   0.442E-02
   5 F= -.37084108E+02 E0= -.37084096E+02  d E =-.507501E-04
