 running on   32 total cores
 distrk:  each k-point on   32 cores,    1 groups
 distr:  one band on    8 cores,    4 groups
 using from now: INCAR     
 vasp.5.4.4.18Apr17-6-g9f103f2a35 (build Nov 01 2019 12:17:22) complex          
  
 POSCAR found type information on POSCAR  H  Nb H  Sr H  Sr
 POSCAR found :  6 types and      10 ions
 LDA part: xc-table for Pade appr. of Perdew
 generate k-points for:   13    8    7
 POSCAR, INCAR and KPOINTS ok, starting setup
 FFT: planning ...
 WAVECAR not read
 entering main loop
       N       E                     dE             d eps       ncg     rms          rms(c)
DAV:   1     0.170168840602E+03    0.17017E+03   -0.12651E+04 20608   0.745E+02
DAV:   2    -0.285694683401E+02   -0.19874E+03   -0.19409E+03 25352   0.290E+02
DAV:   3    -0.422799819884E+02   -0.13711E+02   -0.13622E+02 34504   0.578E+01
DAV:   4    -0.430303174384E+02   -0.75034E+00   -0.74844E+00 32604   0.110E+01
DAV:   5    -0.430451731958E+02   -0.14856E-01   -0.14852E-01 33244   0.157E+00    0.374E+01
DAV:   6    -0.404986248840E+02    0.25465E+01   -0.79478E+00 30700   0.152E+01    0.164E+01
DAV:   7    -0.400012401831E+02    0.49738E+00   -0.27014E+00 30072   0.665E+00    0.107E+01
DAV:   8    -0.399229931345E+02    0.78247E-01   -0.93352E-01 31752   0.494E+00    0.351E+00
DAV:   9    -0.399199674997E+02    0.30256E-02   -0.67754E-02 29208   0.154E+00    0.487E-01
DAV:  10    -0.399172612290E+02    0.27063E-02   -0.14556E-02 29528   0.475E-01    0.181E-01
DAV:  11    -0.399174396355E+02   -0.17841E-03   -0.13847E-03 24996   0.220E-01    0.724E-02
DAV:  12    -0.399174954314E+02   -0.55796E-04   -0.24358E-04 20468   0.936E-02
   1 F= -.39917495E+02 E0= -.39917577E+02  d E =-.399175E+02
 curvature:   0.00 expect dE= 0.000E+00 dE for cont linesearch  0.000E+00
 trial: gam= 0.00000 g(F)=  0.385E-03 g(S)=  0.615E-03 ort = 0.000E+00 (trialstep = 0.100E+01)
 search vector abs. value=  0.100E-02
 bond charge predicted
       N       E                     dE             d eps       ncg     rms          rms(c)
DAV:   1    -0.399193189459E+02   -0.18793E-02   -0.59611E-02 22592   0.184E+00    0.421E-01
DAV:   2    -0.399184774741E+02    0.84147E-03   -0.11447E-02 28360   0.664E-01    0.164E-01
DAV:   3    -0.399180940529E+02    0.38342E-03   -0.14390E-03 29352   0.202E-01    0.104E-01
DAV:   4    -0.399179702219E+02    0.12383E-03   -0.57795E-04 30368   0.133E-01    0.119E-01
DAV:   5    -0.399179853384E+02   -0.15116E-04   -0.33153E-05 14248   0.340E-02
   2 F= -.39917985E+02 E0= -.39918065E+02  d E =-.489907E-03
 trial-energy change:   -0.000490  1 .order   -0.000665   -0.001000   -0.000331
 step:   1.4944(harm=  1.4944)  dis= 0.00313  next Energy=   -39.918242 (dE=-0.747E-03)
 bond charge predicted
       N       E                     dE             d eps       ncg     rms          rms(c)
DAV:   1    -0.399183021005E+02   -0.33188E-03   -0.13985E-02 21476   0.896E-01    0.207E-01
DAV:   2    -0.399180638645E+02    0.23824E-03   -0.27203E-03 27596   0.331E-01    0.745E-02
DAV:   3    -0.399179698552E+02    0.94009E-04   -0.31514E-04 18244   0.984E-02
   3 F= -.39917970E+02 E0= -.39918048E+02  d E =-.474424E-03
 curvature:  -0.75 expect dE=-0.291E-03 dE for cont linesearch -0.317E-04
 trial: gam= 0.18405 g(F)=  0.249E-03 g(S)=  0.141E-03 ort = 0.206E-03 (trialstep = 0.110E+01)
 search vector abs. value=  0.500E-03
 reached required accuracy - stopping structural energy minimisation
