unknown system                          
           1
     3.631238   -0.091010   -0.622111
     0.016087    5.768153   -0.437851
    -0.586358    0.810128    6.532847
   Sr   Nb   H 
   2   1   9
Direct configuration=     1
   0.19246900  0.67253600  0.61157500
   0.46590200  0.29794200  0.17751900
   0.90360600  0.81710900  0.05519500
   0.64456600  0.43154800  0.52396200
   0.02545400  0.97870200  0.31344400
   0.87824800  0.13280500  0.99335600
   0.76951800  0.89041100  0.76811200
   0.35220200  0.24922500  0.72732400
   0.14804000  0.24405600  0.73703300
   0.83313500  0.53676400  0.91344500
   0.00482100  0.56693000  0.25463300
   0.37833300  0.85801700  0.99922700
unknown system                          
           1
     3.657910   -0.091501   -0.629601
     0.016706    5.821082   -0.443392
    -0.593682    0.815862    6.593685
   Sr   Nb   H 
   2   1   9
Direct configuration=     2
   0.19201673  0.67223852  0.61134810
   0.46602622  0.29814296  0.17755981
   0.90353456  0.81726410  0.05481866
   0.64457572  0.43157909  0.52387805
   0.02543699  0.97853418  0.31337709
   0.87837845  0.13235138  0.99361746
   0.76962619  0.89015487  0.76843163
   0.35040616  0.24907782  0.72748997
   0.14988404  0.24409753  0.73681655
   0.83317330  0.53699431  0.91356349
   0.00484247  0.56718863  0.25443384
   0.37839318  0.85842160  0.99949035
unknown system                          
           1
     3.684876   -0.091997   -0.637173
     0.017331    5.874594   -0.448994
    -0.601087    0.821659    6.655193
   Sr   Nb   H 
   2   1   9
Direct configuration=     3
   0.19156269  0.67194048  0.61112053
   0.46615091  0.29834427  0.17760079
   0.90346264  0.81741936  0.05444167
   0.64458543  0.43161022  0.52379397
   0.02541990  0.97836605  0.31331001
   0.87850956  0.13189703  0.99387933
   0.76973497  0.88989838  0.76875181
   0.34860378  0.24893059  0.72765540
   0.15173479  0.24413889  0.73660056
   0.83321178  0.53722507  0.91368225
   0.00486389  0.56744766  0.25423440
   0.37845367  0.85882700  0.99975427
unknown system                          
           1
     3.704807   -0.091489   -0.645870
     0.017636    5.897772   -0.461935
    -0.613466    0.813197    6.693811
   Sr   Nb   H 
   2   1   9
Direct configuration=     4
   0.19093622  0.67127301  0.61095939
   0.46635086  0.29873384  0.17749860
   0.90339918  0.81764097  0.05356841
   0.64424323  0.43227225  0.52324954
   0.02481197  0.97703033  0.31176732
   0.87897259  0.12969294  0.99498632
   0.77039449  0.88864472  0.77039915
   0.35289190  0.24894189  0.72765427
   0.14751880  0.24409994  0.73659952
   0.83364625  0.53936209  0.91468803
   0.00432016  0.56923139  0.25275429
   0.37880837  0.85912163  0.00070017
unknown system                          
           1
     3.694305   -0.091757   -0.641287
     0.017475    5.885559   -0.455116
    -0.606943    0.817656    6.673461
   Sr   Nb   H 
   2   1   9
Direct configuration=     5
   0.19126489  0.67162336  0.61104469
   0.46624614  0.29852956  0.17755173
   0.90343354  0.81752569  0.05402592
   0.64442322  0.43192543  0.52353444
   0.02513276  0.97773296  0.31257727
   0.87872870  0.13084831  0.99440789
   0.77004681  0.88930075  0.76953660
   0.35064418  0.24893658  0.72765310
   0.14972872  0.24411977  0.73660182
   0.83341698  0.53823958  0.91415884
   0.00460687  0.56829703  0.25352868
   0.37862120  0.85896597  0.00020401
unknown system                          
           1
     3.690636   -0.090606   -0.645081
     0.017370    5.876875   -0.467637
    -0.612607    0.802595    6.677536
   Sr   Nb   H 
   2   1   9
Direct configuration=     6
   0.19061894  0.67089046  0.61094843
   0.46643354  0.29896070  0.17728972
   0.90357793  0.81764905  0.05343316
   0.64392428  0.43278796  0.52286381
   0.02437226  0.97604746  0.31057980
   0.87926102  0.12839045  0.99572647
   0.77076436  0.88774588  0.77137451
   0.35029437  0.24888159  0.72788922
   0.15015210  0.24424450  0.73638884
   0.83391123  0.54077594  0.91531056
   0.00385304  0.57055651  0.25162089
   0.37913094  0.85911448  0.00139958
unknown system                          
           1
     3.689115   -0.090128   -0.646654
     0.017327    5.873275   -0.472828
    -0.614954    0.796351    6.679225
   Sr   Nb   H 
   2   1   9
Direct configuration=     7
   0.19035068  0.67058622  0.61090775
   0.46651122  0.29913935  0.17718154
   0.90363751  0.81769960  0.05318763
   0.64371693  0.43314529  0.52258644
   0.02405516  0.97534577  0.30975035
   0.87948239  0.12737163  0.99627107
   0.77106305  0.88710242  0.77213515
   0.35014933  0.24885906  0.72798694
   0.15032770  0.24429600  0.73630078
   0.83411744  0.54182992  0.91579013
   0.00353934  0.57149236  0.25083187
   0.37934325  0.85917737  0.00189535
unknown system                          
           1
     3.680523   -0.088703   -0.649296
     0.017707    5.876722   -0.485780
    -0.616109    0.783069    6.691849
   Sr   Nb   H 
   2   1   9
Direct configuration=     8
   0.19001429  0.67071504  0.61082485
   0.46645006  0.29924869  0.17667148
   0.90423745  0.81716093  0.05498621
   0.64320350  0.43380560  0.52187117
   0.02393086  0.97451650  0.30890406
   0.87976995  0.12728150  0.99696777
   0.77087004  0.88606331  0.77212751
   0.35007668  0.24876503  0.72816169
   0.15045716  0.24437477  0.73606616
   0.83403785  0.54214869  0.91569871
   0.00324647  0.57258856  0.24978513
   0.37999970  0.85937640  0.00276028
unknown system                          
           1
     3.680641   -0.088723   -0.649260
     0.017702    5.876674   -0.485603
    -0.616093    0.783250    6.691677
   Sr   Nb   H 
   2   1   9
Direct configuration=     9
   0.19001889  0.67071328  0.61082598
   0.46645090  0.29924722  0.17667843
   0.90422923  0.81716822  0.05496168
   0.64321054  0.43379660  0.52188091
   0.02393256  0.97452785  0.30891563
   0.87976601  0.12728270  0.99695826
   0.77087268  0.88607750  0.77212764
   0.35007768  0.24876630  0.72815931
   0.15045538  0.24437370  0.73606936
   0.83403894  0.54214434  0.91569995
   0.00325048  0.57257362  0.24979939
   0.37999070  0.85937365  0.00274847
