  19  19   0   0
  0.7348235E+01  0.4781128E-09  0.5466987E-09  0.5376164E-09  0.5000000E-15
  1.000000000000000E-004
  CAR 
 unknown system                          
     10.66070585    -36.51634880  301     -0.02784559      1.00000000
    -36.516  0.0000E+00  0.0000E+00
    -36.359  0.0000E+00  0.0000E+00
    -36.202  0.0000E+00  0.0000E+00
    -36.045  0.0000E+00  0.0000E+00
    -35.887  0.0000E+00  0.0000E+00
    -35.730  0.0000E+00  0.0000E+00
    -35.573  0.0000E+00  0.0000E+00
    -35.416  0.0000E+00  0.0000E+00
    -35.258  0.1304E-32  0.2051E-33
    -35.101  0.7863E-22  0.1237E-22
    -34.944  0.2866E-13  0.4506E-14
    -34.787  0.5503E-07  0.8654E-08
    -34.629  0.3387E-03  0.5328E-04
    -34.472 -0.1111E-01 -0.1693E-02
    -34.315  0.2166E+00  0.3237E-01
    -34.157  0.5127E-02  0.3318E-01
    -34.000  0.9743E-03  0.3333E-01
    -33.843  0.1229E-05  0.3333E-01
    -33.686  0.2991E-11  0.3333E-01
    -33.528  0.0000E+00  0.3333E-01
    -33.371  0.0000E+00  0.3333E-01
    -33.214  0.0000E+00  0.3333E-01
    -33.057  0.0000E+00  0.3333E-01
    -32.899  0.0000E+00  0.3333E-01
    -32.742  0.0000E+00  0.3333E-01
    -32.585  0.0000E+00  0.3333E-01
    -32.428  0.0000E+00  0.3333E-01
    -32.270  0.0000E+00  0.3333E-01
    -32.113  0.0000E+00  0.3333E-01
    -31.956  0.0000E+00  0.3333E-01
    -31.799  0.0000E+00  0.3333E-01
    -31.641  0.0000E+00  0.3333E-01
    -31.484  0.0000E+00  0.3333E-01
    -31.327  0.0000E+00  0.3333E-01
    -31.170  0.0000E+00  0.3333E-01
    -31.012  0.0000E+00  0.3333E-01
    -30.855  0.0000E+00  0.3333E-01
    -30.698  0.0000E+00  0.3333E-01
    -30.541  0.0000E+00  0.3333E-01
    -30.383  0.1332E-28  0.3333E-01
    -30.226  0.1404E-18  0.3333E-01
    -30.069  0.8882E-11  0.3333E-01
    -29.912  0.2853E-05  0.3333E-01
    -29.754  0.1852E-02  0.3363E-01
    -29.597  0.1238E-01  0.3557E-01
    -29.440  0.4934E+00  0.1132E+00
    -29.283  0.1320E+00  0.1339E+00
    -29.125 -0.3776E-02  0.1333E+00
    -28.968  0.7944E-04  0.1333E+00
    -28.811  0.3010E-08  0.1333E+00
    -28.654  0.4498E-15  0.1333E+00
    -28.496  0.0000E+00  0.1333E+00
    -28.339  0.0000E+00  0.1333E+00
    -28.182  0.0000E+00  0.1333E+00
    -28.024  0.0000E+00  0.1333E+00
    -27.867  0.0000E+00  0.1333E+00
    -27.710  0.0000E+00  0.1333E+00
    -27.553  0.0000E+00  0.1333E+00
    -27.395  0.0000E+00  0.1333E+00
    -27.238  0.0000E+00  0.1333E+00
    -27.081  0.0000E+00  0.1333E+00
    -26.924  0.0000E+00  0.1333E+00
    -26.766  0.0000E+00  0.1333E+00
    -26.609  0.0000E+00  0.1333E+00
    -26.452  0.0000E+00  0.1333E+00
    -26.295  0.0000E+00  0.1333E+00
    -26.137  0.0000E+00  0.1333E+00
    -25.980  0.0000E+00  0.1333E+00
    -25.823  0.0000E+00  0.1333E+00
    -25.666  0.0000E+00  0.1333E+00
    -25.508  0.0000E+00  0.1333E+00
    -25.351  0.0000E+00  0.1333E+00
    -25.194  0.0000E+00  0.1333E+00
    -25.037  0.0000E+00  0.1333E+00
    -24.879  0.0000E+00  0.1333E+00
    -24.722  0.0000E+00  0.1333E+00
    -24.565  0.0000E+00  0.1333E+00
    -24.408  0.0000E+00  0.1333E+00
    -24.250  0.0000E+00  0.1333E+00
    -24.093  0.0000E+00  0.1333E+00
    -23.936  0.0000E+00  0.1333E+00
    -23.779  0.0000E+00  0.1333E+00
    -23.621  0.0000E+00  0.1333E+00
    -23.464  0.0000E+00  0.1333E+00
    -23.307  0.0000E+00  0.1333E+00
    -23.150  0.0000E+00  0.1333E+00
    -22.992  0.0000E+00  0.1333E+00
    -22.835  0.0000E+00  0.1333E+00
    -22.678  0.0000E+00  0.1333E+00
    -22.520  0.0000E+00  0.1333E+00
    -22.363  0.0000E+00  0.1333E+00
    -22.206  0.0000E+00  0.1333E+00
    -22.049  0.0000E+00  0.1333E+00
    -21.891  0.0000E+00  0.1333E+00
    -21.734  0.0000E+00  0.1333E+00
    -21.577  0.0000E+00  0.1333E+00
    -21.420  0.0000E+00  0.1333E+00
    -21.262  0.0000E+00  0.1333E+00
    -21.105  0.0000E+00  0.1333E+00
    -20.948  0.0000E+00  0.1333E+00
    -20.791  0.0000E+00  0.1333E+00
    -20.633  0.0000E+00  0.1333E+00
    -20.476  0.0000E+00  0.1333E+00
    -20.319  0.0000E+00  0.1333E+00
    -20.162  0.0000E+00  0.1333E+00
    -20.004  0.0000E+00  0.1333E+00
    -19.847  0.0000E+00  0.1333E+00
    -19.690  0.0000E+00  0.1333E+00
    -19.533  0.0000E+00  0.1333E+00
    -19.375  0.0000E+00  0.1333E+00
    -19.218  0.0000E+00  0.1333E+00
    -19.061  0.0000E+00  0.1333E+00
    -18.904  0.0000E+00  0.1333E+00
    -18.746  0.0000E+00  0.1333E+00
    -18.589  0.0000E+00  0.1333E+00
    -18.432  0.0000E+00  0.1333E+00
    -18.275  0.0000E+00  0.1333E+00
    -18.117  0.0000E+00  0.1333E+00
    -17.960  0.0000E+00  0.1333E+00
    -17.803  0.0000E+00  0.1333E+00
    -17.646  0.0000E+00  0.1333E+00
    -17.488  0.3213E-31  0.1333E+00
    -17.331  0.8667E-21  0.1333E+00
    -17.174  0.1467E-12  0.1333E+00
    -17.016  0.1378E-06  0.1333E+00
    -16.859  0.4267E-03  0.1334E+00
    -16.702 -0.9575E-02  0.1319E+00
    -16.545  0.2149E+00  0.1657E+00
    -16.387  0.1615E+00  0.1911E+00
    -16.230  0.2764E+00  0.2345E+00
    -16.073 -0.7813E-02  0.2333E+00
    -15.916  0.1547E-03  0.2333E+00
    -15.758  0.7797E-08  0.2333E+00
    -15.601  0.1663E-14  0.2333E+00
    -15.444  0.0000E+00  0.2333E+00
    -15.287  0.0000E+00  0.2333E+00
    -15.129  0.0000E+00  0.2333E+00
    -14.972  0.0000E+00  0.2333E+00
    -14.815  0.0000E+00  0.2333E+00
    -14.658  0.0000E+00  0.2333E+00
    -14.500  0.0000E+00  0.2333E+00
    -14.343  0.0000E+00  0.2333E+00
    -14.186  0.0000E+00  0.2333E+00
    -14.029  0.0000E+00  0.2333E+00
    -13.871  0.0000E+00  0.2333E+00
    -13.714  0.0000E+00  0.2333E+00
    -13.557  0.0000E+00  0.2333E+00
    -13.400  0.0000E+00  0.2333E+00
    -13.242  0.0000E+00  0.2333E+00
    -13.085  0.0000E+00  0.2333E+00
    -12.928  0.0000E+00  0.2333E+00
    -12.771  0.0000E+00  0.2333E+00
    -12.613  0.0000E+00  0.2333E+00
    -12.456  0.0000E+00  0.2333E+00
    -12.299  0.0000E+00  0.2333E+00
    -12.142  0.0000E+00  0.2333E+00
    -11.984  0.0000E+00  0.2333E+00
    -11.827  0.0000E+00  0.2333E+00
    -11.670  0.0000E+00  0.2333E+00
    -11.513  0.0000E+00  0.2333E+00
    -11.355  0.0000E+00  0.2333E+00
    -11.198  0.0000E+00  0.2333E+00
    -11.041  0.0000E+00  0.2333E+00
    -10.883  0.0000E+00  0.2333E+00
    -10.726  0.0000E+00  0.2333E+00
    -10.569  0.0000E+00  0.2333E+00
    -10.412  0.5608E-33  0.2333E+00
    -10.254  0.1284E-22  0.2333E+00
    -10.097  0.1747E-14  0.2333E+00
     -9.940  0.1209E-08  0.2333E+00
     -9.783  0.2634E-05  0.2333E+00
     -9.625 -0.2407E-04  0.2333E+00
     -9.468  0.2242E-02  0.2337E+00
     -9.311  0.1079E-01  0.2354E+00
     -9.154  0.1602E-01  0.2379E+00
     -8.996  0.2292E-01  0.2415E+00
     -8.839  0.2691E-01  0.2457E+00
     -8.682  0.3331E-01  0.2510E+00
     -8.525  0.3440E-01  0.2564E+00
     -8.367  0.2554E-01  0.2604E+00
     -8.210  0.3708E-01  0.2662E+00
     -8.053  0.4163E-01  0.2728E+00
     -7.896  0.2740E-01  0.2771E+00
     -7.738  0.5993E-01  0.2865E+00
     -7.581  0.2899E-01  0.2911E+00
     -7.424  0.2875E-01  0.2956E+00
     -7.267  0.4164E-01  0.3021E+00
     -7.109  0.2985E-01  0.3068E+00
     -6.952  0.3555E-01  0.3124E+00
     -6.795  0.6347E-01  0.3224E+00
     -6.638  0.9221E-01  0.3369E+00
     -6.480  0.5245E-01  0.3451E+00
     -6.323  0.7327E-01  0.3567E+00
     -6.166  0.5698E-01  0.3656E+00
     -6.009  0.1802E-01  0.3685E+00
     -5.851  0.6181E-01  0.3782E+00
     -5.694  0.6180E-01  0.3879E+00
     -5.537  0.5802E-01  0.3970E+00
     -5.379  0.1934E-01  0.4001E+00
     -5.222 -0.4657E-03  0.4000E+00
     -5.065  0.1570E-04  0.4000E+00
     -4.908  0.2240E-08  0.4000E+00
     -4.750  0.1476E-14  0.4000E+00
     -4.593  0.5783E-16  0.4000E+00
     -4.436  0.1542E-09  0.4000E+00
     -4.279  0.1857E-05  0.4000E+00
     -4.121  0.7067E-04  0.4000E+00
     -3.964  0.2158E-02  0.4004E+00
     -3.807  0.6566E-01  0.4107E+00
     -3.650  0.8590E-01  0.4242E+00
     -3.492  0.5633E-01  0.4330E+00
     -3.335  0.5516E-02  0.4339E+00
     -3.178  0.3967E-01  0.4401E+00
     -3.021  0.7741E-01  0.4523E+00
     -2.863  0.6518E-01  0.4626E+00
     -2.706  0.4331E-01  0.4694E+00
     -2.549  0.1011E+00  0.4853E+00
     -2.392  0.8271E-01  0.4983E+00
     -2.234  0.3624E-01  0.5040E+00
     -2.077  0.1114E+00  0.5215E+00
     -1.920  0.6688E-01  0.5320E+00
     -1.763  0.1056E+00  0.5486E+00
     -1.605  0.1054E+00  0.5652E+00
     -1.448  0.3800E-01  0.5712E+00
     -1.291  0.1030E+00  0.5874E+00
     -1.134  0.7963E-01  0.5999E+00
     -0.976  0.1084E-01  0.6016E+00
     -0.819  0.7301E-01  0.6131E+00
     -0.662  0.1056E+00  0.6297E+00
     -0.505  0.2341E-01  0.6334E+00
     -0.347 -0.3226E-03  0.6333E+00
     -0.190  0.1958E-04  0.6333E+00
     -0.033  0.7869E-08  0.6333E+00
      0.124  0.1846E-13  0.6333E+00
      0.282  0.0000E+00  0.6333E+00
      0.439  0.0000E+00  0.6333E+00
      0.596  0.0000E+00  0.6333E+00
      0.754  0.0000E+00  0.6333E+00
      0.911  0.0000E+00  0.6333E+00
      1.068  0.0000E+00  0.6333E+00
      1.225  0.0000E+00  0.6333E+00
      1.383  0.0000E+00  0.6333E+00
      1.540  0.0000E+00  0.6333E+00
      1.697  0.0000E+00  0.6333E+00
      1.854  0.7939E-40  0.6333E+00
      2.012  0.3254E-28  0.6333E+00
      2.169  0.8392E-19  0.6333E+00
      2.326  0.1309E-11  0.6333E+00
      2.483  0.1136E-06  0.6333E+00
      2.641  0.2586E-04  0.6333E+00
      2.798  0.3374E-03  0.6334E+00
      2.955  0.1400E-01  0.6356E+00
      3.112  0.4211E-01  0.6422E+00
      3.270  0.6807E-01  0.6529E+00
      3.427  0.9509E-01  0.6679E+00
      3.584  0.5388E-01  0.6763E+00
      3.741  0.6726E-01  0.6869E+00
      3.899  0.7118E-01  0.6981E+00
      4.056  0.1028E+00  0.7143E+00
      4.213  0.1040E+00  0.7306E+00
      4.370  0.7036E-01  0.7417E+00
      4.528  0.1093E+00  0.7589E+00
      4.685  0.1122E+00  0.7765E+00
      4.842  0.1191E+00  0.7953E+00
      4.999  0.8504E-01  0.8086E+00
      5.157  0.9168E-01  0.8230E+00
      5.314  0.5347E-01  0.8315E+00
      5.471  0.6571E-01  0.8418E+00
      5.628  0.7304E-01  0.8533E+00
      5.786  0.8913E-01  0.8673E+00
      5.943  0.8431E-01  0.8805E+00
      6.100  0.9641E-01  0.8957E+00
      6.258  0.7286E-01  0.9072E+00
      6.415  0.9376E-01  0.9219E+00
      6.572  0.7578E-01  0.9338E+00
      6.729  0.7438E-01  0.9455E+00
      6.887  0.9330E-01  0.9602E+00
      7.044  0.6591E-01  0.9706E+00
      7.201  0.9854E-01  0.9861E+00
      7.358  0.6968E-01  0.9970E+00
      7.516  0.7949E-01  0.1010E+01
      7.673  0.8833E-01  0.1023E+01
      7.830  0.7665E-01  0.1035E+01
      7.987  0.7224E-01  0.1047E+01
      8.145  0.8238E-01  0.1060E+01
      8.302  0.3271E-01  0.1065E+01
      8.459  0.1024E-01  0.1067E+01
      8.616  0.9385E-03  0.1067E+01
      8.774 -0.4022E-04  0.1067E+01
      8.931  0.1789E-05  0.1067E+01
      9.088  0.2994E-09  0.1067E+01
      9.245  0.1605E-15  0.1067E+01
      9.403  0.0000E+00  0.1067E+01
      9.560  0.0000E+00  0.1067E+01
      9.717  0.0000E+00  0.1067E+01
      9.874  0.0000E+00  0.1067E+01
     10.032  0.0000E+00  0.1067E+01
     10.189  0.0000E+00  0.1067E+01
     10.346  0.0000E+00  0.1067E+01
     10.503  0.0000E+00  0.1067E+01
     10.661  0.0000E+00  0.1067E+01
