unknown system                          
           1
     4.781089    0.019290   -0.000600
     0.210772    5.461596   -0.120369
     0.537066    0.296904    5.341025
   H    Nb   H    Sr
   6   1  11   1
Direct configuration=     1
   0.24358971  0.07480155  0.11381496
   0.12648220  0.17538147  0.11440834
   0.48296469  0.45058568  0.10950114
   0.36608056  0.50247722  0.01970254
   0.84875057  0.39856510  0.08956454
   0.70132427  0.13893203  0.31547584
   0.73956968  0.57217457  0.82266056
   0.86923995  0.69773843  0.13306721
   0.85270057  0.82443288  0.04933247
   0.11015846  0.53540743  0.81811693
   0.30744564  0.81202618  0.30124229
   0.36709081  0.73441510  0.40658225
   0.72259393  0.02211576  0.39338049
   0.50695544  0.51029289  0.58251507
   0.90357064  0.82371223  0.63984188
   0.72605742  0.23972213  0.79175186
   0.48756568  0.83866670  0.85357987
   0.91561801  0.48169053  0.52912933
   0.24586278  0.13842814  0.63555443
unknown system                          
           1
     4.786293    0.017937   -0.003944
     0.209558    5.456943   -0.125409
     0.533852    0.291729    5.341181
   H    Nb   H    Sr
   6   1  11   1
Direct configuration=     2
   0.24368085  0.07461879  0.11405090
   0.12619170  0.17546944  0.11465899
   0.48326614  0.45046097  0.10950420
   0.36607728  0.50259646  0.01963672
   0.84886280  0.39875021  0.08961581
   0.70122517  0.13985448  0.31475319
   0.73830376  0.57211391  0.82271768
   0.86918806  0.69858282  0.13276071
   0.85284875  0.82366694  0.04976872
   0.11055333  0.53555467  0.81804174
   0.30762604  0.81181783  0.30151700
   0.36696312  0.73450577  0.40654454
   0.72270470  0.02123180  0.39385314
   0.50704262  0.51023045  0.58248085
   0.90372582  0.82415926  0.63949280
   0.72614576  0.23950314  0.79167010
   0.48802027  0.83832540  0.85357166
   0.91579261  0.48149447  0.52888731
   0.24540223  0.13862920  0.63569596
unknown system                          
           1
     4.783902    0.018558   -0.002408
     0.210115    5.459081   -0.123094
     0.535328    0.294107    5.341109
   H    Nb   H    Sr
   6   1  11   1
Direct configuration=     3
   0.24363897  0.07470271  0.11394256
   0.12632493  0.17542892  0.11454388
   0.48312781  0.45051828  0.10950276
   0.36607879  0.50254166  0.01966691
   0.84881128  0.39866507  0.08959214
   0.70127081  0.13943067  0.31508481
   0.73888465  0.57214190  0.82269183
   0.86921192  0.69819472  0.13290116
   0.85278067  0.82401891  0.04956860
   0.11037215  0.53548696  0.81807610
   0.30754319  0.81191349  0.30139083
   0.36702172  0.73446411  0.40656186
   0.72265378  0.02163801  0.39363635
   0.50700263  0.51025916  0.58249657
   0.90365469  0.82395386  0.63965293
   0.72610526  0.23960386  0.79170773
   0.48781169  0.83848228  0.85357545
   0.91571257  0.48158470  0.52899853
   0.24561352  0.13853674  0.63563098
unknown system                          
           1
     4.788025    0.017559   -0.005626
     0.209258    5.453448   -0.127518
     0.532153    0.289498    5.340494
   H    Nb   H    Sr
   6   1  11   1
Direct configuration=     4
   0.24347058  0.07473155  0.11421368
   0.12624848  0.17530476  0.11483260
   0.48335779  0.45042081  0.10942012
   0.36616330  0.50260782  0.01968846
   0.84882632  0.39886978  0.08957742
   0.70136934  0.13921196  0.31511573
   0.73908217  0.57203022  0.82244569
   0.86921105  0.69854598  0.13299390
   0.85287088  0.82387290  0.04969393
   0.11025229  0.53573815  0.81804880
   0.30761145  0.81184725  0.30144929
   0.36701082  0.73437682  0.40676107
   0.72254286  0.02190585  0.39334861
   0.50692550  0.51010958  0.58235486
   0.90361551  0.82427376  0.63940256
   0.72609637  0.23929998  0.79160664
   0.48809942  0.83828264  0.85359217
   0.91572834  0.48140000  0.52887794
   0.24513853  0.13873620  0.63579853
unknown system                          
           1
     4.794536    0.015981   -0.010707
     0.207905    5.444555   -0.134505
     0.527139    0.282222    5.339522
   H    Nb   H    Sr
   6   1  11   1
Direct configuration=     5
   0.24320520  0.07477745  0.11464172
   0.12612816  0.17510889  0.11528832
   0.48372050  0.45026671  0.10928970
   0.36629664  0.50271245  0.01972267
   0.84885004  0.39919332  0.08955446
   0.70152479  0.13886632  0.31516436
   0.73939351  0.57185343  0.82205702
   0.86920979  0.69910129  0.13314083
   0.85301330  0.82364231  0.04989176
   0.11006322  0.53613511  0.81800590
   0.30771918  0.81174264  0.30154160
   0.36699382  0.73423911  0.40707553
   0.72236761  0.02232877  0.39289445
   0.50680370  0.50987296  0.58213079
   0.90355348  0.82477904  0.63900755
   0.72608222  0.23881955  0.79144657
   0.48855334  0.83796719  0.85361858
   0.91575310  0.48110790  0.52868727
   0.24438940  0.13905156  0.63606293
unknown system                          
           1
     4.796221    0.015452   -0.011987
     0.207416    5.442697   -0.136377
     0.525874    0.280285    5.339328
   H    Nb   H    Sr
   6   1  11   1
Direct configuration=     6
   0.24316656  0.07475789  0.11476212
   0.12605545  0.17508718  0.11542059
   0.48381252  0.45023765  0.10921036
   0.36639178  0.50273429  0.01973783
   0.84886114  0.39927468  0.08953380
   0.70152966  0.13893135  0.31507309
   0.73948186  0.57186234  0.82201481
   0.86922228  0.69914253  0.13324852
   0.85304636  0.82371955  0.04988366
   0.11000976  0.53625027  0.81799915
   0.30776306  0.81169115  0.30159594
   0.36697358  0.73421922  0.40713470
   0.72233767  0.02228926  0.39287385
   0.50676301  0.50980030  0.58204899
   0.90349807  0.82487351  0.63892778
   0.72608024  0.23866893  0.79138896
   0.48866245  0.83790419  0.85361446
   0.91575316  0.48101363  0.52861909
   0.24421238  0.13910808  0.63613429
unknown system                          
           1
     4.801275    0.013865   -0.015826
     0.205946    5.437123   -0.141994
     0.522078    0.274476    5.338748
   H    Nb   H    Sr
   6   1  11   1
Direct configuration=     7
   0.24305077  0.07469928  0.11512331
   0.12583750  0.17502213  0.11581732
   0.48408842  0.45015037  0.10897236
   0.36667711  0.50279989  0.01978340
   0.84889444  0.39951883  0.08947192
   0.70154423  0.13912639  0.31479936
   0.73974677  0.57188904  0.82188822
   0.86925982  0.69926643  0.13357165
   0.85314550  0.82395134  0.04985948
   0.10984946  0.53659584  0.81797897
   0.30789469  0.81153670  0.30175894
   0.36691293  0.73415957  0.40731219
   0.72224786  0.02217066  0.39281199
   0.50664094  0.50958217  0.58180348
   0.90333183  0.82515692  0.63868852
   0.72607422  0.23821687  0.79121599
   0.48898965  0.83771516  0.85360211
   0.91575327  0.48073065  0.52841444
   0.24368158  0.13927773  0.63634834
unknown system                          
           1
     4.801006    0.013755   -0.015542
     0.205801    5.437961   -0.141679
     0.522358    0.274803    5.338720
   H    Nb   H    Sr
   6   1  11   1
Direct configuration=     8
   0.24306327  0.07468278  0.11513090
   0.12581112  0.17504185  0.11583226
   0.48409729  0.45016758  0.10889987
   0.36678065  0.50279911  0.01976778
   0.84890165  0.39951551  0.08945186
   0.70150594  0.13922941  0.31473761
   0.73976928  0.57193799  0.82193956
   0.86926525  0.69915437  0.13361818
   0.85315220  0.82410553  0.04981494
   0.10983169  0.53663407  0.81799986
   0.30790328  0.81151691  0.30177556
   0.36690327  0.73416386  0.40729540
   0.72224549  0.02207800  0.39287607
   0.50663680  0.50956010  0.58179233
   0.90326647  0.82506810  0.63874437
   0.72606908  0.23820476  0.79119746
   0.48896533  0.83776442  0.85359347
   0.91571792  0.48072161  0.52840411
   0.24373501  0.13922004  0.63635041
unknown system                          
           1
     4.800373    0.013498   -0.014872
     0.205459    5.439935   -0.140936
     0.523017    0.275572    5.338654
   H    Nb   H    Sr
   6   1  11   1
Direct configuration=     9
   0.24309268  0.07464394  0.11514874
   0.12574904  0.17508825  0.11586740
   0.48411818  0.45020808  0.10872929
   0.36702430  0.50279729  0.01973102
   0.84891864  0.39950771  0.08940465
   0.70141585  0.13947180  0.31459230
   0.73982226  0.57205314  0.82206035
   0.86927802  0.69889071  0.13372767
   0.85316799  0.82446829  0.04971009
   0.10978986  0.53672401  0.81804903
   0.30792349  0.81147035  0.30181467
   0.36688054  0.73417394  0.40725589
   0.72223990  0.02185999  0.39302688
   0.50662705  0.50950816  0.58176609
   0.90311266  0.82485911  0.63887581
   0.72605700  0.23817627  0.79115388
   0.48890809  0.83788031  0.85357313
   0.91563472  0.48070032  0.52837982
   0.24386074  0.13908432  0.63635530
