 running on   32 total cores
 distrk:  each k-point on   32 cores,    1 groups
 distr:  one band on    8 cores,    4 groups
 using from now: INCAR     
 vasp.5.4.4.18Apr17-6-g9f103f2a35 (build Nov 01 2019 12:17:22) complex          
  
 POSCAR found type information on POSCAR  H  Nb H  Sr
 POSCAR found :  4 types and      18 ions

 ----------------------------------------------------------------------------- 
|                                                                             |
|  ADVICE TO THIS USER RUNNING 'VASP/VAMP'   (HEAR YOUR MASTER'S VOICE ...):  |
|                                                                             |
|      You have a (more or less) 'large supercell' and for larger cells       |
|      it might be more efficient to use real space projection opertators     |
|      So try LREAL= Auto  in the INCAR   file.                               |
|      Mind:          For very  accurate calculation you might also keep the  |
|      reciprocal projection scheme          (i.e. LREAL=.FALSE.)             |
|                                                                             |
 ----------------------------------------------------------------------------- 

 LDA part: xc-table for Pade appr. of Perdew
 generate k-points for:    9    8    6
 POSCAR, INCAR and KPOINTS ok, starting setup
 FFT: planning ...
 WAVECAR not read
 entering main loop
       N       E                     dE             d eps       ncg     rms          rms(c)
DAV:   1     0.115086872157E+03    0.11509E+03   -0.11857E+04 13144   0.673E+02
DAV:   2    -0.580326580450E+02   -0.17312E+03   -0.16863E+03 15384   0.259E+02
DAV:   3    -0.687504552003E+02   -0.10718E+02   -0.10661E+02 19920   0.528E+01
DAV:   4    -0.691859159763E+02   -0.43546E+00   -0.43442E+00 19912   0.893E+00
DAV:   5    -0.691937881938E+02   -0.78722E-02   -0.78714E-02 18924   0.935E-01    0.361E+01
DAV:   6    -0.661339444670E+02    0.30598E+01   -0.51886E+00 17720   0.145E+01    0.157E+01
DAV:   7    -0.651629488111E+02    0.97100E+00   -0.17331E+00 17440   0.621E+00    0.660E+00
DAV:   8    -0.651135794202E+02    0.49369E-01   -0.41067E-01 17532   0.334E+00    0.169E+00
DAV:   9    -0.651169571196E+02   -0.33777E-02   -0.31501E-02 15808   0.105E+00    0.554E-01
DAV:  10    -0.651192507996E+02   -0.22937E-02   -0.10093E-02 16520   0.536E-01    0.156E-01
DAV:  11    -0.651197264333E+02   -0.47563E-03   -0.97118E-04 15656   0.216E-01    0.647E-02
DAV:  12    -0.651199856526E+02   -0.25922E-03   -0.40499E-04 14076   0.111E-01    0.460E-02
DAV:  13    -0.651199991093E+02   -0.13457E-04   -0.47070E-05 11120   0.413E-02
   1 F= -.65119999E+02 E0= -.65119492E+02  d E =-.651200E+02
 curvature:   0.00 expect dE= 0.000E+00 dE for cont linesearch  0.000E+00
 trial: gam= 0.00000 g(F)=  0.882E-03 g(S)=  0.299E-03 ort = 0.000E+00 (trialstep = 0.100E+01)
 search vector abs. value=  0.118E-02
 bond charge predicted
       N       E                     dE             d eps       ncg     rms          rms(c)
DAV:   1    -0.651201572227E+02   -0.17157E-03   -0.48336E-02 14864   0.173E+00    0.113E-01
DAV:   2    -0.651205435986E+02   -0.38638E-03   -0.55712E-03 14220   0.419E-01    0.579E-02
DAV:   3    -0.651205110455E+02    0.32553E-04   -0.94771E-05 13440   0.668E-02
   2 F= -.65120511E+02 E0= -.65120002E+02  d E =-.511936E-03
 trial-energy change:   -0.000512  1 .order   -0.000560   -0.001181    0.000061
 step:   0.9508(harm=  0.9508)  dis= 0.00258  next Energy=   -65.120561 (dE=-0.561E-03)
 bond charge predicted
       N       E                     dE             d eps       ncg     rms          rms(c)
DAV:   1    -0.651205024289E+02    0.41170E-04   -0.23414E-04 12288   0.125E-01    0.168E-02
DAV:   2    -0.651205072810E+02   -0.48521E-05   -0.50027E-05  8172   0.515E-02
   3 F= -.65120507E+02 E0= -.65119998E+02  d E =-.508172E-03
 curvature:  -0.48 expect dE=-0.883E-03 dE for cont linesearch -0.242E-05
 trial: gam= 1.63797 g(F)=  0.165E-02 g(S)=  0.208E-03 ort =-0.775E-04 (trialstep = 0.245E+00)
 search vector abs. value=  0.477E-02
 reached required accuracy - stopping structural energy minimisation
