       N       E                     dE             d eps       ncg     rms          rms(c)
DAV:   1     0.115155797171E+03    0.11516E+03   -0.11843E+04 12984   0.674E+02
DAV:   2    -0.578944886488E+02   -0.17305E+03   -0.16848E+03 15344   0.259E+02
DAV:   3    -0.686251053563E+02   -0.10731E+02   -0.10676E+02 20040   0.529E+01
DAV:   4    -0.690605768378E+02   -0.43547E+00   -0.43439E+00 19868   0.892E+00
DAV:   5    -0.690684213854E+02   -0.78445E-02   -0.78436E-02 18828   0.938E-01    0.361E+01
DAV:   6    -0.660543511084E+02    0.30141E+01   -0.50260E+00 17672   0.143E+01    0.157E+01
DAV:   7    -0.650923785500E+02    0.96197E+00   -0.17375E+00 17436   0.615E+00    0.653E+00
DAV:   8    -0.650479837760E+02    0.44395E-01   -0.40164E-01 17804   0.330E+00    0.175E+00
DAV:   9    -0.650511682211E+02   -0.31844E-02   -0.29298E-02 15428   0.102E+00    0.577E-01
DAV:  10    -0.650535256015E+02   -0.23574E-02   -0.10079E-02 16468   0.537E-01    0.151E-01
DAV:  11    -0.650539920892E+02   -0.46649E-03   -0.96008E-04 15596   0.212E-01    0.637E-02
DAV:  12    -0.650542517244E+02   -0.25964E-03   -0.38423E-04 14076   0.109E-01    0.443E-02
DAV:  13    -0.650542647021E+02   -0.12978E-04   -0.42284E-05 11356   0.393E-02
   1 F= -.65054265E+02 E0= -.65053816E+02  d E =-.650543E+02
       N       E                     dE             d eps       ncg     rms          rms(c)
DAV:   1    -0.650556870115E+02   -0.14353E-02   -0.27562E-01 14392   0.396E+00    0.430E-01
DAV:   2    -0.650569873727E+02   -0.13004E-02   -0.26174E-02 14456   0.947E-01    0.221E-01
DAV:   3    -0.650565667676E+02    0.42061E-03   -0.94060E-04 19672   0.199E-01    0.843E-02
DAV:   4    -0.650565276274E+02    0.39140E-04   -0.31543E-04 15080   0.103E-01
   2 F= -.65056528E+02 E0= -.65056074E+02  d E =-.226293E-02
       N       E                     dE             d eps       ncg     rms          rms(c)
DAV:   1    -0.650571456724E+02   -0.57890E-03   -0.27867E-02 14596   0.125E+00    0.134E-01
DAV:   2    -0.650572968090E+02   -0.15114E-03   -0.26570E-03 14484   0.297E-01    0.669E-02
DAV:   3    -0.650572615477E+02    0.35261E-04   -0.69320E-05 12484   0.598E-02
   3 F= -.65057262E+02 E0= -.65056809E+02  d E =-.299685E-02
       N       E                     dE             d eps       ncg     rms          rms(c)
DAV:   1    -0.650607550712E+02   -0.34583E-02   -0.13595E-01 13832   0.256E+00    0.302E-01
DAV:   2    -0.650609335521E+02   -0.17848E-03   -0.84671E-03 15016   0.545E-01    0.165E-01
DAV:   3    -0.650607073573E+02    0.22619E-03   -0.48594E-04 16788   0.139E-01    0.517E-02
DAV:   4    -0.650606990080E+02    0.83493E-05   -0.84576E-05  8376   0.592E-02
   4 F= -.65060699E+02 E0= -.65060241E+02  d E =-.343746E-02
       N       E                     dE             d eps       ncg     rms          rms(c)
DAV:   1    -0.650618083686E+02   -0.11010E-02   -0.13530E-01 13744   0.256E+00    0.306E-01
DAV:   2    -0.650619342474E+02   -0.12588E-03   -0.85066E-03 14928   0.546E-01    0.169E-01
DAV:   3    -0.650616902747E+02    0.24397E-03   -0.53616E-04 17216   0.145E-01    0.585E-02
DAV:   4    -0.650616827816E+02    0.74930E-05   -0.91536E-05  8664   0.616E-02
   5 F= -.65061683E+02 E0= -.65061220E+02  d E =-.442123E-02
       N       E                     dE             d eps       ncg     rms          rms(c)
DAV:   1    -0.650647186447E+02   -0.30284E-02   -0.14858E-01 13968   0.274E+00    0.263E-01
DAV:   2    -0.650650516207E+02   -0.33298E-03   -0.10876E-02 14000   0.611E-01    0.123E-01
DAV:   3    -0.650648525981E+02    0.19902E-03   -0.43068E-04 17376   0.128E-01    0.534E-02
DAV:   4    -0.650648241204E+02    0.28478E-04   -0.10752E-04  8808   0.663E-02
   6 F= -.65064824E+02 E0= -.65064357E+02  d E =-.314134E-02
       N       E                     dE             d eps       ncg     rms          rms(c)
DAV:   1    -0.650661612778E+02   -0.13087E-02   -0.34112E-01 13952   0.417E+00    0.386E-01
DAV:   2    -0.650670037134E+02   -0.84244E-03   -0.24914E-02 14032   0.924E-01    0.182E-01
DAV:   3    -0.650665746649E+02    0.42905E-03   -0.94055E-04 17760   0.190E-01    0.778E-02
DAV:   4    -0.650665137331E+02    0.60932E-04   -0.27559E-04 14704   0.978E-02
   7 F= -.65066514E+02 E0= -.65066041E+02  d E =-.483095E-02
       N       E                     dE             d eps       ncg     rms          rms(c)
DAV:   1    -0.650700829318E+02   -0.35083E-02   -0.11977E-01 12216   0.213E+00    0.202E-01
DAV:   2    -0.650698932302E+02    0.18970E-03   -0.40678E-03 16856   0.419E-01    0.116E-01
DAV:   3    -0.650696992152E+02    0.19402E-03   -0.40790E-04 16312   0.121E-01    0.383E-02
DAV:   4    -0.650696942780E+02    0.49372E-05   -0.88331E-05  8512   0.603E-02
   8 F= -.65069694E+02 E0= -.65069218E+02  d E =-.318054E-02
       N       E                     dE             d eps       ncg     rms          rms(c)
DAV:   1    -0.650762212501E+02   -0.65220E-02   -0.91340E-01 12208   0.589E+00    0.560E-01
DAV:   2    -0.650750203360E+02    0.12009E-02   -0.30964E-02 16880   0.115E+00    0.319E-01
DAV:   3    -0.650736196087E+02    0.14007E-02   -0.29065E-03 16544   0.325E-01    0.106E-01
DAV:   4    -0.650735945725E+02    0.25036E-04   -0.75936E-04 16016   0.164E-01
   9 F= -.65073595E+02 E0= -.65073110E+02  d E =-.708084E-02
       N       E                     dE             d eps       ncg     rms          rms(c)
DAV:   1    -0.650761484925E+02   -0.25289E-02   -0.82132E-02 12324   0.181E+00    0.155E-01
DAV:   2    -0.650761646238E+02   -0.16131E-04   -0.32087E-03 16236   0.373E-01    0.932E-02
DAV:   3    -0.650760702103E+02    0.94414E-04   -0.17456E-04 11500   0.830E-02
  10 F= -.65076070E+02 E0= -.65075583E+02  d E =-.247564E-02
       N       E                     dE             d eps       ncg     rms          rms(c)
DAV:   1    -0.650782896363E+02   -0.21250E-02   -0.57239E-01 12208   0.478E+00    0.421E-01
DAV:   2    -0.650784745977E+02   -0.18496E-03   -0.22139E-02 16304   0.979E-01    0.245E-01
DAV:   3    -0.650778677958E+02    0.60680E-03   -0.12647E-03 17904   0.211E-01    0.102E-01
DAV:   4    -0.650778240878E+02    0.43708E-04   -0.41873E-04 14952   0.123E-01
  11 F= -.65077824E+02 E0= -.65077330E+02  d E =-.422952E-02
       N       E                     dE             d eps       ncg     rms          rms(c)
DAV:   1    -0.650795333469E+02   -0.16656E-02   -0.24260E-02 12692   0.109E+00    0.143E-01
DAV:   2    -0.650795955966E+02   -0.62250E-04   -0.20660E-03 16404   0.303E-01    0.605E-02
DAV:   3    -0.650795586801E+02    0.36916E-04   -0.70082E-05  8848   0.588E-02
  12 F= -.65079559E+02 E0= -.65079065E+02  d E =-.173459E-02
       N       E                     dE             d eps       ncg     rms          rms(c)
DAV:   1    -0.650798630009E+02   -0.26740E-03   -0.14200E-02 12576   0.836E-01    0.110E-01
DAV:   2    -0.650798931661E+02   -0.30165E-04   -0.11475E-03 16976   0.229E-01    0.369E-02
DAV:   3    -0.650798766823E+02    0.16484E-04   -0.39132E-05  8396   0.426E-02
  13 F= -.65079877E+02 E0= -.65079383E+02  d E =-.205259E-02
       N       E                     dE             d eps       ncg     rms          rms(c)
DAV:   1    -0.650813138059E+02   -0.14206E-02   -0.28029E-02 12224   0.103E+00    0.172E-01
DAV:   2    -0.650812428344E+02    0.70972E-04   -0.16580E-03 16960   0.296E-01    0.543E-02
DAV:   3    -0.650812015948E+02    0.41240E-04   -0.95612E-05  8568   0.596E-02
  14 F= -.65081202E+02 E0= -.65080707E+02  d E =-.132491E-02
       N       E                     dE             d eps       ncg     rms          rms(c)
DAV:   1    -0.650834639016E+02   -0.22211E-02   -0.25302E-01 12208   0.309E+00    0.523E-01
DAV:   2    -0.650827892993E+02    0.67460E-03   -0.14968E-02 17024   0.886E-01    0.168E-01
DAV:   3    -0.650824202905E+02    0.36901E-03   -0.10038E-03 17568   0.180E-01    0.108E-01
DAV:   4    -0.650823520099E+02    0.68281E-04   -0.46023E-04 18600   0.122E-01
  15 F= -.65082352E+02 E0= -.65081856E+02  d E =-.247533E-02
       N       E                     dE             d eps       ncg     rms          rms(c)
DAV:   1    -0.650833720540E+02   -0.95176E-03   -0.48733E-02 12216   0.157E+00    0.156E-01
DAV:   2    -0.650835821910E+02   -0.21014E-03   -0.41658E-03 14736   0.403E-01    0.714E-02
DAV:   3    -0.650835439534E+02    0.38238E-04   -0.10850E-04 11972   0.665E-02
  16 F= -.65083544E+02 E0= -.65083045E+02  d E =-.119194E-02
       N       E                     dE             d eps       ncg     rms          rms(c)
DAV:   1    -0.650829442566E+02    0.63793E-03   -0.34825E-01 12208   0.421E+00    0.353E-01
DAV:   2    -0.650845503537E+02   -0.16061E-02   -0.29723E-02 14776   0.107E+00    0.157E-01
DAV:   3    -0.650843438350E+02    0.20652E-03   -0.82782E-04 18180   0.170E-01    0.893E-02
DAV:   4    -0.650842784606E+02    0.65374E-04   -0.33540E-04 14848   0.120E-01
  17 F= -.65084278E+02 E0= -.65083773E+02  d E =-.192645E-02
       N       E                     dE             d eps       ncg     rms          rms(c)
DAV:   1    -0.650857461928E+02   -0.14024E-02   -0.58326E-02 12284   0.152E+00    0.177E-01
DAV:   2    -0.650858277747E+02   -0.81582E-04   -0.24260E-03 16888   0.337E-01    0.881E-02
DAV:   3    -0.650857803677E+02    0.47407E-04   -0.99171E-05  9452   0.663E-02
  18 F= -.65085780E+02 E0= -.65085276E+02  d E =-.150191E-02
       N       E                     dE             d eps       ncg     rms          rms(c)
DAV:   1    -0.650864142078E+02   -0.58643E-03   -0.19789E-01 12208   0.282E+00    0.282E-01
DAV:   2    -0.650866932277E+02   -0.27902E-03   -0.80775E-03 16912   0.612E-01    0.135E-01
DAV:   3    -0.650865596733E+02    0.13355E-03   -0.35921E-04 15332   0.114E-01    0.775E-02
DAV:   4    -0.650865472320E+02    0.12441E-04   -0.11987E-04  9364   0.762E-02
  19 F= -.65086547E+02 E0= -.65086044E+02  d E =-.226877E-02
       N       E                     dE             d eps       ncg     rms          rms(c)
DAV:   1    -0.650876384649E+02   -0.10788E-02   -0.24788E-02 12348   0.106E+00    0.116E-01
DAV:   2    -0.650876859807E+02   -0.47516E-04   -0.13281E-03 14616   0.241E-01    0.541E-02
DAV:   3    -0.650876670072E+02    0.18973E-04   -0.50165E-05  8984   0.468E-02
  20 F= -.65087667E+02 E0= -.65087164E+02  d E =-.111978E-02
       N       E                     dE             d eps       ncg     rms          rms(c)
DAV:   1    -0.650885942603E+02   -0.90828E-03   -0.22100E-01 12216   0.315E+00    0.341E-01
DAV:   2    -0.650890465887E+02   -0.45233E-03   -0.11884E-02 15176   0.731E-01    0.139E-01
DAV:   3    -0.650888849695E+02    0.16162E-03   -0.43985E-04 16744   0.131E-01    0.800E-02
DAV:   4    -0.650888610753E+02    0.23894E-04   -0.16448E-04 10432   0.844E-02
  21 F= -.65088861E+02 E0= -.65088360E+02  d E =-.231384E-02
       N       E                     dE             d eps       ncg     rms          rms(c)
DAV:   1    -0.650895440090E+02   -0.65904E-03   -0.13177E-02 14132   0.810E-01    0.677E-02
DAV:   2    -0.650895914330E+02   -0.47424E-04   -0.87978E-04 14704   0.178E-01
  22 F= -.65089591E+02 E0= -.65089089E+02  d E =-.730358E-03
       N       E                     dE             d eps       ncg     rms          rms(c)
DAV:   1    -0.650908568730E+02   -0.13129E-02   -0.11805E-01 13952   0.244E+00    0.175E-01
DAV:   2    -0.650912621799E+02   -0.40531E-03   -0.79393E-03 14888   0.537E-01    0.102E-01
DAV:   3    -0.650912053697E+02    0.56810E-04   -0.17891E-04 13000   0.870E-02
  23 F= -.65091205E+02 E0= -.65090702E+02  d E =-.234429E-02
       N       E                     dE             d eps       ncg     rms          rms(c)
DAV:   1    -0.650920549712E+02   -0.79279E-03   -0.15781E-02 14060   0.927E-01    0.122E-01
DAV:   2    -0.650921158120E+02   -0.60841E-04   -0.13396E-03 15832   0.224E-01    0.702E-02
DAV:   3    -0.650920887049E+02    0.27107E-04   -0.54798E-05  8864   0.534E-02
  24 F= -.65092089E+02 E0= -.65091585E+02  d E =-.883335E-03
       N       E                     dE             d eps       ncg     rms          rms(c)
DAV:   1    -0.650923222027E+02   -0.20639E-03   -0.15196E-02 13900   0.904E-01    0.109E-01
DAV:   2    -0.650923672542E+02   -0.45052E-04   -0.11995E-03 16632   0.210E-01    0.612E-02
DAV:   3    -0.650923430805E+02    0.24174E-04   -0.48526E-05  8516   0.486E-02
  25 F= -.65092343E+02 E0= -.65091840E+02  d E =-.113771E-02
       N       E                     dE             d eps       ncg     rms          rms(c)
DAV:   1    -0.650929823753E+02   -0.61512E-03   -0.85349E-03 12248   0.569E-01    0.701E-02
DAV:   2    -0.650929824711E+02   -0.95768E-07   -0.31246E-04 13344   0.118E-01
  26 F= -.65092982E+02 E0= -.65092478E+02  d E =-.639391E-03
       N       E                     dE             d eps       ncg     rms          rms(c)
DAV:   1    -0.650940878107E+02   -0.11054E-02   -0.76685E-02 12208   0.170E+00    0.219E-01
DAV:   2    -0.650940899050E+02   -0.20944E-05   -0.28945E-03 17432   0.357E-01    0.131E-01
DAV:   3    -0.650939957075E+02    0.94198E-04   -0.21996E-04 12656   0.888E-02
  27 F= -.65093996E+02 E0= -.65093488E+02  d E =-.165263E-02
       N       E                     dE             d eps       ncg     rms          rms(c)
DAV:   1    -0.650945054094E+02   -0.41550E-03   -0.10837E-02 14228   0.771E-01    0.535E-02
DAV:   2    -0.650945695629E+02   -0.64153E-04   -0.91484E-04 14664   0.176E-01
  28 F= -.65094570E+02 E0= -.65094061E+02  d E =-.573855E-03
       N       E                     dE             d eps       ncg     rms          rms(c)
DAV:   1    -0.650947795855E+02   -0.27418E-03   -0.46501E-02 13952   0.159E+00    0.116E-01
DAV:   2    -0.650950359542E+02   -0.25637E-03   -0.38737E-03 15304   0.364E-01    0.666E-02
DAV:   3    -0.650949979409E+02    0.38013E-04   -0.82195E-05 11716   0.630E-02
  29 F= -.65094998E+02 E0= -.65094488E+02  d E =-.100223E-02
       N       E                     dE             d eps       ncg     rms          rms(c)
DAV:   1    -0.650953344367E+02   -0.29848E-03   -0.42151E-03 12804   0.425E-01    0.447E-02
DAV:   2    -0.650953367620E+02   -0.23253E-05   -0.18477E-04 11576   0.884E-02
  30 F= -.65095337E+02 E0= -.65094827E+02  d E =-.338821E-03
       N       E                     dE             d eps       ncg     rms          rms(c)
DAV:   1    -0.650961503106E+02   -0.81587E-03   -0.39737E-02 12208   0.129E+00    0.139E-01
DAV:   2    -0.650961508702E+02   -0.55966E-06   -0.17638E-03 16664   0.273E-01    0.691E-02
DAV:   3    -0.650961056692E+02    0.45201E-04   -0.90440E-05  8876   0.604E-02
  31 F= -.65096106E+02 E0= -.65095597E+02  d E =-.110773E-02
       N       E                     dE             d eps       ncg     rms          rms(c)
DAV:   1    -0.650964644307E+02   -0.31356E-03   -0.52029E-03 13776   0.549E-01    0.310E-02
DAV:   2    -0.650965130475E+02   -0.48617E-04   -0.57745E-04 14992   0.133E-01
  32 F= -.65096513E+02 E0= -.65096004E+02  d E =-.407378E-03
       N       E                     dE             d eps       ncg     rms          rms(c)
DAV:   1    -0.650966591833E+02   -0.19475E-03   -0.15786E-02 13436   0.964E-01    0.568E-02
DAV:   2    -0.650967947872E+02   -0.13560E-03   -0.17038E-03 15328   0.230E-01    0.374E-02
DAV:   3    -0.650967879531E+02    0.68341E-05   -0.22130E-05  9452   0.333E-02
  33 F= -.65096788E+02 E0= -.65096280E+02  d E =-.682284E-03
