  21  21   1   0
  0.7394492E+01  0.4832143E-09  0.5036154E-09  0.7052733E-09  0.5000000E-15
  1.000000000000000E-004
  CAR 
 unknown system                          
     15.15083195    -38.01335731  301     -1.46297719      1.00000000
    -38.013  0.0000E+00  0.0000E+00  0.0000E+00  0.0000E+00
    -37.836  0.0000E+00  0.0000E+00  0.0000E+00  0.0000E+00
    -37.659  0.0000E+00  0.0000E+00  0.0000E+00  0.0000E+00
    -37.482  0.0000E+00  0.0000E+00  0.0000E+00  0.0000E+00
    -37.305  0.0000E+00  0.0000E+00  0.0000E+00  0.0000E+00
    -37.127  0.0000E+00  0.0000E+00  0.0000E+00  0.0000E+00
    -36.950  0.0000E+00  0.0000E+00  0.0000E+00  0.0000E+00
    -36.773  0.0000E+00  0.0000E+00  0.0000E+00  0.0000E+00
    -36.596  0.0000E+00  0.0000E+00  0.0000E+00  0.0000E+00
    -36.418  0.0000E+00  0.0000E+00  0.0000E+00  0.0000E+00
    -36.241  0.0000E+00  0.0000E+00  0.0000E+00  0.0000E+00
    -36.064  0.0000E+00  0.0000E+00  0.0000E+00  0.0000E+00
    -35.887  0.0000E+00  0.0000E+00  0.0000E+00  0.0000E+00
    -35.710  0.0000E+00  0.0000E+00  0.0000E+00  0.0000E+00
    -35.532  0.0000E+00  0.0000E+00  0.1010E-01  0.1010E-01
    -35.355  0.0000E+00  0.0000E+00  0.1010E-01  0.1010E-01
    -35.178  0.0000E+00  0.0000E+00  0.1010E-01  0.1010E-01
    -35.001  0.0000E+00  0.0000E+00  0.1010E-01  0.1010E-01
    -34.824  0.0000E+00  0.0000E+00  0.1010E-01  0.1010E-01
    -34.646  0.0000E+00  0.0000E+00  0.1010E-01  0.1010E-01
    -34.469  0.0000E+00  0.0000E+00  0.1010E-01  0.1010E-01
    -34.292  0.0000E+00  0.0000E+00  0.1010E-01  0.1010E-01
    -34.115  0.0000E+00  0.0000E+00  0.1010E-01  0.1010E-01
    -33.937  0.0000E+00  0.0000E+00  0.1010E-01  0.1010E-01
    -33.760  0.0000E+00  0.0000E+00  0.1010E-01  0.1010E-01
    -33.583  0.0000E+00  0.0000E+00  0.1010E-01  0.1010E-01
    -33.406  0.0000E+00  0.0000E+00  0.1010E-01  0.1010E-01
    -33.229  0.0000E+00  0.0000E+00  0.1010E-01  0.1010E-01
    -33.051  0.0000E+00  0.0000E+00  0.1010E-01  0.1010E-01
    -32.874  0.0000E+00  0.0000E+00  0.1010E-01  0.1010E-01
    -32.697  0.0000E+00  0.0000E+00  0.1010E-01  0.1010E-01
    -32.520  0.0000E+00  0.0000E+00  0.1010E-01  0.1010E-01
    -32.343  0.0000E+00  0.0000E+00  0.1010E-01  0.1010E-01
    -32.165  0.0000E+00  0.0000E+00  0.1010E-01  0.1010E-01
    -31.988  0.0000E+00  0.0000E+00  0.1010E-01  0.1010E-01
    -31.811  0.0000E+00  0.0000E+00  0.1010E-01  0.1010E-01
    -31.634  0.0000E+00  0.0000E+00  0.1010E-01  0.1010E-01
    -31.456  0.0000E+00  0.0000E+00  0.1010E-01  0.1010E-01
    -31.279  0.0000E+00  0.0000E+00  0.1010E-01  0.1010E-01
    -31.102  0.0000E+00  0.0000E+00  0.1010E-01  0.1010E-01
    -30.925  0.0000E+00  0.0000E+00  0.1010E-01  0.1010E-01
    -30.748  0.0000E+00  0.0000E+00  0.1010E-01  0.1010E-01
    -30.570  0.0000E+00  0.0000E+00  0.1010E-01  0.1010E-01
    -30.393  0.0000E+00  0.0000E+00  0.2020E-01  0.2020E-01
    -30.216  0.0000E+00  0.0000E+00  0.3030E-01  0.3030E-01
    -30.039  0.0000E+00  0.0000E+00  0.4040E-01  0.4040E-01
    -29.862  0.0000E+00  0.0000E+00  0.4040E-01  0.4040E-01
    -29.684  0.0000E+00  0.0000E+00  0.4040E-01  0.4040E-01
    -29.507  0.0000E+00  0.0000E+00  0.4040E-01  0.4040E-01
    -29.330  0.0000E+00  0.0000E+00  0.4040E-01  0.4040E-01
    -29.153  0.0000E+00  0.0000E+00  0.4040E-01  0.4040E-01
    -28.975  0.0000E+00  0.0000E+00  0.4040E-01  0.4040E-01
    -28.798  0.0000E+00  0.0000E+00  0.4040E-01  0.4040E-01
    -28.621  0.0000E+00  0.0000E+00  0.4040E-01  0.4040E-01
    -28.444  0.0000E+00  0.0000E+00  0.4040E-01  0.4040E-01
    -28.267  0.0000E+00  0.0000E+00  0.4040E-01  0.4040E-01
    -28.089  0.0000E+00  0.0000E+00  0.4040E-01  0.4040E-01
    -27.912  0.0000E+00  0.0000E+00  0.4040E-01  0.4040E-01
    -27.735  0.0000E+00  0.0000E+00  0.4040E-01  0.4040E-01
    -27.558  0.0000E+00  0.0000E+00  0.4040E-01  0.4040E-01
    -27.381  0.0000E+00  0.0000E+00  0.4040E-01  0.4040E-01
    -27.203  0.0000E+00  0.0000E+00  0.4040E-01  0.4040E-01
    -27.026  0.0000E+00  0.0000E+00  0.4040E-01  0.4040E-01
    -26.849  0.0000E+00  0.0000E+00  0.4040E-01  0.4040E-01
    -26.672  0.0000E+00  0.0000E+00  0.4040E-01  0.4040E-01
    -26.494  0.0000E+00  0.0000E+00  0.4040E-01  0.4040E-01
    -26.317  0.0000E+00  0.0000E+00  0.4040E-01  0.4040E-01
    -26.140  0.0000E+00  0.0000E+00  0.4040E-01  0.4040E-01
    -25.963  0.0000E+00  0.0000E+00  0.4040E-01  0.4040E-01
    -25.786  0.0000E+00  0.0000E+00  0.4040E-01  0.4040E-01
    -25.608  0.0000E+00  0.0000E+00  0.4040E-01  0.4040E-01
    -25.431  0.0000E+00  0.0000E+00  0.4040E-01  0.4040E-01
    -25.254  0.0000E+00  0.0000E+00  0.4040E-01  0.4040E-01
    -25.077  0.0000E+00  0.0000E+00  0.4040E-01  0.4040E-01
    -24.900  0.0000E+00  0.0000E+00  0.4040E-01  0.4040E-01
    -24.722  0.0000E+00  0.0000E+00  0.4040E-01  0.4040E-01
    -24.545  0.0000E+00  0.0000E+00  0.4040E-01  0.4040E-01
    -24.368  0.0000E+00  0.0000E+00  0.4040E-01  0.4040E-01
    -24.191  0.0000E+00  0.0000E+00  0.4040E-01  0.4040E-01
    -24.013  0.0000E+00  0.0000E+00  0.4040E-01  0.4040E-01
    -23.836  0.0000E+00  0.0000E+00  0.4040E-01  0.4040E-01
    -23.659  0.0000E+00  0.0000E+00  0.4040E-01  0.4040E-01
    -23.482  0.0000E+00  0.0000E+00  0.4040E-01  0.4040E-01
    -23.305  0.0000E+00  0.0000E+00  0.4040E-01  0.4040E-01
    -23.127  0.0000E+00  0.0000E+00  0.4040E-01  0.4040E-01
    -22.950  0.0000E+00  0.0000E+00  0.4040E-01  0.4040E-01
    -22.773  0.0000E+00  0.0000E+00  0.4040E-01  0.4040E-01
    -22.596  0.0000E+00  0.0000E+00  0.4040E-01  0.4040E-01
    -22.419  0.0000E+00  0.0000E+00  0.4040E-01  0.4040E-01
    -22.241  0.0000E+00  0.0000E+00  0.4040E-01  0.4040E-01
    -22.064  0.0000E+00  0.0000E+00  0.4040E-01  0.4040E-01
    -21.887  0.0000E+00  0.0000E+00  0.4040E-01  0.4040E-01
    -21.710  0.0000E+00  0.0000E+00  0.4040E-01  0.4040E-01
    -21.532  0.0000E+00  0.0000E+00  0.4040E-01  0.4040E-01
    -21.355  0.0000E+00  0.0000E+00  0.4040E-01  0.4040E-01
    -21.178  0.0000E+00  0.0000E+00  0.4040E-01  0.4040E-01
    -21.001  0.0000E+00  0.0000E+00  0.4040E-01  0.4040E-01
    -20.824  0.0000E+00  0.0000E+00  0.4040E-01  0.4040E-01
    -20.646  0.0000E+00  0.0000E+00  0.4040E-01  0.4040E-01
    -20.469  0.0000E+00  0.0000E+00  0.4040E-01  0.4040E-01
    -20.292  0.0000E+00  0.0000E+00  0.4040E-01  0.4040E-01
    -20.115  0.0000E+00  0.0000E+00  0.4040E-01  0.4040E-01
    -19.938  0.0000E+00  0.0000E+00  0.4040E-01  0.4040E-01
    -19.760  0.0000E+00  0.0000E+00  0.4040E-01  0.4040E-01
    -19.583  0.0000E+00  0.0000E+00  0.4040E-01  0.4040E-01
    -19.406  0.0000E+00  0.0000E+00  0.4040E-01  0.4040E-01
    -19.229  0.0000E+00  0.0000E+00  0.4040E-01  0.4040E-01
    -19.051  0.0000E+00  0.0000E+00  0.4040E-01  0.4040E-01
    -18.874  0.0000E+00  0.0000E+00  0.4040E-01  0.4040E-01
    -18.697  0.0000E+00  0.0000E+00  0.4040E-01  0.4040E-01
    -18.520  0.0000E+00  0.0000E+00  0.4040E-01  0.4040E-01
    -18.343  0.0000E+00  0.0000E+00  0.4040E-01  0.4040E-01
    -18.165  0.0000E+00  0.0000E+00  0.4040E-01  0.4040E-01
    -17.988  0.0000E+00  0.0000E+00  0.4040E-01  0.4040E-01
    -17.811  0.0000E+00  0.0000E+00  0.4040E-01  0.4040E-01
    -17.634  0.0000E+00  0.0000E+00  0.5051E-01  0.5051E-01
    -17.457  0.0000E+00  0.0000E+00  0.7071E-01  0.7071E-01
    -17.279  0.0000E+00  0.0000E+00  0.7071E-01  0.7071E-01
    -17.102  0.0000E+00  0.0000E+00  0.7071E-01  0.7071E-01
    -16.925  0.0000E+00  0.0000E+00  0.7071E-01  0.7071E-01
    -16.748  0.0000E+00  0.0000E+00  0.7071E-01  0.7071E-01
    -16.570  0.0000E+00  0.0000E+00  0.7071E-01  0.7071E-01
    -16.393  0.0000E+00  0.0000E+00  0.7071E-01  0.7071E-01
    -16.216  0.0000E+00  0.0000E+00  0.7071E-01  0.7071E-01
    -16.039  0.0000E+00  0.0000E+00  0.7071E-01  0.7071E-01
    -15.862  0.0000E+00  0.0000E+00  0.7071E-01  0.7071E-01
    -15.684  0.0000E+00  0.0000E+00  0.7071E-01  0.7071E-01
    -15.507  0.0000E+00  0.0000E+00  0.7071E-01  0.7071E-01
    -15.330  0.0000E+00  0.0000E+00  0.7071E-01  0.7071E-01
    -15.153  0.0000E+00  0.0000E+00  0.7071E-01  0.7071E-01
    -14.976  0.0000E+00  0.0000E+00  0.7071E-01  0.7071E-01
    -14.798  0.0000E+00  0.0000E+00  0.7071E-01  0.7071E-01
    -14.621  0.0000E+00  0.0000E+00  0.7071E-01  0.7071E-01
    -14.444  0.0000E+00  0.0000E+00  0.7071E-01  0.7071E-01
    -14.267  0.0000E+00  0.0000E+00  0.7071E-01  0.7071E-01
    -14.089  0.0000E+00  0.0000E+00  0.7071E-01  0.7071E-01
    -13.912  0.0000E+00  0.0000E+00  0.7071E-01  0.7071E-01
    -13.735  0.0000E+00  0.0000E+00  0.7071E-01  0.7071E-01
    -13.558  0.0000E+00  0.0000E+00  0.7071E-01  0.7071E-01
    -13.381  0.0000E+00  0.0000E+00  0.7071E-01  0.7071E-01
    -13.203  0.0000E+00  0.0000E+00  0.7071E-01  0.7071E-01
    -13.026  0.0000E+00  0.0000E+00  0.7071E-01  0.7071E-01
    -12.849  0.0000E+00  0.0000E+00  0.7071E-01  0.7071E-01
    -12.672  0.0000E+00  0.0000E+00  0.7071E-01  0.7071E-01
    -12.495  0.0000E+00  0.0000E+00  0.7071E-01  0.7071E-01
    -12.317  0.0000E+00  0.0000E+00  0.7071E-01  0.7071E-01
    -12.140  0.0000E+00  0.0000E+00  0.7071E-01  0.7071E-01
    -11.963  0.0000E+00  0.0000E+00  0.7071E-01  0.7071E-01
    -11.786  0.0000E+00  0.0000E+00  0.7071E-01  0.7071E-01
    -11.608  0.0000E+00  0.0000E+00  0.7071E-01  0.7071E-01
    -11.431  0.0000E+00  0.0000E+00  0.7071E-01  0.7071E-01
    -11.254  0.0000E+00  0.0000E+00  0.7071E-01  0.7071E-01
    -11.077  0.0000E+00  0.0000E+00  0.7071E-01  0.7071E-01
    -10.900  0.0000E+00  0.0000E+00  0.7071E-01  0.7071E-01
    -10.722  0.0000E+00  0.0000E+00  0.7071E-01  0.7071E-01
    -10.545  0.0000E+00  0.0000E+00  0.7071E-01  0.7071E-01
    -10.368  0.0000E+00  0.0000E+00  0.7071E-01  0.7071E-01
    -10.191  0.0000E+00  0.0000E+00  0.7071E-01  0.7071E-01
    -10.014  0.0000E+00  0.0000E+00  0.7071E-01  0.7071E-01
     -9.836  0.0000E+00  0.0000E+00  0.7071E-01  0.7071E-01
     -9.659  0.1352E-04  0.1352E-04  0.7071E-01  0.7071E-01
     -9.482  0.7164E-02  0.7164E-02  0.7114E-01  0.7114E-01
     -9.305  0.1221E-01  0.1221E-01  0.7304E-01  0.7304E-01
     -9.127  0.2277E-01  0.2277E-01  0.7560E-01  0.7560E-01
     -8.950  0.1193E-01  0.1193E-01  0.7912E-01  0.7912E-01
     -8.773  0.0000E+00  0.0000E+00  0.8081E-01  0.8081E-01
     -8.596  0.0000E+00  0.0000E+00  0.8081E-01  0.8081E-01
     -8.419  0.0000E+00  0.0000E+00  0.8081E-01  0.8081E-01
     -8.241  0.2486E-01  0.2486E-01  0.8898E-01  0.8898E-01
     -8.064  0.3846E-03  0.3846E-03  0.9091E-01  0.9091E-01
     -7.887  0.3786E-01  0.3786E-01  0.9467E-01  0.9467E-01
     -7.710  0.1960E-01  0.1960E-01  0.9993E-01  0.9993E-01
     -7.533  0.0000E+00  0.0000E+00  0.1010E+00  0.1010E+00
     -7.355  0.3676E-01  0.3676E-01  0.1021E+00  0.1021E+00
     -7.178  0.1569E-01  0.1569E-01  0.1076E+00  0.1076E+00
     -7.001  0.1361E-01  0.1361E-01  0.1100E+00  0.1100E+00
     -6.824  0.1982E-01  0.1982E-01  0.1130E+00  0.1130E+00
     -6.646  0.3496E-01  0.3496E-01  0.1179E+00  0.1179E+00
     -6.469  0.1001E-01  0.1001E-01  0.1229E+00  0.1229E+00
     -6.292  0.2447E-01  0.2447E-01  0.1259E+00  0.1259E+00
     -6.115  0.2700E-01  0.2700E-01  0.1310E+00  0.1310E+00
     -5.938  0.0000E+00  0.0000E+00  0.1313E+00  0.1313E+00
     -5.760  0.0000E+00  0.0000E+00  0.1313E+00  0.1313E+00
     -5.583  0.0000E+00  0.0000E+00  0.1313E+00  0.1313E+00
     -5.406  0.0000E+00  0.0000E+00  0.1313E+00  0.1313E+00
     -5.229  0.1894E-03  0.1894E-03  0.1313E+00  0.1313E+00
     -5.052  0.6407E-02  0.6407E-02  0.1318E+00  0.1318E+00
     -4.874  0.1267E-01  0.1267E-01  0.1337E+00  0.1337E+00
     -4.697  0.2366E-01  0.2366E-01  0.1364E+00  0.1364E+00
     -4.520  0.1464E-01  0.1464E-01  0.1401E+00  0.1401E+00
     -4.343  0.0000E+00  0.0000E+00  0.1414E+00  0.1414E+00
     -4.165  0.0000E+00  0.0000E+00  0.1414E+00  0.1414E+00
     -3.988  0.4832E-01  0.4832E-01  0.1443E+00  0.1443E+00
     -3.811  0.1734E-01  0.1734E-01  0.1512E+00  0.1512E+00
     -3.634  0.0000E+00  0.0000E+00  0.1515E+00  0.1515E+00
     -3.457  0.1121E-01  0.1121E-01  0.1530E+00  0.1530E+00
     -3.279  0.2728E-01  0.2728E-01  0.1559E+00  0.1559E+00
     -3.102  0.5286E-02  0.5286E-02  0.1617E+00  0.1617E+00
     -2.925  0.4523E-01  0.4523E-01  0.1703E+00  0.1703E+00
     -2.748  0.5202E-01  0.5202E-01  0.1741E+00  0.1741E+00
     -2.571  0.1467E-01  0.1467E-01  0.1792E+00  0.1792E+00
     -2.393  0.7244E-02  0.7244E-02  0.1811E+00  0.1811E+00
     -2.216  0.1003E-02  0.1003E-02  0.1818E+00  0.1818E+00
     -2.039  0.2586E-01  0.2586E-01  0.1828E+00  0.1828E+00
     -1.862  0.4378E-01  0.4378E-01  0.1908E+00  0.1908E+00
     -1.684  0.6791E-01  0.6791E-01  0.1991E+00  0.1991E+00
     -1.507  0.0000E+00  0.0000E+00  0.2020E+00  0.2020E+00
     -1.330  0.0000E+00  0.0000E+00  0.2020E+00  0.2020E+00
     -1.153  0.0000E+00  0.0000E+00  0.2020E+00  0.2020E+00
     -0.976  0.0000E+00  0.0000E+00  0.2020E+00  0.2020E+00
     -0.798  0.0000E+00  0.0000E+00  0.2020E+00  0.2020E+00
     -0.621  0.0000E+00  0.0000E+00  0.2020E+00  0.2020E+00
     -0.444  0.0000E+00  0.0000E+00  0.2020E+00  0.2020E+00
     -0.267  0.0000E+00  0.0000E+00  0.2020E+00  0.2020E+00
     -0.090  0.0000E+00  0.0000E+00  0.2020E+00  0.2020E+00
      0.088  0.0000E+00  0.0000E+00  0.2020E+00  0.2020E+00
      0.265  0.0000E+00  0.0000E+00  0.2020E+00  0.2020E+00
      0.442  0.0000E+00  0.0000E+00  0.2020E+00  0.2020E+00
      0.619  0.0000E+00  0.0000E+00  0.2020E+00  0.2020E+00
      0.797  0.0000E+00  0.0000E+00  0.2020E+00  0.2020E+00
      0.974  0.0000E+00  0.0000E+00  0.2020E+00  0.2020E+00
      1.151  0.0000E+00  0.0000E+00  0.2020E+00  0.2020E+00
      1.328  0.0000E+00  0.0000E+00  0.2020E+00  0.2020E+00
      1.505  0.0000E+00  0.0000E+00  0.2020E+00  0.2020E+00
      1.683  0.0000E+00  0.0000E+00  0.2020E+00  0.2020E+00
      1.860  0.0000E+00  0.0000E+00  0.2020E+00  0.2020E+00
      2.037  0.0000E+00  0.0000E+00  0.2020E+00  0.2020E+00
      2.214  0.0000E+00  0.0000E+00  0.2020E+00  0.2020E+00
      2.391  0.0000E+00  0.0000E+00  0.2020E+00  0.2020E+00
      2.569  0.8732E-01  0.8732E-01  0.2078E+00  0.2078E+00
      2.746  0.2014E-01  0.2014E-01  0.2129E+00  0.2129E+00
      2.923  0.5181E-02  0.5181E-02  0.2222E+00  0.2222E+00
      3.100  0.4879E-01  0.4879E-01  0.2276E+00  0.2276E+00
      3.277  0.8514E-02  0.8514E-02  0.2324E+00  0.2324E+00
      3.455  0.4101E-01  0.4101E-01  0.2401E+00  0.2401E+00
      3.632  0.7120E-01  0.7120E-01  0.2457E+00  0.2457E+00
      3.809  0.2830E-01  0.2830E-01  0.2523E+00  0.2523E+00
      3.986  0.3917E-01  0.3917E-01  0.2594E+00  0.2594E+00
      4.164  0.2390E-01  0.2390E-01  0.2635E+00  0.2635E+00
      4.341  0.3056E-01  0.3056E-01  0.2686E+00  0.2686E+00
      4.518  0.2854E-01  0.2854E-01  0.2737E+00  0.2737E+00
      4.695  0.2500E-01  0.2500E-01  0.2786E+00  0.2786E+00
      4.872  0.2325E-01  0.2325E-01  0.2829E+00  0.2829E+00
      5.050  0.4230E-01  0.4230E-01  0.2904E+00  0.2904E+00
      5.227  0.2589E-01  0.2589E-01  0.2947E+00  0.2947E+00
      5.404  0.3940E-01  0.3940E-01  0.3009E+00  0.3009E+00
      5.581  0.3888E-01  0.3888E-01  0.3052E+00  0.3052E+00
      5.758  0.2297E-01  0.2297E-01  0.3121E+00  0.3121E+00
      5.936  0.6474E-01  0.6474E-01  0.3169E+00  0.3169E+00
      6.113  0.1438E-01  0.1438E-01  0.3237E+00  0.3237E+00
      6.290  0.3935E-01  0.3935E-01  0.3316E+00  0.3316E+00
      6.467  0.1716E-01  0.1716E-01  0.3341E+00  0.3341E+00
      6.645  0.3014E-01  0.3014E-01  0.3414E+00  0.3414E+00
      6.822  0.3487E-01  0.3487E-01  0.3447E+00  0.3447E+00
      6.999  0.1870E-01  0.1870E-01  0.3527E+00  0.3527E+00
      7.176  0.3229E-01  0.3229E-01  0.3556E+00  0.3556E+00
      7.353  0.2467E-01  0.2467E-01  0.3628E+00  0.3628E+00
      7.531  0.3411E-01  0.3411E-01  0.3660E+00  0.3660E+00
      7.708  0.2166E-01  0.2166E-01  0.3729E+00  0.3729E+00
      7.885  0.3183E-01  0.3183E-01  0.3763E+00  0.3763E+00
      8.062  0.2039E-01  0.2039E-01  0.3822E+00  0.3822E+00
      8.239  0.1027E-01  0.1027E-01  0.3844E+00  0.3844E+00
      8.417  0.3238E-01  0.3238E-01  0.3891E+00  0.3891E+00
      8.594  0.1998E-01  0.1998E-01  0.3935E+00  0.3935E+00
      8.771  0.2305E-01  0.2305E-01  0.3970E+00  0.3970E+00
      8.948  0.1414E-01  0.1414E-01  0.4007E+00  0.4007E+00
      9.126  0.1639E-01  0.1639E-01  0.4033E+00  0.4033E+00
      9.303  0.2195E-01  0.2195E-01  0.4066E+00  0.4066E+00
      9.480  0.2352E-01  0.2352E-01  0.4105E+00  0.4105E+00
      9.657  0.1609E-01  0.1609E-01  0.4143E+00  0.4143E+00
      9.834  0.1288E-01  0.1288E-01  0.4166E+00  0.4166E+00
     10.012  0.3116E-01  0.3116E-01  0.4202E+00  0.4202E+00
     10.189  0.1921E-01  0.1921E-01  0.4246E+00  0.4246E+00
     10.366  0.2592E-01  0.2592E-01  0.4281E+00  0.4281E+00
     10.543  0.2456E-01  0.2456E-01  0.4340E+00  0.4340E+00
     10.720  0.2006E-01  0.2006E-01  0.4370E+00  0.4370E+00
     10.898  0.2585E-01  0.2585E-01  0.4421E+00  0.4421E+00
     11.075  0.1753E-01  0.1753E-01  0.4451E+00  0.4451E+00
     11.252  0.3912E-01  0.3912E-01  0.4496E+00  0.4496E+00
     11.429  0.1562E-01  0.1562E-01  0.4541E+00  0.4541E+00
     11.607  0.3703E-01  0.3703E-01  0.4575E+00  0.4575E+00
     11.784  0.2427E-01  0.2427E-01  0.4635E+00  0.4635E+00
     11.961  0.1717E-01  0.1717E-01  0.4662E+00  0.4662E+00
     12.138  0.3244E-01  0.3244E-01  0.4722E+00  0.4722E+00
     12.315  0.1776E-01  0.1776E-01  0.4755E+00  0.4755E+00
     12.493  0.2656E-01  0.2656E-01  0.4815E+00  0.4815E+00
     12.670  0.3474E-02  0.3473E-02  0.4848E+00  0.4848E+00
     12.847  0.0000E+00  0.0000E+00  0.4848E+00  0.4848E+00
     13.024  0.0000E+00  0.0000E+00  0.4848E+00  0.4848E+00
     13.201  0.0000E+00  0.0000E+00  0.4848E+00  0.4848E+00
     13.379  0.0000E+00  0.0000E+00  0.4848E+00  0.4848E+00
     13.556  0.0000E+00  0.0000E+00  0.4848E+00  0.4848E+00
     13.733  0.0000E+00  0.0000E+00  0.4848E+00  0.4848E+00
     13.910  0.0000E+00  0.0000E+00  0.4848E+00  0.4848E+00
     14.088  0.0000E+00  0.0000E+00  0.4848E+00  0.4848E+00
     14.265  0.0000E+00  0.0000E+00  0.4848E+00  0.4848E+00
     14.442  0.0000E+00  0.0000E+00  0.4848E+00  0.4848E+00
     14.619  0.0000E+00  0.0000E+00  0.4848E+00  0.4848E+00
     14.796  0.0000E+00  0.0000E+00  0.4848E+00  0.4848E+00
     14.974  0.0000E+00  0.0000E+00  0.4848E+00  0.4848E+00
     15.151  0.0000E+00  0.0000E+00  0.4848E+00  0.4848E+00
     15.15083195    -38.01335731  301     -1.46297719      1.00000000
    -38.013  0.0000E+00  0.0000E+00  0.0000E+00  0.0000E+00  0.0000E+00  0.0000E+00  0.0000E+00  0.0000E+00  0.0000E+00  0.0000E+00  0.0000E+00  0.0000E+00  0.0000E+00  0.0000E+00  0.0000E+00  0.0000E+00  0.0000E+00  0.0000E+00
    -37.836  0.0000E+00  0.0000E+00  0.0000E+00  0.0000E+00  0.0000E+00  0.0000E+00  0.0000E+00  0.0000E+00  0.0000E+00  0.0000E+00  0.0000E+00  0.0000E+00  0.0000E+00  0.0000E+00  0.0000E+00  0.0000E+00  0.0000E+00  0.0000E+00
    -37.659  0.0000E+00  0.0000E+00  0.0000E+00  0.0000E+00  0.0000E+00  0.0000E+00  0.0000E+00  0.0000E+00  0.0000E+00  0.0000E+00  0.0000E+00  0.0000E+00  0.0000E+00  0.0000E+00  0.0000E+00  0.0000E+00  0.0000E+00  0.0000E+00
    -37.482  0.0000E+00  0.0000E+00  0.0000E+00  0.0000E+00  0.0000E+00  0.0000E+00  0.0000E+00  0.0000E+00  0.0000E+00  0.0000E+00  0.0000E+00  0.0000E+00  0.0000E+00  0.0000E+00  0.0000E+00  0.0000E+00  0.0000E+00  0.0000E+00
    -37.305  0.0000E+00  0.0000E+00  0.0000E+00  0.0000E+00  0.0000E+00  0.0000E+00  0.0000E+00  0.0000E+00  0.0000E+00  0.0000E+00  0.0000E+00  0.0000E+00  0.0000E+00  0.0000E+00  0.0000E+00  0.0000E+00  0.0000E+00  0.0000E+00
    -37.127  0.0000E+00  0.0000E+00  0.0000E+00  0.0000E+00  0.0000E+00  0.0000E+00  0.0000E+00  0.0000E+00  0.0000E+00  0.0000E+00  0.0000E+00  0.0000E+00  0.0000E+00  0.0000E+00  0.0000E+00  0.0000E+00  0.0000E+00  0.0000E+00
    -36.950  0.0000E+00  0.0000E+00  0.0000E+00  0.0000E+00  0.0000E+00  0.0000E+00  0.0000E+00  0.0000E+00  0.0000E+00  0.0000E+00  0.0000E+00  0.0000E+00  0.0000E+00  0.0000E+00  0.0000E+00  0.0000E+00  0.0000E+00  0.0000E+00
    -36.773  0.0000E+00  0.0000E+00  0.0000E+00  0.0000E+00  0.0000E+00  0.0000E+00  0.0000E+00  0.0000E+00  0.0000E+00  0.0000E+00  0.0000E+00  0.0000E+00  0.0000E+00  0.0000E+00  0.0000E+00  0.0000E+00  0.0000E+00  0.0000E+00
    -36.596  0.0000E+00  0.0000E+00  0.0000E+00  0.0000E+00  0.0000E+00  0.0000E+00  0.0000E+00  0.0000E+00  0.0000E+00  0.0000E+00  0.0000E+00  0.0000E+00  0.0000E+00  0.0000E+00  0.0000E+00  0.0000E+00  0.0000E+00  0.0000E+00
    -36.418  0.0000E+00  0.0000E+00  0.0000E+00  0.0000E+00  0.0000E+00  0.0000E+00  0.0000E+00  0.0000E+00  0.0000E+00  0.0000E+00  0.0000E+00  0.0000E+00  0.0000E+00  0.0000E+00  0.0000E+00  0.0000E+00  0.0000E+00  0.0000E+00
    -36.241  0.0000E+00  0.0000E+00  0.0000E+00  0.0000E+00  0.0000E+00  0.0000E+00  0.0000E+00  0.0000E+00  0.0000E+00  0.0000E+00  0.0000E+00  0.0000E+00  0.0000E+00  0.0000E+00  0.0000E+00  0.0000E+00  0.0000E+00  0.0000E+00
    -36.064  0.0000E+00  0.0000E+00  0.0000E+00  0.0000E+00  0.0000E+00  0.0000E+00  0.0000E+00  0.0000E+00  0.0000E+00  0.0000E+00  0.0000E+00  0.0000E+00  0.0000E+00  0.0000E+00  0.0000E+00  0.0000E+00  0.0000E+00  0.0000E+00
    -35.887  0.0000E+00  0.0000E+00  0.0000E+00  0.0000E+00  0.0000E+00  0.0000E+00  0.0000E+00  0.0000E+00  0.0000E+00  0.0000E+00  0.0000E+00  0.0000E+00  0.0000E+00  0.0000E+00  0.0000E+00  0.0000E+00  0.0000E+00  0.0000E+00
    -35.710  0.0000E+00  0.0000E+00  0.0000E+00  0.0000E+00  0.0000E+00  0.0000E+00  0.0000E+00  0.0000E+00  0.0000E+00  0.0000E+00  0.0000E+00  0.0000E+00  0.0000E+00  0.0000E+00  0.0000E+00  0.0000E+00  0.0000E+00  0.0000E+00
    -35.532  0.0000E+00  0.0000E+00  0.0000E+00  0.0000E+00  0.0000E+00  0.0000E+00  0.0000E+00  0.0000E+00  0.0000E+00  0.0000E+00  0.0000E+00  0.0000E+00  0.0000E+00  0.0000E+00  0.0000E+00  0.0000E+00  0.0000E+00  0.0000E+00
    -35.355  0.0000E+00  0.0000E+00  0.0000E+00  0.0000E+00  0.0000E+00  0.0000E+00  0.0000E+00  0.0000E+00  0.0000E+00  0.0000E+00  0.0000E+00  0.0000E+00  0.0000E+00  0.0000E+00  0.0000E+00  0.0000E+00  0.0000E+00  0.0000E+00
    -35.178  0.0000E+00  0.0000E+00  0.0000E+00  0.0000E+00  0.0000E+00  0.0000E+00  0.0000E+00  0.0000E+00  0.0000E+00  0.0000E+00  0.0000E+00  0.0000E+00  0.0000E+00  0.0000E+00  0.0000E+00  0.0000E+00  0.0000E+00  0.0000E+00
    -35.001  0.0000E+00  0.0000E+00  0.0000E+00  0.0000E+00  0.0000E+00  0.0000E+00  0.0000E+00  0.0000E+00  0.0000E+00  0.0000E+00  0.0000E+00  0.0000E+00  0.0000E+00  0.0000E+00  0.0000E+00  0.0000E+00  0.0000E+00  0.0000E+00
    -34.824  0.0000E+00  0.0000E+00  0.0000E+00  0.0000E+00  0.0000E+00  0.0000E+00  0.0000E+00  0.0000E+00  0.0000E+00  0.0000E+00  0.0000E+00  0.0000E+00  0.0000E+00  0.0000E+00  0.0000E+00  0.0000E+00  0.0000E+00  0.0000E+00
    -34.646  0.0000E+00  0.0000E+00  0.0000E+00  0.0000E+00  0.0000E+00  0.0000E+00  0.0000E+00  0.0000E+00  0.0000E+00  0.0000E+00  0.0000E+00  0.0000E+00  0.0000E+00  0.0000E+00  0.0000E+00  0.0000E+00  0.0000E+00  0.0000E+00
    -34.469  0.0000E+00  0.0000E+00  0.0000E+00  0.0000E+00  0.0000E+00  0.0000E+00  0.0000E+00  0.0000E+00  0.0000E+00  0.0000E+00  0.0000E+00  0.0000E+00  0.0000E+00  0.0000E+00  0.0000E+00  0.0000E+00  0.0000E+00  0.0000E+00
    -34.292  0.0000E+00  0.0000E+00  0.0000E+00  0.0000E+00  0.0000E+00  0.0000E+00  0.0000E+00  0.0000E+00  0.0000E+00  0.0000E+00  0.0000E+00  0.0000E+00  0.0000E+00  0.0000E+00  0.0000E+00  0.0000E+00  0.0000E+00  0.0000E+00
    -34.115  0.0000E+00  0.0000E+00  0.0000E+00  0.0000E+00  0.0000E+00  0.0000E+00  0.0000E+00  0.0000E+00  0.0000E+00  0.0000E+00  0.0000E+00  0.0000E+00  0.0000E+00  0.0000E+00  0.0000E+00  0.0000E+00  0.0000E+00  0.0000E+00
    -33.937  0.0000E+00  0.0000E+00  0.0000E+00  0.0000E+00  0.0000E+00  0.0000E+00  0.0000E+00  0.0000E+00  0.0000E+00  0.0000E+00  0.0000E+00  0.0000E+00  0.0000E+00  0.0000E+00  0.0000E+00  0.0000E+00  0.0000E+00  0.0000E+00
    -33.760  0.0000E+00  0.0000E+00  0.0000E+00  0.0000E+00  0.0000E+00  0.0000E+00  0.0000E+00  0.0000E+00  0.0000E+00  0.0000E+00  0.0000E+00  0.0000E+00  0.0000E+00  0.0000E+00  0.0000E+00  0.0000E+00  0.0000E+00  0.0000E+00
    -33.583  0.0000E+00  0.0000E+00  0.0000E+00  0.0000E+00  0.0000E+00  0.0000E+00  0.0000E+00  0.0000E+00  0.0000E+00  0.0000E+00  0.0000E+00  0.0000E+00  0.0000E+00  0.0000E+00  0.0000E+00  0.0000E+00  0.0000E+00  0.0000E+00
    -33.406  0.0000E+00  0.0000E+00  0.0000E+00  0.0000E+00  0.0000E+00  0.0000E+00  0.0000E+00  0.0000E+00  0.0000E+00  0.0000E+00  0.0000E+00  0.0000E+00  0.0000E+00  0.0000E+00  0.0000E+00  0.0000E+00  0.0000E+00  0.0000E+00
    -33.229  0.0000E+00  0.0000E+00  0.0000E+00  0.0000E+00  0.0000E+00  0.0000E+00  0.0000E+00  0.0000E+00  0.0000E+00  0.0000E+00  0.0000E+00  0.0000E+00  0.0000E+00  0.0000E+00  0.0000E+00  0.0000E+00  0.0000E+00  0.0000E+00
    -33.051  0.0000E+00  0.0000E+00  0.0000E+00  0.0000E+00  0.0000E+00  0.0000E+00  0.0000E+00  0.0000E+00  0.0000E+00  0.0000E+00  0.0000E+00  0.0000E+00  0.0000E+00  0.0000E+00  0.0000E+00  0.0000E+00  0.0000E+00  0.0000E+00
    -32.874  0.0000E+00  0.0000E+00  0.0000E+00  0.0000E+00  0.0000E+00  0.0000E+00  0.0000E+00  0.0000E+00  0.0000E+00  0.0000E+00  0.0000E+00  0.0000E+00  0.0000E+00  0.0000E+00  0.0000E+00  0.0000E+00  0.0000E+00  0.0000E+00
    -32.697  0.0000E+00  0.0000E+00  0.0000E+00  0.0000E+00  0.0000E+00  0.0000E+00  0.0000E+00  0.0000E+00  0.0000E+00  0.0000E+00  0.0000E+00  0.0000E+00  0.0000E+00  0.0000E+00  0.0000E+00  0.0000E+00  0.0000E+00  0.0000E+00
    -32.520  0.0000E+00  0.0000E+00  0.0000E+00  0.0000E+00  0.0000E+00  0.0000E+00  0.0000E+00  0.0000E+00  0.0000E+00  0.0000E+00  0.0000E+00  0.0000E+00  0.0000E+00  0.0000E+00  0.0000E+00  0.0000E+00  0.0000E+00  0.0000E+00
    -32.343  0.0000E+00  0.0000E+00  0.0000E+00  0.0000E+00  0.0000E+00  0.0000E+00  0.0000E+00  0.0000E+00  0.0000E+00  0.0000E+00  0.0000E+00  0.0000E+00  0.0000E+00  0.0000E+00  0.0000E+00  0.0000E+00  0.0000E+00  0.0000E+00
    -32.165  0.0000E+00  0.0000E+00  0.0000E+00  0.0000E+00  0.0000E+00  0.0000E+00  0.0000E+00  0.0000E+00  0.0000E+00  0.0000E+00  0.0000E+00  0.0000E+00  0.0000E+00  0.0000E+00  0.0000E+00  0.0000E+00  0.0000E+00  0.0000E+00
    -31.988  0.0000E+00  0.0000E+00  0.0000E+00  0.0000E+00  0.0000E+00  0.0000E+00  0.0000E+00  0.0000E+00  0.0000E+00  0.0000E+00  0.0000E+00  0.0000E+00  0.0000E+00  0.0000E+00  0.0000E+00  0.0000E+00  0.0000E+00  0.0000E+00
    -31.811  0.0000E+00  0.0000E+00  0.0000E+00  0.0000E+00  0.0000E+00  0.0000E+00  0.0000E+00  0.0000E+00  0.0000E+00  0.0000E+00  0.0000E+00  0.0000E+00  0.0000E+00  0.0000E+00  0.0000E+00  0.0000E+00  0.0000E+00  0.0000E+00
    -31.634  0.0000E+00  0.0000E+00  0.0000E+00  0.0000E+00  0.0000E+00  0.0000E+00  0.0000E+00  0.0000E+00  0.0000E+00  0.0000E+00  0.0000E+00  0.0000E+00  0.0000E+00  0.0000E+00  0.0000E+00  0.0000E+00  0.0000E+00  0.0000E+00
    -31.456  0.0000E+00  0.0000E+00  0.0000E+00  0.0000E+00  0.0000E+00  0.0000E+00  0.0000E+00  0.0000E+00  0.0000E+00  0.0000E+00  0.0000E+00  0.0000E+00  0.0000E+00  0.0000E+00  0.0000E+00  0.0000E+00  0.0000E+00  0.0000E+00
    -31.279  0.0000E+00  0.0000E+00  0.0000E+00  0.0000E+00  0.0000E+00  0.0000E+00  0.0000E+00  0.0000E+00  0.0000E+00  0.0000E+00  0.0000E+00  0.0000E+00  0.0000E+00  0.0000E+00  0.0000E+00  0.0000E+00  0.0000E+00  0.0000E+00
    -31.102  0.0000E+00  0.0000E+00  0.0000E+00  0.0000E+00  0.0000E+00  0.0000E+00  0.0000E+00  0.0000E+00  0.0000E+00  0.0000E+00  0.0000E+00  0.0000E+00  0.0000E+00  0.0000E+00  0.0000E+00  0.0000E+00  0.0000E+00  0.0000E+00
    -30.925  0.0000E+00  0.0000E+00  0.0000E+00  0.0000E+00  0.0000E+00  0.0000E+00  0.0000E+00  0.0000E+00  0.0000E+00  0.0000E+00  0.0000E+00  0.0000E+00  0.0000E+00  0.0000E+00  0.0000E+00  0.0000E+00  0.0000E+00  0.0000E+00
    -30.748  0.0000E+00  0.0000E+00  0.0000E+00  0.0000E+00  0.0000E+00  0.0000E+00  0.0000E+00  0.0000E+00  0.0000E+00  0.0000E+00  0.0000E+00  0.0000E+00  0.0000E+00  0.0000E+00  0.0000E+00  0.0000E+00  0.0000E+00  0.0000E+00
    -30.570  0.0000E+00  0.0000E+00  0.0000E+00  0.0000E+00  0.0000E+00  0.0000E+00  0.0000E+00  0.0000E+00  0.0000E+00  0.0000E+00  0.0000E+00  0.0000E+00  0.0000E+00  0.0000E+00  0.0000E+00  0.0000E+00  0.0000E+00  0.0000E+00
    -30.393  0.0000E+00  0.0000E+00  0.0000E+00  0.0000E+00  0.0000E+00  0.0000E+00  0.0000E+00  0.0000E+00  0.0000E+00  0.0000E+00  0.0000E+00  0.0000E+00  0.0000E+00  0.0000E+00  0.0000E+00  0.0000E+00  0.0000E+00  0.0000E+00
    -30.216  0.0000E+00  0.0000E+00  0.0000E+00  0.0000E+00  0.0000E+00  0.0000E+00  0.0000E+00  0.0000E+00  0.0000E+00  0.0000E+00  0.0000E+00  0.0000E+00  0.0000E+00  0.0000E+00  0.0000E+00  0.0000E+00  0.0000E+00  0.0000E+00
    -30.039  0.0000E+00  0.0000E+00  0.0000E+00  0.0000E+00  0.0000E+00  0.0000E+00  0.0000E+00  0.0000E+00  0.0000E+00  0.0000E+00  0.0000E+00  0.0000E+00  0.0000E+00  0.0000E+00  0.0000E+00  0.0000E+00  0.0000E+00  0.0000E+00
    -29.862  0.0000E+00  0.0000E+00  0.0000E+00  0.0000E+00  0.0000E+00  0.0000E+00  0.0000E+00  0.0000E+00  0.0000E+00  0.0000E+00  0.0000E+00  0.0000E+00  0.0000E+00  0.0000E+00  0.0000E+00  0.0000E+00  0.0000E+00  0.0000E+00
    -29.684  0.0000E+00  0.0000E+00  0.0000E+00  0.0000E+00  0.0000E+00  0.0000E+00  0.0000E+00  0.0000E+00  0.0000E+00  0.0000E+00  0.0000E+00  0.0000E+00  0.0000E+00  0.0000E+00  0.0000E+00  0.0000E+00  0.0000E+00  0.0000E+00
    -29.507  0.0000E+00  0.0000E+00  0.0000E+00  0.0000E+00  0.0000E+00  0.0000E+00  0.0000E+00  0.0000E+00  0.0000E+00  0.0000E+00  0.0000E+00  0.0000E+00  0.0000E+00  0.0000E+00  0.0000E+00  0.0000E+00  0.0000E+00  0.0000E+00
    -29.330  0.0000E+00  0.0000E+00  0.0000E+00  0.0000E+00  0.0000E+00  0.0000E+00  0.0000E+00  0.0000E+00  0.0000E+00  0.0000E+00  0.0000E+00  0.0000E+00  0.0000E+00  0.0000E+00  0.0000E+00  0.0000E+00  0.0000E+00  0.0000E+00
    -29.153  0.0000E+00  0.0000E+00  0.0000E+00  0.0000E+00  0.0000E+00  0.0000E+00  0.0000E+00  0.0000E+00  0.0000E+00  0.0000E+00  0.0000E+00  0.0000E+00  0.0000E+00  0.0000E+00  0.0000E+00  0.0000E+00  0.0000E+00  0.0000E+00