unknown system                          
           1
     3.919995   -0.412593    0.277431
    -1.328398    6.542335   -0.075128
    -0.556200   -1.760794    5.709519
   Sr   Nb   H 
   2   1  11
Direct configuration=     1
   0.35541600  0.39802400  0.97040700
   0.57445400  0.87426100  0.63819400
   0.07230000  0.89784400  0.16638300
   0.69911000  0.48952100  0.60279200
   0.54329100  0.42125100  0.50924000
   0.23892000  0.20038700  0.26082400
   0.68441300  0.01203100  0.26019000
   0.72780400  0.70575500  0.26492500
   0.17978000  0.69106300  0.27395200
   0.08055200  0.66418800  0.90405800
   0.14376700  0.00991100  0.49263100
   0.14507000  0.99487000  0.89951400
   0.66837500  0.77794900  0.97524800
   0.78005700  0.24523000  0.81006700
unknown system                          
           1
     3.956214   -0.418317    0.278584
    -1.343691    6.603468   -0.076855
    -0.562392   -1.778147    5.758647
   Sr   Nb   H 
   2   1  11
Direct configuration=     2
   0.35522568  0.39798365  0.97039821
   0.57446956  0.87463457  0.63829618
   0.07084487  0.89752734  0.16657501
   0.69752789  0.48901329  0.60193115
   0.54457411  0.42189911  0.51021472
   0.23882922  0.19994035  0.26070223
   0.68432430  0.01161291  0.25969633
   0.72840483  0.70613680  0.26480607
   0.17961295  0.69140175  0.27382985
   0.08127635  0.66456586  0.90428775
   0.14361073  0.00969925  0.49242097
   0.14496605  0.99482974  0.89974732
   0.66970304  0.77777312  0.97531627
   0.77993942  0.24526727  0.81020295
unknown system                          
           1
     3.991893   -0.423956    0.279719
    -1.358755    6.663688   -0.078556
    -0.568492   -1.795242    5.807042
   Sr   Nb   H 
   2   1  11
Direct configuration=     3
   0.35503985  0.39794420  0.97038958
   0.57448507  0.87499924  0.63839603
   0.06942419  0.89721782  0.16676216
   0.69598262  0.48851687  0.60108994
   0.54582765  0.42253248  0.51116707
   0.23874020  0.19950433  0.26058321
   0.68423717  0.01120464  0.25921410
   0.72899161  0.70650963  0.26469011
   0.17945007  0.69173228  0.27371055
   0.08198387  0.66493500  0.90451236
   0.14345792  0.00949244  0.49221578
   0.14486465  0.99479048  0.89997516
   0.67099940  0.77760194  0.97538324
   0.77982473  0.24530366  0.81033570
unknown system                          
           1
     4.020573   -0.425669    0.282081
    -1.368688    6.688977   -0.079276
    -0.570538   -1.802008    5.827711
   Sr   Nb   H 
   2   1  11
Direct configuration=     4
   0.35474845  0.39808403  0.97080887
   0.57501494  0.87645929  0.63847868
   0.06778151  0.89678321  0.16658439
   0.69918526  0.49029893  0.60323705
   0.54221472  0.42110594  0.50927533
   0.23745681  0.19701396  0.25947132
   0.68482513  0.00976558  0.25812642
   0.72992747  0.70745314  0.26434694
   0.17900396  0.69346507  0.27299084
   0.08320898  0.66661337  0.90647188
   0.14248915  0.00824227  0.49053023
   0.14430985  0.99418959  0.90157410
   0.67369035  0.77747546  0.97562492
   0.77945243  0.24533515  0.81090403
unknown system                          
           1
     4.008733   -0.424962    0.281106
    -1.364587    6.678538   -0.078979
    -0.569693   -1.799215    5.819179
   Sr   Nb   H 
   2   1  11
Direct configuration=     5
   0.35486780  0.39802648  0.97063639
   0.57479704  0.87585883  0.63844469
   0.06845497  0.89696182  0.16665748
   0.69787177  0.48956622  0.60235389
   0.54369618  0.42169239  0.51005343
   0.23798406  0.19803814  0.25992869
   0.68458489  0.01035754  0.25857387
   0.72954345  0.70706517  0.26448812
   0.17918593  0.69275236  0.27328688
   0.08270601  0.66592313  0.90566584
   0.14288684  0.00875641  0.49122358
   0.14453752  0.99443664  0.90091636
   0.67258755  0.77752772  0.97552557
   0.77960499  0.24532215  0.81067023
unknown system                          
           1
     4.020919   -0.425620    0.280400
    -1.369464    6.681495   -0.079544
    -0.572118   -1.800615    5.816555
   Sr   Nb   H 
   2   1  11
Direct configuration=     6
   0.35450209  0.39819759  0.97111343
   0.57532825  0.87736224  0.63851454
   0.06714373  0.89659107  0.16643651
   0.69710249  0.48964272  0.60218451
   0.54396968  0.42196805  0.51048709
   0.23664137  0.19547969  0.25878107
   0.68526210  0.00879117  0.25740380
   0.73037281  0.70799760  0.26413864
   0.17874686  0.69458302  0.27251728
   0.08398326  0.66767853  0.90778449
   0.14177630  0.00738142  0.48940382
   0.14392710  0.99379565  0.90258600
   0.67529808  0.77736890  0.97570540
   0.77925488  0.24544735  0.81136839
unknown system                          
           1
     4.037674   -0.426524    0.279430
    -1.376170    6.685561   -0.080322
    -0.575453   -1.802540    5.812946
   Sr   Nb   H 
   2   1  11
Direct configuration=     7
   0.35400149  0.39843304  0.97176954
   0.57605884  0.87942880  0.63861091
   0.06534530  0.89608138  0.16613204
   0.69604778  0.48974782  0.60195124
   0.54434551  0.42234718  0.51108376
   0.23479553  0.19196237  0.25720174
   0.68618690  0.00663746  0.25579437
   0.73151084  0.70927908  0.26365824
   0.17814685  0.69709902  0.27145853
   0.08573923  0.67009248  0.91069956
   0.14024978  0.00549051  0.48690000
   0.14309109  0.99291544  0.90488259
   0.67901402  0.77715060  0.97595377
   0.77877584  0.24561982  0.81232869
unknown system                          
           1
     4.055644   -0.427197    0.279271
    -1.381664    6.703809   -0.077631
    -0.578395   -1.805223    5.815376
   Sr   Nb   H 
   2   1  11
Direct configuration=     8
   0.35334774  0.39883687  0.97268528
   0.57644443  0.88100960  0.63859155
   0.06772749  0.89696509  0.16626553
   0.69458701  0.48974676  0.60154250
   0.54496099  0.42283606  0.51184825
   0.23383535  0.19029051  0.25621425
   0.68632318  0.00483889  0.25441519
   0.73049224  0.70934239  0.26374109
   0.17820776  0.69837032  0.27101999
   0.08756681  0.67132066  0.91239345
   0.13883209  0.00409555  0.48586053
   0.14244526  0.99249550  0.90571328
   0.68016140  0.77595475  0.97459947
   0.77837725  0.24618204  0.81353464
unknown system                          
           1
     4.057083   -0.427251    0.279258
    -1.382104    6.705269   -0.077416
    -0.578631   -1.805438    5.815570
   Sr   Nb   H 
   2   1  11
Direct configuration=     9
   0.35329571  0.39886913  0.97275851
   0.57647519  0.88113576  0.63858994
   0.06791734  0.89703560  0.16627622
   0.69447059  0.48974668  0.60150977
   0.54501009  0.42287509  0.51190940
   0.23375874  0.19015706  0.25613530
   0.68633391  0.00469531  0.25430493
   0.73041108  0.70934745  0.26374770
   0.17821262  0.69847177  0.27098485
   0.08771257  0.67141871  0.91252895
   0.13871902  0.00398420  0.48577741
   0.14239384  0.99246201  0.90577974
   0.68025271  0.77585927  0.97449119
   0.77834558  0.24622694  0.81363109
