   15   15   60    1
  0.6056956E+01  0.2875715E-09  0.5028630E-09  0.6707716E-09  0.5000000E-15
  1.000000000000000E-004
  CAR 
 unknown system                          
     15    340     16
 
  0.3742002E-15  0.3742002E-15  0.3742002E-15  0.1488095E-02
    1      -12.397781   1.000000
    2      -10.227191   1.000000
    3       -8.859708   1.000000
    4       -8.299024   1.000000
    5       -7.301334   1.000000
    6       -7.083499   1.000000
    7       -5.864599   1.000000
    8        2.988124   0.000000
    9        3.802825   0.000000
   10        4.654622   0.000000
   11        4.997619   0.000000
   12        5.800514   0.000000
   13        6.536395   0.000000
   14        6.716825   0.000000
   15        7.377176   0.000000
   16        9.534358   0.000000
 
  0.7142857E-01  0.3741582E-15  0.3712308E-15  0.2976190E-02
    1      -12.309740   1.000000
    2      -10.151028   1.000000
    3       -8.800737   1.000000
    4       -8.247240   1.000000
    5       -7.261384   1.000000
    6       -7.047773   1.000000
    7       -5.873001   1.000000
    8        2.977818   0.000000
    9        3.720939   0.000000
   10        4.385718   0.000000
   11        4.704144   0.000000
   12        5.013782   0.000000
   13        5.835141   0.000000
   14        7.312167   0.000000
   15        8.769456   0.000000
   16        9.466099   0.000000
 
  0.1428571E+00  0.3728571E-15  0.3660267E-15  0.2976190E-02
    1      -12.050433   1.000000
    2       -9.924623   1.000000
    3       -8.628421   1.000000
    4       -8.098800   1.000000
    5       -7.147844   1.000000
    6       -6.944020   1.000000
    7       -5.907140   1.000000
    8        1.762866   0.000000
    9        3.171881   0.000000
   10        4.179303   0.000000
   11        4.671788   0.000000
   12        5.011304   0.000000
   13        5.840766   0.000000
   14        7.330420   0.000000
   15        7.914892   0.000000
   16        8.865454   0.000000
 
  0.2142857E+00  0.3729113E-15  0.3677614E-15  0.2976190E-02
    1      -11.621949   1.000000
    2       -9.553678   1.000000
    3       -8.355588   1.000000
    4       -7.868966   1.000000
    5       -6.982291   1.000000
    6       -6.808298   1.000000
    7       -6.004770   1.000000
    8       -0.264151   0.000000
    9        3.188304   0.000000
   10        4.364177   0.000000
   11        4.526384   0.000000
   12        4.942907   0.000000
   13        5.673120   0.000000
   14        6.590528   0.000000
   15        7.804791   0.000000
   16        8.299057   0.000000
 
  0.2857143E+00  0.3737245E-15  0.3816392E-15  0.2976190E-02
    1      -11.033475   1.000000
    2       -9.037119   1.000000
    3       -8.004325   1.000000
    4       -7.581113   1.000000
    5       -6.820087   1.000000
    6       -6.685459   1.000000
    7       -6.170662   1.000000
    8       -2.122491   0.919972
    9        3.127487   0.000000
   10        4.058588   0.000000
   11        4.234936   0.000000
   12        4.818301   0.000000
   13        5.566210   0.000000
   14        5.936698   0.000000
   15        7.569241   0.000000
   16        8.063392   0.000000
 
  0.3571429E+00  0.3731824E-15  0.3677614E-15  0.2976190E-02
    1      -10.319180   1.000000
    2       -8.416344   1.000000
    3       -7.636276   1.000000
    4       -7.294699   1.000000
    5       -6.946958   1.000000
    6       -6.572926   1.000000
    7       -6.275107   1.000000
    8       -3.763396   1.000000
    9        2.949472   0.000000
   10        3.511299   0.000000
   11        3.742166   0.000000
   12        4.566915   0.000000
   13        5.369734   0.000000
   14        5.879803   0.000000
   15        7.014976   0.000000
   16        8.165235   0.000000
 
  0.4285714E+00  0.3742666E-15  0.3538836E-15  0.2976190E-02
    1       -9.538701   1.000000
    2       -7.855840   1.000000
    3       -7.422041   1.000000
    4       -7.329594   1.000000
    5       -6.912697   1.000000
    6       -6.520360   1.000000
    7       -6.246771   1.000000
    8       -5.146159   1.000000
    9        2.685204   0.000000
   10        3.156234   0.000000
   11        3.393438   0.000000
   12        4.386653   0.000000
   13        4.952699   0.000000
   14        5.830759   0.000000
   15        6.888191   0.000000
   16        8.504833   0.000000
 
  0.5000000E+00  0.3735076E-15  0.3677614E-15  0.1488095E-02
    1       -9.016852   1.000000
    2       -8.064724   1.000000
    3       -7.295499   1.000000
    4       -7.183327   1.000000
    5       -6.587223   1.000000
    6       -6.426107   1.000000
    7       -6.221299   1.000000
    8       -6.027119   1.000000
    9        2.554415   0.000000
   10        3.043792   0.000000
   11        3.272694   0.000000
   12        4.460940   0.000000
   13        4.674164   0.000000
   14        5.653674   0.000000
   15        7.024936   0.000000
   16        8.893486   0.000000
 
  0.3733992E-15  0.1250000E+00  0.3469447E-15  0.2976190E-02
    1      -12.347056   1.000000
    2      -10.246609   1.000000
    3       -8.887694   1.000000
    4       -8.360194   1.000000
    5       -7.677238   1.000000
    6       -6.763656   1.000000
    7       -5.745564   1.000000
    8        3.042027   0.000000
    9        3.852928   0.000000
   10        4.487483   0.000000
   11        5.077062   0.000000
   12        6.012334   0.000000
   13        6.553074   0.000000
   14        6.716533   0.000000
   15        7.684355   0.000000
   16        9.380643   0.000000
 
  0.7142857E-01  0.1250000E+00  0.3608225E-15  0.2976190E-02
    1      -12.263372   1.000000
    2      -10.169524   1.000000
    3       -8.821977   1.000000
    4       -8.305609   1.000000
    5       -7.621305   1.000000
    6       -6.753970   1.000000
    7       -5.750325   1.000000
    8        3.053105   0.000000
    9        3.695219   0.000000
   10        4.416105   0.000000
   11        4.618011   0.000000
   12        5.055893   0.000000
   13        6.026060   0.000000
   14        7.570831   0.000000
   15        8.630539   0.000000
   16        9.395609   0.000000
 
  0.1428571E+00  0.1250000E+00  0.3608225E-15  0.2976190E-02
    1      -12.006992   1.000000
    2       -9.940439   1.000000
    3       -8.640905   1.000000
    4       -8.158852   1.000000
    5       -7.480063   1.000000
    6       -6.694225   1.000000
    7       -5.778309   1.000000
    8        1.766464   0.000000
    9        3.247900   0.000000
   10        4.162398   0.000000
   11        4.739028   0.000000
   12        4.956854   0.000000
   13        5.953010   0.000000
   14        7.431881   0.000000
   15        7.842638   0.000000
   16        8.874575   0.000000
 
  0.2142857E+00  0.1250000E+00  0.3608225E-15  0.2976190E-02
    1      -11.579866   1.000000
    2       -9.564959   1.000000
    3       -8.357355   1.000000
    4       -7.929706   1.000000
    5       -7.276608   1.000000
    6       -6.616760   1.000000
    7       -5.860025   1.000000
    8       -0.277050   0.000000
    9        3.334393   0.000000
   10        4.350041   0.000000
   11        4.574460   0.000000
   12        4.900855   0.000000
   13        5.666048   0.000000
   14        6.478585   0.000000
   15        7.847318   0.000000
   16        8.260830   0.000000
 
  0.2857143E+00  0.1250000E+00  0.3608225E-15  0.2976190E-02
    1      -10.994759   1.000000
    2       -9.051703   1.000000
    3       -7.995997   1.000000
    4       -7.660240   1.000000
    5       -7.051655   1.000000
    6       -6.587076   1.000000
    7       -6.000240   1.000000
    8       -2.151395   1.034032
    9        3.336842   0.000000
   10        4.021539   0.000000
   11        4.295548   0.000000
   12        4.679185   0.000000
   13        5.456319   0.000000
   14        5.872834   0.000000
   15        7.531865   0.000000
   16        8.012306   0.000000
 
  0.3571429E+00  0.1250000E+00  0.3747003E-15  0.2976190E-02
    1      -10.278920   1.000000
    2       -8.424796   1.000000
    3       -7.610564   1.000000
    4       -7.416005   1.000000
    5       -6.926890   1.000000
    6       -6.659382   1.000000
    7       -6.130164   1.000000
    8       -3.806407   1.000000
    9        3.139234   0.000000
   10        3.498657   0.000000
   11        3.725329   0.000000
   12        4.357898   0.000000
   13        5.259469   0.000000
   14        6.032027   0.000000
   15        7.083722   0.000000
   16        7.984459   0.000000
 
  0.4285714E+00  0.1250000E+00  0.3608225E-15  0.2976190E-02
    1       -9.497069   1.000000
    2       -7.831267   1.000000
    3       -7.477763   1.000000
    4       -7.308467   1.000000
    5       -6.884371   1.000000
    6       -6.598145   1.000000
    7       -6.209879   1.000000
    8       -5.200331   1.000000
    9        2.741729   0.000000
   10        3.172752   0.000000
   11        3.334254   0.000000
   12        4.158923   0.000000
   13        5.180862   0.000000
   14        6.002233   0.000000
   15        6.944872   0.000000
   16        8.341623   0.000000
 
  0.5000000E+00  0.1250000E+00  0.3053113E-15  0.2976190E-02
    1       -8.960616   1.000000
    2       -8.028514   1.000000
    3       -7.309731   1.000000
    4       -7.199995   1.000000
    5       -6.662500   1.000000
    6       -6.482362   1.000000
    7       -6.192294   1.000000
    8       -6.053853   1.000000
    9        2.530998   0.000000
   10        2.977288   0.000000
   11        3.210627   0.000000
   12        4.397458   0.000000
   13        5.069121   0.000000
   14        5.795288   0.000000
   15        7.064924   0.000000
   16        8.637225   0.000000
 
 -0.4285714E+00  0.1250000E+00  0.3712308E-15  0.2976190E-02
    1       -9.456798   1.000000
    2       -7.910294   1.000000
    3       -7.459743   1.000000
    4       -7.222988   1.000000
    5       -7.031802   1.000000
    6       -6.658848   1.000000
    7       -6.141176   1.000000
    8       -5.140091   1.000000
    9        2.571433   0.000000
   10        3.072313   0.000000
   11        3.433125   0.000000
   12        4.572803   0.000000
   13        5.270278   0.000000
   14        5.874517   0.000000
   15        6.972318   0.000000
   16        7.876466   0.000000
 
 -0.3571429E+00  0.1250000E+00  0.3642919E-15  0.2976190E-02
    1      -10.240905   1.000000
    2       -8.476872   1.000000
    3       -7.633393   1.000000
    4       -7.407882   1.000000
    5       -6.978965   1.000000
    6       -6.676675   1.000000
    7       -6.115726   1.000000
    8       -3.759165   1.000000
    9        2.788781   0.000000
   10        3.536352   0.000000
   11        3.903450   0.000000
   12        4.565488   0.000000
   13        5.776090   0.000000
   14        5.937835   0.000000
   15        6.832984   0.000000
   16        7.666011   0.000000
 
 -0.2857143E+00  0.1250000E+00  0.3747003E-15  0.2976190E-02
    1      -10.963456   1.000000
    2       -9.086340   1.000000
    3       -8.031136   1.000000
    4       -7.665935   1.000000
    5       -7.112283   1.000000
    6       -6.489148   1.000000
    7       -6.048086   1.000000
    8       -2.113116   0.855906
    9        3.081981   0.000000
   10        4.138181   0.000000
   11        4.401641   0.000000
   12        4.670583   0.000000
   13        5.524644   0.000000
   14        6.371155   0.000000
   15        6.989091   0.000000
   16        8.090068   0.000000
 
 -0.2142857E+00  0.1250000E+00  0.3608225E-15  0.2976190E-02
    1      -11.552332   1.000000
    2       -9.586463   1.000000
    3       -8.383859   1.000000
    4       -7.937617   1.000000
    5       -7.328759   1.000000
    6       -6.512232   1.000000
    7       -5.897449   1.000000
    8       -0.247749   0.000000
    9        3.257162   0.000000
   10        4.261759   0.000000
   11        4.687808   0.000000
   12        4.928072   0.000000
   13        5.586008   0.000000
   14        6.879287   0.000000
   15        7.404515   0.000000
   16        8.404077   0.000000
 
 -0.1428571E+00  0.1250000E+00  0.3677614E-15  0.2976190E-02
    1      -11.988726   1.000000
    2       -9.952621   1.000000
    3       -8.659032   1.000000
    4       -8.164485   1.000000
    5       -7.519569   1.000000
    6       -6.618572   1.000000
    7       -5.795872   1.000000
    8        1.796320   0.000000
    9        3.229600   0.000000
   10        4.234804   0.000000
   11        4.487222   0.000000
   12        5.107670   0.000000
   13        5.939593   0.000000
   14        7.438721   0.000000
   15        8.035537   0.000000
   16        8.825132   0.000000
 
 -0.7142857E-01  0.1250000E+00  0.3608225E-15  0.2976190E-02
    1      -12.252870   1.000000
    2      -10.173259   1.000000
    3       -8.831160   1.000000
    4       -8.310634   1.000000
    5       -7.639801   1.000000
    6       -6.714016   1.000000
    7       -5.757321   1.000000
    8        3.061632   0.000000
    9        3.763027   0.000000
   10        4.331664   0.000000
   11        4.530860   0.000000
   12        5.139752   0.000000
   13        6.022584   0.000000
   14        7.569787   0.000000
   15        8.842447   0.000000
   16        9.434876   0.000000
 
  0.3738329E-15  0.2500000E+00  0.4163336E-15  0.2976190E-02
    1      -12.207313   1.000000
    2      -10.285298   1.000000
    3       -9.144495   1.000000
    4       -8.357507   1.000000
    5       -7.970852   1.000000
    6       -6.556974   1.000000
    7       -5.483622   1.000000
    8        3.145326   0.000000
    9        4.116951   0.000000
   10        4.297649   0.000000
   11        5.210944   0.000000
   12        6.392379   0.000000
   13        6.612783   0.000000
   14        6.725502   0.000000
   15        8.285833   0.000000
   16        9.017357   0.000000
 
  0.7142857E-01  0.2500000E+00  0.3469447E-15  0.2976190E-02
    1      -12.124703   1.000000
    2      -10.206645   1.000000
    3       -9.072045   1.000000
    4       -8.303354   1.000000
    5       -7.922300   1.000000
    6       -6.545868   1.000000
    7       -5.484864   1.000000
    8        3.186704   0.000000
    9        3.832203   0.000000
   10        4.361553   0.000000
   11        4.553322   0.000000
   12        5.248183   0.000000
   13        6.391445   0.000000
   14        8.039017   0.000000
   15        8.494054   0.000000
   16        9.231365   0.000000
 
  0.1428571E+00  0.2500000E+00  0.3608225E-15  0.2976190E-02
    1      -11.868572   1.000000
    2       -9.981934   1.000000
    3       -8.882649   1.000000
    4       -8.156983   1.000000
    5       -7.786732   1.000000
    6       -6.500697   1.000000
    7       -5.523765   1.000000
    8        1.794966   0.000000
    9        3.388704   0.000000
   10        4.276249   0.000000
   11        4.574049   0.000000
   12        5.188774   0.000000
   13        6.168681   0.000000
   14        7.509368   0.000000
   15        7.955701   0.000000
   16        8.662582   0.000000
 
  0.2142857E+00  0.2500000E+00  0.3885781E-15  0.2976190E-02
    1      -11.440600   1.000000
    2       -9.610068   1.000000
    3       -8.585968   1.000000
    4       -7.926613   1.000000
    5       -7.580897   1.000000
    6       -6.445847   1.000000
    7       -5.606534   1.000000
    8       -0.281772   0.000000
    9        3.602998   0.000000
   10        4.304565   0.000000
   11        4.528825   0.000000
   12        5.055698   0.000000
   13        5.679126   0.000000
   14        6.530849   0.000000
   15        7.691937   0.000000
   16        8.145906   0.000000
 
  0.2857143E+00  0.2500000E+00  0.4163336E-15  0.2976190E-02
    1      -10.849301   1.000000
    2       -9.107681   1.000000
    3       -8.207719   1.000000
    4       -7.651892   1.000000
    5       -7.342359   1.000000
    6       -6.443249   1.000000
    7       -5.770168   1.000000
    8       -2.178672   1.050054
    9        3.591561   0.000000
   10        3.992382   0.000000
   11        4.309394   0.000000
   12        4.678968   0.000000
   13        5.296893   0.000000
   14        6.098165   0.000000
   15        7.411629   0.000000
   16        7.915369   0.000000
 
  0.3571429E+00  0.2500000E+00  0.3608225E-15  0.2976190E-02
    1      -10.131173   1.000000
    2       -8.494732   1.000000
    3       -7.809996   1.000000
    4       -7.390907   1.000000
    5       -7.143711   1.000000
    6       -6.553998   1.000000
    7       -5.984836   1.000000
    8       -3.862352   1.000000
    9        3.202484   0.000000
   10        3.351059   0.000000
   11        3.909727   0.000000
   12        4.329612   0.000000
   13        5.309512   0.000000
   14        6.281333   0.000000
   15        7.104950   0.000000
   16        7.828173   0.000000
 
  0.4285714E+00  0.2500000E+00  0.3608225E-15  0.2976190E-02
    1       -9.347591   1.000000
    2       -7.874920   1.000000
    3       -7.564178   1.000000
    4       -7.266608   1.000000
    5       -6.980528   1.000000
    6       -6.666826   1.000000
    7       -6.170548   1.000000
    8       -5.260793   1.000000
    9        2.724063   0.000000
   10        2.961936   0.000000
   11        3.331419   0.000000
   12        4.373753   0.000000
   13        5.497131   0.000000
   14        6.227080   0.000000
   15        7.057829   0.000000
   16        8.053822   0.000000
 
  0.5000000E+00  0.2500000E+00  0.3885781E-15  0.2976190E-02
    1       -8.806586   1.000000
    2       -7.933276   1.000000
    3       -7.380108   1.000000
    4       -7.234496   1.000000
    5       -6.850552   1.000000
    6       -6.544064   1.000000
    7       -6.278441   1.000000
    8       -6.014730   1.000000
    9        2.476065   0.000000
   10        2.740284   0.000000
   11        3.215026   0.000000
   12        4.596239   0.000000
   13        5.564739   0.000000
   14        6.074497   0.000000
   15        7.039819   0.000000
   16        8.560731   0.000000
 
 -0.4285714E+00  0.2500000E+00  0.3747003E-15  0.2976190E-02
    1       -9.265757   1.000000
    2       -7.993240   1.000000
    3       -7.591060   1.000000
    4       -7.202542   1.000000
    5       -7.007370   1.000000
    6       -6.793643   1.000000
    7       -6.099706   1.000000
    8       -5.176707   1.000000
    9        2.463865   0.000000
   10        2.903346   0.000000
   11        3.493520   0.000000
   12        4.838194   0.000000
   13        5.674995   0.000000
   14        6.117800   0.000000
   15        6.836859   0.000000
   16        7.810332   0.000000
 
 -0.3571429E+00  0.2500000E+00  0.3608225E-15  0.2976190E-02
    1      -10.058764   1.000000
    2       -8.579698   1.000000
    3       -7.906631   1.000000
    4       -7.362101   1.000000
    5       -7.079295   1.000000
    6       -6.641906   1.000000
    7       -5.973884   1.000000
    8       -3.786592   1.000000
    9        2.698623   0.000000
   10        3.453529   0.000000
   11        4.005085   0.000000
   12        4.873620   0.000000
   13        5.833417   0.000000
   14        6.263433   0.000000
   15        6.577058   0.000000
   16        7.641823   0.000000
 
 -0.2857143E+00  0.2500000E+00  0.3885781E-15  0.2976190E-02
    1      -10.794637   1.000000
    2       -9.167001   1.000000
    3       -8.301905   1.000000
    4       -7.645629   1.000000
    5       -7.307078   1.000000
    6       -6.419671   1.000000
    7       -5.813190   1.000000
    8       -2.120027   0.904414
    9        3.122630   0.000000
   10        4.163845   0.000000
   11        4.468185   0.000000
   12        4.722239   0.000000
   13        5.863303   0.000000
   14        6.372759   0.000000
   15        6.690888   0.000000
   16        8.123615   0.000000
 
 -0.2142857E+00  0.2500000E+00  0.3608225E-15  0.2976190E-02
    1      -11.395860   1.000000
    2       -9.648147   1.000000
    3       -8.656244   1.000000
    4       -7.924251   1.000000
    5       -7.559274   1.000000
    6       -6.396869   1.000000
    7       -5.643976   1.000000
    8       -0.238343   0.000000
    9        3.494461   0.000000
   10        4.103156   0.000000
   11        4.644642   0.000000
   12        5.284310   0.000000
   13        5.674894   0.000000
   14        6.865660   0.000000
   15        7.266406   0.000000
   16        8.578460   0.000000
 
 -0.1428571E+00  0.2500000E+00  0.3608225E-15  0.2976190E-02
    1      -11.836443   1.000000
    2      -10.002373   1.000000
    3       -8.928388   1.000000
    4       -8.155489   1.000000
    5       -7.777277   1.000000
    6       -6.456957   1.000000
    7       -5.539293   1.000000
    8        1.832669   0.000000
    9        3.430074   0.000000
   10        4.107338   0.000000
   11        4.572256   0.000000
   12        5.275889   0.000000
   13        6.176675   0.000000
   14        7.501369   0.000000
   15        8.050771   0.000000
   16        9.002029   0.000000
 
 -0.7142857E-01  0.2500000E+00  0.3747003E-15  0.2976190E-02
    1      -12.109865   1.000000
    2      -10.217266   1.000000
    3       -9.095266   1.000000
    4       -8.304535   1.000000
    5       -7.920067   1.000000
    6       -6.523355   1.000000
    7       -5.495443   1.000000
    8        3.231181   0.000000
    9        3.885911   0.000000
   10        4.202756   0.000000
   11        4.573341   0.000000
   12        5.269102   0.000000
   13        6.387159   0.000000
   14        8.008150   0.000000
   15        8.713891   0.000000
   16        9.410072   0.000000
 
  0.3742666E-15  0.3750000E+00  0.3608225E-15  0.2976190E-02
    1      -12.035402   1.000000
    2      -10.318120   1.000000
    3       -9.496963   1.000000
    4       -8.473183   1.000000
    5       -7.860476   1.000000
    6       -6.554748   1.000000
    7       -5.247801   1.000000
    8        3.276679   0.000000
    9        4.090899   0.000000
   10        4.736953   0.000000
   11        5.354119   0.000000
   12        6.480232   0.000000
   13        6.653063   0.000000
   14        6.896555   0.000000
   15        8.393126   0.000000
   16        8.871627   0.000000
 
  0.7142857E-01  0.3750000E+00  0.3330669E-15  0.2976190E-02
    1      -11.953111   1.000000
    2      -10.243190   1.000000
    3       -9.427555   1.000000
    4       -8.419412   1.000000
    5       -7.822118   1.000000
    6       -6.534838   1.000000
    7       -5.262088   1.000000
    8        3.313550   0.000000
    9        4.013565   0.000000
   10        4.220166   0.000000
   11        4.892279   0.000000
   12        5.395091   0.000000
   13        6.651599   0.000000
   14        8.125325   0.000000
   15        8.509540   0.000000
   16        8.958527   0.000000
 
  0.1428571E+00  0.3750000E+00  0.3053113E-15  0.2976190E-02
    1      -11.692024   1.000000
    2      -10.028698   1.000000
    3       -9.234836   1.000000
    4       -8.268056   1.000000
    5       -7.691290   1.000000
    6       -6.489229   1.000000
    7       -5.313409   1.000000
    8        1.826431   0.000000
    9        3.521132   0.000000
   10        4.207965   0.000000
   11        4.841012   0.000000
   12        5.427043   0.000000
   13        6.392457   0.000000
   14        7.485975   0.000000
   15        7.977931   0.000000
   16        8.536990   0.000000
 
  0.2142857E+00  0.3750000E+00  0.3330669E-15  0.2976190E-02
    1      -11.254223   1.000000
    2       -9.676195   1.000000
    3       -8.931293   1.000000
    4       -8.035073   1.000000
    5       -7.488521   1.000000
    6       -6.438255   1.000000
    7       -5.421731   1.000000
    8       -0.275589   0.000000
    9        3.735824   0.000000
   10        4.196286   0.000000
   11        4.555884   0.000000
   12        5.407008   0.000000
   13        5.933745   0.000000
   14        6.632822   0.000000
   15        7.479283   0.000000
   16        8.143064   0.000000
 
  0.2857143E+00  0.3750000E+00  0.3608225E-15  0.2976190E-02
    1      -10.646823   1.000000
    2       -9.200798   1.000000
    3       -8.530240   1.000000
    4       -7.753512   1.000000
    5       -7.243992   1.000000
    6       -6.427291   1.000000
    7       -5.625443   1.000000
    8       -2.190244   1.042547
    9        3.551989   0.000000
   10        3.832671   0.000000
   11        4.439523   0.000000
   12        4.868771   0.000000
   13        5.644307   0.000000
   14        6.325597   0.000000
   15        7.215289   0.000000
   16        7.901997   0.000000
 
  0.3571429E+00  0.3750000E+00  0.3330669E-15  0.2976190E-02
    1       -9.906942   1.000000
    2       -8.632368   1.000000
    3       -8.075436   1.000000
    4       -7.490623   1.000000
    5       -7.030361   1.000000
    6       -6.508893   1.000000
    7       -5.924056   1.000000
    8       -3.889969   1.000000
    9        3.047090   0.000000
   10        3.201948   0.000000
   11        3.960701   0.000000
   12        4.797170   0.000000
   13        5.478097   0.000000
   14        6.408794   0.000000
   15        7.120864   0.000000
   16        7.802045   0.000000
 
  0.4285714E+00  0.3750000E+00  0.3330669E-15  0.2976190E-02
    1       -9.112425   1.000000
    2       -8.061334   1.000000
    3       -7.630341   1.000000
    4       -7.366590   1.000000
    5       -6.910479   1.000000
    6       -6.674229   1.000000
    7       -6.227937   1.000000
    8       -5.285090   1.000000
    9        2.550999   0.000000
   10        2.859219   0.000000
   11        3.351550   0.000000
   12        4.813193   0.000000
   13        5.644246   0.000000
   14        6.285827   0.000000
   15        7.172386   0.000000
   16        8.044357   0.000000
 
  0.5000000E+00  0.3750000E+00  0.3608225E-15  0.2976190E-02
    1       -8.580691   1.000000
    2       -7.821487   1.000000
    3       -7.568395   1.000000
    4       -7.251587   1.000000
    5       -6.965084   1.000000
    6       -6.608206   1.000000
    7       -6.413948   1.000000
    8       -5.941580   1.000000
    9        2.325372   0.000000
   10        2.701087   0.000000
   11        3.192734   0.000000
   12        4.889233   0.000000
   13        5.713010   0.000000
   14        6.284659   0.000000
   15        7.064351   0.000000
   16        8.564990   0.000000
 
 -0.4285714E+00  0.3750000E+00  0.3053113E-15  0.2976190E-02
    1       -9.012740   1.000000
    2       -8.185451   1.000000
    3       -7.672601   1.000000
    4       -7.314941   1.000000
    5       -6.896831   1.000000
    6       -6.764665   1.000000
    7       -6.178330   1.000000
    8       -5.222195   1.000000
    9        2.390249   0.000000
   10        2.807284   0.000000
   11        3.502257   0.000000
   12        5.063916   0.000000
   13        5.785642   0.000000
   14        6.269053   0.000000
   15        6.867425   0.000000
   16        8.278912   0.000000
 
 -0.3571429E+00  0.3750000E+00  0.3330669E-15  0.2976190E-02
    1       -9.830495   1.000000
    2       -8.731435   1.000000
    3       -8.125770   1.000000
    4       -7.488801   1.000000
    5       -6.930414   1.000000
    6       -6.599925   1.000000
    7       -5.926776   1.000000
    8       -3.831611   1.000000
    9        2.690242   0.000000
   10        3.306553   0.000000
   11        4.051315   0.000000
   12        5.290319   0.000000
   13        5.602266   0.000000
   14        6.268065   0.000000
   15        7.023680   0.000000
   16        7.902701   0.000000
 
 -0.2857143E+00  0.3750000E+00  0.3608225E-15  0.2976190E-02
    1      -10.590792   1.000000
    2       -9.264683   1.000000
    3       -8.581648   1.000000
    4       -7.766738   1.000000
    5       -7.175490   1.000000
    6       -6.443796   1.000000
    7       -5.648294   1.000000
    8       -2.144785   1.018511
    9        3.186932   0.000000
   10        3.988202   0.000000
   11        4.474731   0.000000
   12        5.055661   0.000000
   13        6.016757   0.000000
   14        6.394196   0.000000
   15        7.054163   0.000000
   16        7.990393   0.000000
 
 -0.2142857E+00  0.3750000E+00  0.3608225E-15  0.2976190E-02
    1      -11.209642   1.000000
    2       -9.713952   1.000000
    3       -8.969499   1.000000
    4       -8.046518   1.000000
    5       -7.435698   1.000000
    6       -6.430851   1.000000
    7       -5.440022   1.000000
    8       -0.244555   0.000000
    9        3.692978   0.000000
   10        4.077628   0.000000
   11        4.525406   0.000000
   12        5.539696   0.000000
   13        6.247281   0.000000
   14        6.709377   0.000000
   15        7.322736   0.000000
   16        8.384413   0.000000
 
 -0.1428571E+00  0.3750000E+00  0.3330669E-15  0.2976190E-02
    1      -11.659526   1.000000
    2      -10.048317   1.000000
    3       -9.261924   1.000000
    4       -8.274892   1.000000
    5       -7.655331   1.000000
    6       -6.478261   1.000000
    7       -5.317847   1.000000
    8        1.849695   0.000000
    9        3.648185   0.000000
   10        4.034539   0.000000
   11        4.695226   0.000000
   12        5.593723   0.000000
   13        6.635732   0.000000
   14        7.226599   0.000000
   15        8.014457   0.000000
   16        8.905117   0.000000
 
 -0.7142857E-01  0.3750000E+00  0.3053113E-15  0.2976190E-02
    1      -11.942883   1.000000
    2      -10.255471   1.000000
    3       -9.445256   1.000000
    4       -8.427117   1.000000
    5       -7.807398   1.000000
    6       -6.535177   1.000000
    7       -5.270033   1.000000
    8        3.369738   0.000000
    9        4.053039   0.000000
   10        4.121799   0.000000
   11        4.822827   0.000000
   12        5.458462   0.000000
   13        6.701154   0.000000
   14        8.007671   0.000000
   15        8.514417   0.000000
   16        9.366467   0.000000
 
  0.3747003E-15  0.5000000E+00  0.3608225E-15  0.1488095E-02
    1      -11.946314   1.000000
    2      -10.334602   1.000000
    3       -9.650972   1.000000
    4       -8.548568   1.000000
    5       -7.741854   1.000000