unknown system                          
           1
     4.185393    0.580286   -0.117883
     1.390519    4.717372   -0.015903
     2.040336    1.876659    6.291353
   Sr   Nb   H 
   1   2   9
Direct configuration=     1
   0.62817900  0.79167900  0.58599300
   0.83329300  0.99819800  0.97400700
   0.39888900  0.66269500  0.16846000
   0.98927200  0.00326400  0.20392900
   0.61185000  0.42686000  0.95667000
   0.04880800  0.73356400  0.80104300
   0.37377100  0.99115700  0.90547600
   0.25092400  0.68111700  0.44391000
   0.47982000  0.29288100  0.36572600
   0.87224200  0.21021300  0.68661200
   0.93012400  0.59807500  0.16546500
   0.45231200  0.99781200  0.20714800
unknown system                          
           1
     4.224321    0.587789   -0.119476
     1.405722    4.761834   -0.016897
     2.059413    1.894160    6.346662
   Sr   Nb   H 
   1   2   9
Direct configuration=     2
   0.62814685  0.79181201  0.58596943
   0.83387155  0.99770210  0.97356792
   0.39807719  0.66326510  0.16934338
   0.98966100  0.00246711  0.20392146
   0.61208378  0.42691439  0.95679743
   0.04826799  0.73442904  0.80126456
   0.37352141  0.99106937  0.90554835
   0.25147437  0.68066541  0.44355530
   0.48007372  0.29326391  0.36524204
   0.87196901  0.21024111  0.68684357
   0.93025505  0.59844456  0.16534644
   0.45208208  0.99724091  0.20703911
unknown system                          
           1
     4.248629    0.592474   -0.120472
     1.415216    4.789598   -0.017517
     2.071326    1.905089    6.381198
   Sr   Nb   H 
   1   2   9
Direct configuration=     3
   0.62812691  0.79189430  0.58595486
   0.83422975  0.99739520  0.97329612
   0.39757458  0.66361792  0.16989018
   0.98990198  0.00197404  0.20391676
   0.61222839  0.42694794  0.95687632
   0.04793353  0.73496430  0.80140173
   0.37336700  0.99101523  0.90559312
   0.25181511  0.68038592  0.44333575
   0.48023064  0.29350075  0.36494252
   0.87180006  0.21025855  0.68698690
   0.93033603  0.59867314  0.16527309
   0.45194003  0.99688771  0.20697165
unknown system                          
           1
     4.242729    0.593784   -0.120513
     1.415490    4.785911   -0.008758
     2.066728    1.916688    6.359011
   Sr   Nb   H 
   1   2   9
Direct configuration=     4
   0.62803950  0.79192098  0.58610849
   0.83326224  0.99472289  0.97632702
   0.39765322  0.66694494  0.16760465
   0.99042851  0.00040333  0.20277988
   0.61270276  0.42592342  0.95791236
   0.04677221  0.73682139  0.80196792
   0.37334875  0.98951416  0.90672675
   0.25229426  0.68030184  0.44270545
   0.48019684  0.29515667  0.36375755
   0.87127526  0.20948359  0.68859933
   0.92996587  0.60085462  0.16433302
   0.45354457  0.99546717  0.20561658
unknown system                          
           1
     4.243739    0.593560   -0.120506
     1.415443    4.786542   -0.010258
     2.067515    1.914702    6.362811
   Sr   Nb   H 
   1   2   9
Direct configuration=     5
   0.62805447  0.79191650  0.58608209
   0.83342790  0.99518307  0.97580554
   0.39763990  0.66637292  0.16799820
   0.99033838  0.00067195  0.20297488
   0.61262131  0.42609983  0.95773407
   0.04697127  0.73650323  0.80187107
   0.37335179  0.98977231  0.90653158
   0.25221216  0.68031587  0.44281374
   0.48020273  0.29487193  0.36396158
   0.87136510  0.20961751  0.68832206
   0.93002940  0.60047990  0.16449509
   0.45326957  0.99570998  0.20584910
unknown system                          
           1
     4.247587    0.597243   -0.121565
     1.419939    4.793722   -0.008137
     2.068111    1.922136    6.351790
   Sr   Nb   H 
   1   2   9
Direct configuration=     6
   0.62790525  0.79200252  0.58631715
   0.83275015  0.99680551  0.97527748
   0.39819965  0.66533920  0.16790875
   0.99063021 -0.00061357  0.20234959
   0.61306719  0.42502729  0.95908661
   0.04567826  0.73827266  0.80269086
   0.37330081  0.98876854  0.90715651
   0.25288486  0.68027860  0.44188903
   0.48032431  0.29669649  0.36248721
   0.87065977  0.20878274  0.69017388
   0.93005489  0.60150559  0.16398986
   0.45402865  0.99464944  0.20511208
unknown system                          
           1
     4.249557    0.599129   -0.122107
     1.422241    4.797400   -0.007050
     2.068416    1.925944    6.346146
   Sr   Nb   H 
   1   2   9
Direct configuration=     7
   0.62782884  0.79204630  0.58643771
   0.83240298  0.99763622  0.97500623
   0.39848637  0.66481035  0.16786308
   0.99077994 -0.00127050  0.20202904
   0.61329547  0.42447700  0.95978073
   0.04501601  0.73917725  0.80311104
   0.37327488  0.98825444  0.90747729
   0.25322926  0.68026033  0.44141467
   0.48038629  0.29763135  0.36173049
   0.87029875  0.20835393  0.69112403
   0.93006775  0.60203078  0.16373048
   0.45441747  0.99410754  0.20473421
unknown system                          
           1
     4.254467    0.603973   -0.123541
     1.426841    4.815464   -0.005947
     2.069581    1.936302    6.352467
   Sr   Nb   H 
   1   2   9
Direct configuration=     8
   0.62765432  0.79220620  0.58660576
   0.83216486  0.99758632  0.97542364
   0.39844733  0.66557142  0.16723952
   0.99115736 -0.00275852  0.20157351
   0.61381537  0.42358072  0.96106661
   0.04372564  0.74115197  0.80374460
   0.37317557  0.98765802  0.90764303
   0.25388651  0.68003433  0.44077591
   0.48097846  0.29817057  0.36072319
   0.86942975  0.20840132  0.69231075
   0.93020609  0.60302763  0.16317476
   0.45484273  0.99288502  0.20415772
unknown system                          
           1
     4.269198    0.618506   -0.127843
     1.440639    4.869656   -0.002639
     2.073076    1.967374    6.371429
   Sr   Nb   H 
   1   2   9
Direct configuration=     9
   0.62713178  0.79268368  0.58710921
   0.83145215  0.99743556  0.97667452
   0.39832933  0.66784973  0.16537027
   0.99228634 -0.00720456  0.20020928
   0.61537616  0.42089319  0.96492125
   0.03986116  0.74705436  0.80564162
   0.37287790  0.98587478  0.90813999
   0.25585470  0.67936050  0.43886202
   0.48275122  0.29978609  0.35770435
   0.86682815  0.20853887  0.69586685
   0.93062009  0.60600977  0.16150880
   0.45611500  0.98923303  0.20243083
unknown system                          
           1
     4.272797    0.623336   -0.128544
     1.443307    4.897989   -0.001001
     2.074719    1.981628    6.397496
   Sr   Nb   H 
   1   2   9
Direct configuration=    10
   0.62689620  0.79290610  0.58723283
   0.83014826  0.99779670  0.97715002
   0.39942474  0.66702810  0.16550928
   0.99244298 -0.00849899  0.20034271
   0.61603547  0.42015962  0.96615165
   0.03897057  0.74886882  0.80578318
   0.37268584  0.98597473  0.90763128
   0.25645433  0.67906542  0.43844414
   0.48370197  0.29961025  0.35679036
   0.86575809  0.20973627  0.69628083
   0.93100173  0.60675637  0.16086280
   0.45596381  0.98811160  0.20225993
unknown system                          
           1
     4.273524    0.624311   -0.128686
     1.443846    4.903712   -0.000670
     2.075051    1.984507    6.402762
   Sr   Nb   H 
   1   2   9
Direct configuration=    11
   0.62684876  0.79295078  0.58725769
   0.82988532  0.99786933  0.97724564
   0.39964572  0.66686284  0.16553731
   0.99247428 -0.00875901  0.20036962
   0.61616889  0.42001180  0.96639925
   0.03879136  0.74923333  0.80581156
   0.37264688  0.98599500  0.90752892
   0.25657512  0.67900617  0.43836009
   0.48389348  0.29957504  0.35660649
   0.86554259  0.20997681  0.69636404
   0.93107872  0.60690643  0.16073280
   0.45593288  0.98788647  0.20222559
