   17   17   60    1
  0.6022545E+01  0.2781496E-09  0.4644311E-09  0.8171236E-09  0.5000000E-15
  1.000000000000000E-004
  CAR 
 unknown system                          
     17    338     20
 
  0.3742002E-15  0.3742002E-15  0.3742002E-15  0.1481481E-02
    1      -12.463477   1.000000
    2      -10.666924   1.000000
    3       -9.746807   1.000000
    4       -8.213719   1.000000
    5       -6.984535   1.000000
    6       -6.786927   1.000000
    7       -6.566091   1.000000
    8       -6.547990   1.000000
    9        2.541208   0.000000
   10        2.946975   0.000000
   11        3.496993   0.000000
   12        4.822874   0.000000
   13        5.368713   0.000000
   14        7.144681   0.000000
   15        7.350218   0.000000
   16        8.241348   0.000000
   17        8.265153   0.000000
   18        9.658251   0.000000
   19       10.483134   0.000000
   20       11.424220   0.000000
 
  0.6666667E-01  0.3771939E-15  0.3751340E-15  0.2962963E-02
    1      -12.380336   1.000000
    2      -10.597144   1.000000
    3       -9.683283   1.000000
    4       -8.167905   1.000000
    5       -6.981596   1.000000
    6       -6.761328   1.000000
    7       -6.537603   1.000000
    8       -6.505893   1.000000
    9        2.620171   0.000000
   10        3.020119   0.000000
   11        3.540949   0.000000
   12        4.642104   0.000000
   13        5.054501   0.000000
   14        5.562095   0.000000
   15        7.630397   0.000000
   16        8.128465   0.000000
   17        9.476272   0.000000
   18        9.962240   0.000000
   19       10.238443   0.000000
   20       10.767152   0.000000
 
  0.1333333E+00  0.3798502E-15  0.3755676E-15  0.2962963E-02
    1      -12.131945   1.000000
    2      -10.387221   1.000000
    3       -9.502843   1.000000
    4       -8.036682   1.000000
    5       -6.963021   1.000000
    6       -6.679450   1.000000
    7       -6.499685   1.000000
    8       -6.370258   1.000000
    9        2.443250   0.000000
   10        2.913496   0.000000
   11        3.270462   0.000000
   12        3.878124   0.000000
   13        4.882147   0.000000
   14        5.469408   0.000000
   15        6.955116   0.000000
   16        7.681608   0.000000
   17        8.727578   0.000000
   18        9.213802   0.000000
   19        9.975693   0.000000
   20       10.362730   0.000000
 
  0.2000000E+00  0.3913428E-15  0.3781697E-15  0.2962963E-02
    1      -11.721987   1.000000
    2      -10.044373   1.000000
    3       -9.209844   1.000000
    4       -7.833773   1.000000
    5       -6.902511   1.000000
    6       -6.564580   1.000000
    7       -6.455324   1.000000
    8       -6.212776   1.000000
    9        0.469208   0.000000
   10        3.193257   0.000000
   11        3.590295   0.000000
   12        4.051006   0.000000
   13        4.559650   0.000000
   14        5.463240   0.000000
   15        6.207384   0.000000
   16        6.819477   0.000000
   17        7.705626   0.000000
   18        8.213159   0.000000
   19        8.981243   0.000000
   20        9.874447   0.000000
 
  0.2666667E+00  0.3958422E-15  0.3781697E-15  0.2962963E-02
    1      -11.159033   1.000000
    2       -9.577909   1.000000
    3       -8.828230   1.000000
    4       -7.584022   1.000000
    5       -6.810601   1.000000
    6       -6.502448   1.000000
    7       -6.370539   1.000000
    8       -6.080968   1.000000
    9       -1.419932   0.379286
   10        3.337773   0.000000
   11        3.674187   0.000000
   12        4.016501   0.000000
   13        4.176220   0.000000
   14        5.273630   0.000000
   15        5.783566   0.000000
   16        6.075399   0.000000
   17        7.013256   0.000000
   18        7.527231   0.000000
   19        8.180578   0.000000
   20        9.364058   0.000000
 
  0.3333333E+00  0.3864097E-15  0.3816392E-15  0.2962963E-02
    1      -10.460531   1.000000
    2       -9.008882   1.000000
    3       -8.394415   1.000000
    4       -7.340728   1.000000
    5       -6.751439   1.000000
    6       -6.518042   1.000000
    7       -6.246692   1.000000
    8       -6.017434   1.000000
    9       -3.121282   1.000000
   10        2.797953   0.000000
   11        3.228064   0.000000
   12        3.779560   0.000000
   13        4.143853   0.000000
   14        4.784880   0.000000
   15        5.655632   0.000000
   16        6.056974   0.000000
   17        6.591291   0.000000
   18        7.431289   0.000000
   19        8.171759   0.000000
   20        8.731575   0.000000
 
  0.4000000E+00  0.3924812E-15  0.3816392E-15  0.2962963E-02
    1       -9.672795   1.000000
    2       -8.394666   1.000000
    3       -7.981825   1.000000
    4       -7.242197   1.000000
    5       -6.817162   1.000000
    6       -6.430542   1.000000
    7       -6.202981   1.000000
    8       -6.008249   1.000000
    9       -4.576439   1.000000
   10        2.209349   0.000000
   11        2.738313   0.000000
   12        3.493531   0.000000
   13        3.769057   0.000000
   14        4.345468   0.000000
   15        5.556833   0.000000
   16        6.283398   0.000000
   17        6.685084   0.000000
   18        7.958491   0.000000
   19        8.338304   0.000000
   20        9.034306   0.000000
 
  0.4666667E+00  0.4248988E-15  0.3816392E-15  0.2962963E-02
    1       -8.923811   1.000000
    2       -8.127216   1.000000
    3       -7.631160   1.000000
    4       -7.263274   1.000000
    5       -6.870887   1.000000
    6       -6.327984   1.000000
    7       -6.228769   1.000000
    8       -5.983522   1.000000
    9       -5.651371   1.000000
   10        1.877746   0.000000
   11        2.455332   0.000000
   12        3.332541   0.000000
   13        3.486703   0.000000
   14        4.060803   0.000000
   15        5.249102   0.000000
   16        6.426034   0.000000
   17        7.285016   0.000000
   18        8.415306   0.000000
   19        8.766776   0.000000
   20        9.717690   0.000000
 
  0.3739041E-15  0.1111111E+00  0.3764350E-15  0.2962963E-02
    1      -12.413366   1.000000
    2      -10.615710   1.000000
    3       -9.683011   1.000000
    4       -8.337957   1.000000
    5       -7.325945   1.000000
    6       -6.877937   1.000000
    7       -6.615287   1.000000
    8       -6.292354   1.000000
    9        2.787663   0.000000
   10        3.017681   0.000000
   11        3.693607   0.000000
   12        4.873904   0.000000
   13        5.662660   0.000000
   14        7.089245   0.000000
   15        7.343486   0.000000
   16        8.023357   0.000000
   17        8.283790   0.000000
   18        9.096967   0.000000
   19       11.115635   0.000000
   20       11.387955   0.000000
 
  0.6666667E-01  0.1111111E+00  0.3781697E-15  0.2962963E-02
    1      -12.306289   1.000000
    2      -10.522491   1.000000
    3       -9.591186   1.000000
    4       -8.353968   1.000000
    5       -7.402891   1.000000
    6       -6.886473   1.000000
    7       -6.626560   1.000000
    8       -6.206988   1.000000
    9        2.958645   0.000000
   10        3.127904   0.000000
   11        3.784490   0.000000
   12        4.702829   0.000000
   13        5.130026   0.000000
   14        5.887569   0.000000
   15        7.530826   0.000000
   16        7.959356   0.000000
   17        8.984454   0.000000
   18        9.917496   0.000000
   19       10.644255   0.000000
   20       10.688044   0.000000
 
  0.1333333E+00  0.1111111E+00  0.3747003E-15  0.2962963E-02
    1      -12.032151   1.000000
    2      -10.290124   1.000000
    3       -9.379957   1.000000
    4       -8.280597   1.000000
    5       -7.397224   1.000000
    6       -6.841983   1.000000
    7       -6.595468   1.000000
    8       -6.100979   1.000000
    9        2.396977   0.000000
   10        3.283686   0.000000
   11        3.439895   0.000000
   12        4.178564   0.000000
   13        5.168999   0.000000
   14        5.627769   0.000000
   15        7.021658   0.000000
   16        7.551698   0.000000
   17        8.551818   0.000000
   18        9.354409   0.000000
   19        9.682255   0.000000
   20       10.583428   0.000000
 
  0.2000000E+00  0.1111111E+00  0.3764350E-15  0.2962963E-02
    1      -11.596073   1.000000
    2       -9.928169   1.000000
    3       -9.061161   1.000000
    4       -8.127894   1.000000
    5       -7.307966   1.000000
    6       -6.764463   1.000000
    7       -6.540894   1.000000
    8       -6.000250   1.000000
    9        0.410814   0.000000
   10        3.533181   0.000000
   11        3.788420   0.000000
   12        4.225634   0.000000
   13        4.854183   0.000000
   14        5.556195   0.000000
   15        6.442861   0.000000
   16        6.844554   0.000000
   17        7.968568   0.000000
   18        8.303879   0.000000
   19        9.009388   0.000000
   20        9.832672   0.000000
 
  0.2666667E+00  0.1111111E+00  0.3781697E-15  0.2962963E-02
    1      -11.005060   1.000000
    2       -9.449762   1.000000
    3       -8.660399   1.000000
    4       -7.918041   1.000000
    5       -7.152798   1.000000
    6       -6.709328   1.000000
    7       -6.466851   1.000000
    8       -5.934773   1.000000
    9       -1.463657   0.814599
   10        3.402191   0.000000
   11        3.825233   0.000000
   12        4.127165   0.000000
   13        4.358026   0.000000
   14        5.395310   0.000000
   15        6.185734   0.000000
   16        6.278175   0.000000
   17        7.360201   0.000000
   18        7.810841   0.000000
   19        8.727450   0.000000
   20        9.433689   0.000000
 
  0.3333333E+00  0.1111111E+00  0.3677614E-15  0.2962963E-02
    1      -10.279288   1.000000
    2       -8.879805   1.000000
    3       -8.220668   1.000000
    4       -7.694871   1.000000
    5       -6.998526   1.000000
    6       -6.722286   1.000000
    7       -6.359702   1.000000
    8       -5.931813   1.000000
    9       -3.143222   1.000000
   10        2.824311   0.000000
   11        3.188491   0.000000
   12        3.756019   0.000000
   13        4.300503   0.000000
   14        4.996809   0.000000
   15        5.915211   0.000000
   16        6.314156   0.000000
   17        7.026659   0.000000
   18        7.890725   0.000000
   19        8.797391   0.000000
   20        9.393291   0.000000
 
  0.4000000E+00  0.1111111E+00  0.3781697E-15  0.2962963E-02
    1       -9.464937   1.000000
    2       -8.272251   1.000000
    3       -7.868070   1.000000
    4       -7.519870   1.000000
    5       -7.054035   1.000000
    6       -6.586724   1.000000
    7       -6.288110   1.000000
    8       -5.974471   1.000000
    9       -4.570282   1.000000
   10        2.272240   0.000000
   11        2.644800   0.000000
   12        3.416594   0.000000
   13        3.886710   0.000000
   14        4.540351   0.000000
   15        5.683632   0.000000
   16        6.418970   0.000000
   17        7.099029   0.000000
   18        8.540333   0.000000
   19        8.705178   0.000000
   20       10.011322   0.000000
 
  0.4666667E+00  0.1111111E+00  0.3781697E-15  0.2962963E-02
    1       -8.756737   1.000000
    2       -8.130674   1.000000
    3       -7.590668   1.000000
    4       -7.329146   1.000000
    5       -7.027312   1.000000
    6       -6.398437   1.000000
    7       -6.311017   1.000000
    8       -5.956880   1.000000
    9       -5.627802   1.000000
   10        1.916545   0.000000
   11        2.432548   0.000000
   12        3.247577   0.000000
   13        3.600020   0.000000
   14        4.164814   0.000000
   15        5.354336   0.000000
   16        6.413269   0.000000
   17        7.462762   0.000000
   18        8.515735   0.000000
   19        9.049380   0.000000
   20        9.586944   0.000000
 
 -0.4666667E+00  0.1111111E+00  0.3608225E-15  0.2962963E-02
    1       -9.019670   1.000000
    2       -8.074923   1.000000
    3       -7.698509   1.000000
    4       -7.175959   1.000000
    5       -6.699880   1.000000
    6       -6.371510   1.000000
    7       -6.270647   1.000000
    8       -6.007186   1.000000
    9       -5.649478   1.000000
   10        1.869817   0.000000
   11        2.526799   0.000000
   12        3.310488   0.000000
   13        3.586200   0.000000
   14        4.030729   0.000000
   15        5.357094   0.000000
   16        6.264591   0.000000
   17        7.106258   0.000000
   18        8.021932   0.000000
   19        8.441463   0.000000
   20        9.193745   0.000000
 
 -0.4000000E+00  0.1111111E+00  0.3712308E-15  0.2962963E-02
    1       -9.781900   1.000000
    2       -8.462868   1.000000
    3       -8.057075   1.000000
    4       -7.048940   1.000000
    5       -6.548602   1.000000
    6       -6.442831   1.000000
    7       -6.244578   1.000000
    8       -6.008413   1.000000
    9       -4.590516   1.000000
   10        2.156151   0.000000
   11        2.883552   0.000000
   12        3.596883   0.000000
   13        3.836350   0.000000
   14        4.190628   0.000000
   15        5.581381   0.000000
   16        6.067912   0.000000
   17        6.386034   0.000000
   18        7.432116   0.000000
   19        7.868809   0.000000
   20        8.494080   0.000000
 
 -0.3333333E+00  0.1111111E+00  0.3729655E-15  0.2962963E-02
    1      -10.547246   1.000000
    2       -9.072068   1.000000
    3       -8.469375   1.000000
    4       -7.164297   1.000000
    5       -6.578556   1.000000
    6       -6.395338   1.000000
    7       -6.249241   1.000000
    8       -6.068114   1.000000
    9       -3.115039   1.000000
   10        2.720227   0.000000
   11        3.385356   0.000000
   12        3.914437   0.000000
   13        4.177511   0.000000
   14        4.681223   0.000000
   15        5.410664   0.000000
   16        5.809550   0.000000
   17        6.349545   0.000000
   18        7.144886   0.000000
   19        7.643490   0.000000
   20        8.521234   0.000000
 
 -0.2666667E+00  0.1111111E+00  0.3729655E-15  0.2962963E-02
    1      -11.216746   1.000000
    2       -9.624027   1.000000
    3       -8.885455   1.000000
    4       -7.462844   1.000000
    5       -6.635801   1.000000
    6       -6.428349   1.000000
    7       -6.314858   1.000000
    8       -6.177979   1.000000
    9       -1.404500   0.230295
   10        3.304493   0.000000
   11        3.618010   0.000000
   12        3.951619   0.000000
   13        4.378886   0.000000
   14        5.287874   0.000000
   15        5.578549   0.000000
   16        5.876376   0.000000
   17        6.708372   0.000000
   18        7.404408   0.000000
   19        7.920971   0.000000
   20        9.142740   0.000000
 
 -0.2000000E+00  0.1111111E+00  0.3720982E-15  0.2962963E-02
    1      -11.752838   1.000000
    2      -10.069576   1.000000
    3       -9.239222   1.000000
    4       -7.774164   1.000000
    5       -6.784575   1.000000
    6       -6.554123   1.000000
    7       -6.386070   1.000000
    8       -6.287234   1.000000
    9        0.486894   0.000000
   10        3.167884   0.000000
   11        3.549658   0.000000
   12        3.954151   0.000000
   13        4.589141   0.000000
   14        5.640107   0.000000
   15        6.096997   0.000000
   16        6.728035   0.000000
   17        7.480528   0.000000
   18        8.044256   0.000000
   19        8.822304   0.000000
   20        9.713271   0.000000
 
 -0.1333333E+00  0.1111111E+00  0.3749171E-15  0.2962963E-02
    1      -12.134275   1.000000
    2      -10.385927   1.000000
    3       -9.501279   1.000000
    4       -8.035558   1.000000
    5       -6.979221   1.000000
    6       -6.697031   1.000000
    7       -6.471754   1.000000
    8       -6.344600   1.000000
    9        2.453258   0.000000
   10        2.956991   0.000000
   11        3.263619   0.000000
   12        3.868954   0.000000
   13        4.811444   0.000000
   14        5.757100   0.000000
   15        6.863733   0.000000
   16        7.624007   0.000000
   17        8.523883   0.000000
   18        8.917194   0.000000
   19        9.975738   0.000000
   20       10.367218   0.000000
 
 -0.6666667E-01  0.1111111E+00  0.3753508E-15  0.2962963E-02
    1      -12.355490   1.000000
    2      -10.571076   1.000000
    3       -9.652561   1.000000
    4       -8.228779   1.000000
    5       -7.174502   1.000000
    6       -6.813875   1.000000
    7       -6.560027   1.000000
    8       -6.346202   1.000000
    9        2.752256   0.000000
   10        3.055098   0.000000
   11        3.636228   0.000000
   12        4.644049   0.000000
   13        5.094451   0.000000
   14        5.785686   0.000000
   15        7.526793   0.000000
   16        8.128179   0.000000
   17        8.931203   0.000000
   18        9.904444   0.000000
   19       10.261935   0.000000
   20       11.066937   0.000000
 
  0.3673853E-15  0.2222222E+00  0.3712308E-15  0.2962963E-02
    1      -12.278790   1.000000
    2      -10.474135   1.000000
    3       -9.502677   1.000000
    4       -8.673693   1.000000
    5       -7.808884   1.000000
    6       -7.187213   1.000000
    7       -6.632810   1.000000
    8       -6.059684   1.000000
    9        3.223017   0.000000
   10        3.480538   0.000000
   11        4.200847   0.000000
   12        5.221817   0.000000
   13        6.120622   0.000000
   14        6.930293   0.000000
   15        7.298148   0.000000
   16        7.675803   0.000000
   17        8.175683   0.000000
   18        8.773124   0.000000
   19       10.897396   0.000000
   20       11.445401   0.000000
 
  0.6666667E-01  0.2222222E+00  0.3781697E-15  0.2962963E-02
    1      -12.150715   1.000000
    2      -10.362674   1.000000
    3       -9.383415   1.000000
    4       -8.719610   1.000000
    5       -7.877584   1.000000
    6       -7.252533   1.000000
    7       -6.606157   1.000000
    8       -6.024439   1.000000
    9        3.365170   0.000000
   10        3.679745   0.000000
   11        4.206339   0.000000
   12        4.803025   0.000000
   13        5.554531   0.000000
   14        6.305225   0.000000
   15        7.195036   0.000000
   16        7.836455   0.000000
   17        8.676612   0.000000
   18        9.791157   0.000000
   19       10.553796   0.000000
   20       11.009568   0.000000
 
  0.1333333E+00  0.2222222E+00  0.3781697E-15  0.2962963E-02
    1      -11.861466   1.000000
    2      -10.122443   1.000000
    3       -9.152559   1.000000
    4       -8.664569   1.000000
    5       -7.848970   1.000000
    6       -7.251587   1.000000
    7       -6.541823   1.000000
    8       -5.976326   1.000000
    9        2.330698   0.000000
   10        3.715240   0.000000
   11        3.992949   0.000000
   12        4.629893   0.000000
   13        5.513041   0.000000
   14        6.111563   0.000000
   15        6.859640   0.000000
   16        7.433710   0.000000
   17        8.481035   0.000000
   18        9.429935   0.000000
   19        9.799807   0.000000
   20       10.569691   0.000000
 
  0.2000000E+00  0.2222222E+00  0.3816392E-15  0.2962963E-02
    1      -11.405999   1.000000
    2       -9.761881   1.000000
    3       -8.818436   1.000000
    4       -8.508091   1.000000
    5       -7.719489   1.000000
    6       -7.192173   1.000000
    7       -6.464139   1.000000
    8       -5.923288   1.000000
    9        0.341977   0.000000
   10        3.911687   0.000000
   11        4.150369   0.000000
   12        4.464262   0.000000
   13        5.211749   0.000000
   14        5.931710   0.000000
   15        6.563730   0.000000
   16        6.947862   0.000000
   17        8.110118   0.000000
   18        8.512218   0.000000
   19        9.158068   0.000000
   20       10.085900   0.000000
 
  0.2666667E+00  0.2222222E+00  0.3816392E-15  0.2962963E-02
    1      -10.794866   1.000000
    2       -9.299911   1.000000
    3       -8.410673   1.000000
    4       -8.275094   1.000000
    5       -7.512604   1.000000
    6       -7.107325   1.000000
    7       -6.407048   1.000000
    8       -5.895672   1.000000
    9       -1.513526   1.043930
   10        3.391588   0.000000
   11        3.922448   0.000000
   12        4.501649   0.000000
   13        4.676368   0.000000
   14        5.601491   0.000000
   15        6.352870   0.000000
   16        6.671329   0.000000
   17        7.846809   0.000000
   18        8.041578   0.000000
   19        8.904165   0.000000
   20        9.850061   0.000000
 
  0.3333333E+00  0.2222222E+00  0.3747003E-15  0.2962963E-02
    1      -10.044362   1.000000
    2       -8.772443   1.000000
    3       -8.023749   1.000000
    4       -7.954076   1.000000
    5       -7.290431   1.000000
    6       -7.045351   1.000000
    7       -6.381769   1.000000
    8       -5.914712   1.000000
    9       -3.172750   1.000000
   10        2.752680   0.000000
   11        3.221476   0.000000
   12        3.930023   0.000000
   13        4.562696   0.000000
   14        5.179670   0.000000
   15        6.162121   0.000000
   16        6.530406   0.000000
   17        7.487629   0.000000
   18        8.186040   0.000000
   19        8.994586   0.000000
   20        9.824682   0.000000
 
  0.4000000E+00  0.2222222E+00  0.3747003E-15  0.2962963E-02
    1       -9.198814   1.000000
    2       -8.248840   1.000000
    3       -7.859824   1.000000
    4       -7.560192   1.000000
    5       -7.232181   1.000000
    6       -6.868136   1.000000
    7       -6.351259   1.000000
    8       -5.974589   1.000000
    9       -4.580331   1.000000
   10        2.263079   0.000000
   11        2.653010   0.000000
   12        3.444005   0.000000
   13        4.144954   0.000000
   14        4.663896   0.000000
   15        5.843902   0.000000
   16        6.460207   0.000000
   17        7.518172   0.000000
   18        8.496198   0.000000
   19        9.148888   0.000000
   20        9.989123   0.000000
 
  0.4666667E+00  0.2222222E+00  0.3747003E-15  0.2962963E-02
    1       -8.544428   1.000000
    2       -8.097195   1.000000
    3       -7.733351   1.000000
    4       -7.301334   1.000000
    5       -7.017230   1.000000
    6       -6.631467   1.000000
    7       -6.347649   1.000000
    8       -5.980534   1.000000
    9       -5.603376   1.000000
   10        1.949910   0.000000
   11        2.448326   0.000000
   12        3.207056   0.000000
   13        3.862436   0.000000
   14        4.241419   0.000000
   15        5.487519   0.000000
   16        6.261974   0.000000
   17        7.611853   0.000000
   18        8.555815   0.000000
   19        8.942572   0.000000
   20        9.362977   0.000000
 
 -0.4666667E+00  0.2222222E+00  0.3781697E-15  0.2962963E-02
    1       -9.025867   1.000000
    2       -7.979496   1.000000
    3       -7.748974   1.000000
    4       -7.063445   1.000000
    5       -6.733875   1.000000
    6       -6.481905   1.000000
    7       -6.308369   1.000000
    8       -6.031760   1.000000
    9       -5.645569   1.000000
   10        1.899238   0.000000
   11        2.578049   0.000000
   12        3.268836   0.000000
   13        3.818514   0.000000
   14        4.093885   0.000000
   15        5.440086   0.000000
   16        6.125522   0.000000
   17        6.944290   0.000000
   18        7.637341   0.000000
   19        8.232339   0.000000
   20        9.319619   0.000000
 
 -0.4000000E+00  0.2222222E+00  0.3712308E-15  0.2962963E-02
    1       -9.781372   1.000000
    2       -8.449275   1.000000
    3       -8.055209   1.000000
    4       -6.968502   1.000000
    5       -6.659430   1.000000
    6       -6.441213   1.000000
    7       -6.228441   1.000000
    8       -6.030635   1.000000
    9       -4.603076   1.000000
   10        2.163421   0.000000
   11        2.981502   0.000000
   12        3.607411   0.000000
   13        3.999742   0.000000
   14        4.316809   0.000000
   15        5.613280   0.000000
   16        5.894788   0.000000
   17        6.340642   0.000000
   18        6.916513   0.000000
   19        7.632371   0.000000
   20        9.020459   0.000000
 
 -0.3333333E+00  0.2222222E+00  0.3747003E-15  0.2962963E-02
    1      -10.527752   1.000000
    2       -9.049039   1.000000
    3       -8.443146   1.000000
    4       -7.221923   1.000000
    5       -6.698107   1.000000
    6       -6.415179   1.000000
    7       -6.250375   1.000000
    8       -6.020674   1.000000
    9       -3.126121   1.000000
   10        2.703122   0.000000
   11        3.553794   0.000000
   12        3.971051   0.000000
   13        4.411875   0.000000
   14        4.788754   0.000000
   15        5.388033   0.000000
   16        5.791510   0.000000
   17        6.114093   0.000000
   18        6.838917   0.000000
   19        7.621235   0.000000
   20        8.966270   0.000000
 
 -0.2666667E+00  0.2222222E+00  0.3729655E-15  0.2962963E-02
    1      -11.171230   1.000000
    2       -9.579334   1.000000
    3       -8.827026   1.000000
    4       -7.592589   1.000000
    5       -6.872999   1.000000
    6       -6.499616   1.000000
    7       -6.332201   1.000000
    8       -6.021539   1.000000
    9       -1.419175   0.371539
   10        3.352653   0.000000
   11        3.827482   0.000000
   12        3.971444   0.000000
   13        4.820030   0.000000
   14        5.288765   0.000000
   15        5.673914   0.000000
   16        5.935702   0.000000
   17        6.367563   0.000000
   18        7.315997   0.000000
   19        7.944988   0.000000
   20        9.254479   0.000000
 
 -0.2000000E+00  0.2222222E+00  0.3740497E-15  0.2962963E-02
    1      -11.680290   1.000000
    2       -9.997598   1.000000
    3       -9.149161   1.000000
    4       -7.957446   1.000000
    5       -7.133472   1.000000
    6       -6.678745   1.000000
    7       -6.430697   1.000000
    8       -6.041900   1.000000
    9        0.457948   0.000000
   10        3.505345   0.000000
   11        3.675623   0.000000
   12        4.019127   0.000000
   13        5.030354   0.000000
   14        5.891758   0.000000
   15        6.199035   0.000000
   16        6.628824   0.000000
   17        7.251919   0.000000
   18        7.769822   0.000000
   19        8.705667   0.000000
   20        9.723580   0.000000
 
 -0.1333333E+00  0.2222222E+00  0.3725319E-15  0.2962963E-02
    1      -12.037465   1.000000
    2      -10.289480   1.000000
    3       -9.378081   1.000000
    4       -8.277084   1.000000
    5       -7.407923   1.000000
    6       -6.879485   1.000000
    7       -6.528828   1.000000
    8       -6.063766   1.000000
    9        2.433586   0.000000
   10        3.370193   0.000000
   11        3.457648   0.000000
   12        4.145911   0.000000
   13        5.166510   0.000000
   14        6.263578   0.000000
   15        6.835837   0.000000
   16        7.449095   0.000000
   17        7.883347   0.000000
   18        8.671573   0.000000
   19        9.644544   0.000000
   20       10.657123   0.000000
 
 -0.6666667E-01  0.2222222E+00  0.3738329E-15  0.2962963E-02
    1      -12.241096   1.000000
    2      -10.450328   1.000000
    3       -9.500541   1.000000
    4       -8.521624   1.000000
    5       -7.647686   1.000000
    6       -7.057967   1.000000
    7       -6.605855   1.000000
    8       -6.073338   1.000000
    9        3.206418   0.000000
   10        3.347820   0.000000
   11        4.020708   0.000000
   12        4.809133   0.000000
   13        5.291023   0.000000
   14        6.337453   0.000000
   15        7.285539   0.000000
   16        7.953346   0.000000
   17        8.229215   0.000000
   18        9.786263   0.000000
   19       10.141845   0.000000
   20       10.730895   0.000000
 
  0.3685542E-15  0.3333333E+00  0.3747003E-15  0.2962963E-02
    1      -12.092106   1.000000
    2      -10.283546   1.000000
    3       -9.272272   1.000000
    4       -8.999922   1.000000
    5       -8.252676   1.000000
    6       -7.659067   1.000000
    7       -6.533600   1.000000
    8       -6.010730   1.000000
    9        3.598839   0.000000
   10        4.396373   0.000000
   11        4.834450   0.000000
   12        5.675147   0.000000
   13        6.052032   0.000000
   14        6.966916   0.000000
   15        7.184592   0.000000
   16        7.689691   0.000000
   17        8.172945   0.000000
   18        8.757727   0.000000
   19       10.183874   0.000000
   20       11.053370   0.000000
 
  0.6666667E-01  0.3333333E+00  0.3712308E-15  0.2962963E-02
    1      -11.964810   1.000000
    2      -10.177060   1.000000
    3       -9.203180   1.000000
    4       -8.953931   1.000000
    5       -8.298412   1.000000
    6       -7.741614   1.000000
    7       -6.485112   1.000000
    8       -6.012303   1.000000
    9        3.749935   0.000000
   10        4.286692   0.000000
   11        4.681034   0.000000
   12        5.150392   0.000000
   13        5.752524   0.000000
   14        6.482398   0.000000
   15        7.387822   0.000000
   16        7.889171   0.000000
   17        8.511839   0.000000
   18        9.625867   0.000000
   19       10.332878   0.000000
   20       10.610177   0.000000
 
  0.1333333E+00  0.3333333E+00  0.3747003E-15  0.2962963E-02
    1      -11.677984   1.000000
    2       -9.956340   1.000000
    3       -9.062429   1.000000
    4       -8.755237   1.000000
    5       -8.230628   1.000000
    6       -7.740991   1.000000
    7       -6.411492   1.000000
    8       -5.994489   1.000000
    9        2.282978   0.000000
   10        4.143137   0.000000
   11        4.661627   0.000000
   12        5.011840   0.000000
   13        5.592530   0.000000
   14        6.469966   0.000000
   15        6.965247   0.000000
   16        7.603703   0.000000
   17        8.628848   0.000000
   18        9.388506   0.000000
   19        9.842076   0.000000
   20       10.275424   0.000000
 
  0.2000000E+00  0.3333333E+00  0.3816392E-15  0.2962963E-02
    1      -11.224429   1.000000
    2       -9.633965   1.000000
    3       -8.820693   1.000000