   17   17   60    1
  0.8369914E+01  0.3753299E-09  0.6911320E-09  0.5522698E-09  0.5000000E-15
  1.000000000000000E-004
  CAR 
 unknown system                          
     55    232     36
 
  0.3742002E-15  0.3742002E-15  0.3742002E-15  0.2164502E-02
    1      -32.203741   1.000000
    2      -31.856573   1.000000
    3      -28.178034   1.000000
    4      -28.109882   1.000000
    5      -28.052264   1.000000
    6      -28.007721   1.000000
    7      -27.947450   1.000000
    8      -27.903181   1.000000
    9      -14.682914   1.000000
   10      -14.298859   1.000000
   11      -14.126213   1.000000
   12      -13.925958   1.000000
   13      -13.849872   1.000000
   14      -13.759726   1.000000
   15       -6.134046   1.000000
   16       -3.385991   1.000000
   17       -2.876968   1.000000
   18       -2.506952   1.000000
   19       -1.745351   1.000000
   20       -1.353838   1.000000
   21       -1.180916   1.000000
   22       -1.005119   1.000000
   23       -0.390035   1.000000
   24        0.489545   1.000000
   25        1.007359   1.000000
   26        1.603089   1.000000
   27        2.622081   1.000000
   28        3.646246  -0.046744
   29        4.244115   0.000000
   30        4.758028   0.000000
   31        5.053579   0.000000
   32        5.155104   0.000000
   33        5.589360   0.000000
   34        5.999272   0.000000
   35        6.427509   0.000000
   36        6.984067   0.000000
 
  0.9090909E-01  0.3731824E-15  0.3694961E-15  0.4329004E-02
    1      -32.201428   1.000000
    2      -31.854220   1.000000
    3      -28.178932   1.000000
    4      -28.115161   1.000000
    5      -28.051392   1.000000
    6      -28.014850   1.000000
    7      -27.946907   1.000000
    8      -27.902518   1.000000
    9      -14.674155   1.000000
   10      -14.293704   1.000000
   11      -14.163956   1.000000
   12      -13.921095   1.000000
   13      -13.847381   1.000000
   14      -13.797450   1.000000
   15       -6.024062   1.000000
   16       -3.310865   1.000000
   17       -2.834570   1.000000
   18       -2.450737   1.000000
   19       -1.759450   1.000000
   20       -1.347829   1.000000
   21       -1.219282   1.000000
   22       -1.031373   1.000000
   23       -0.428819   1.000000
   24        0.387280   1.000000
   25        0.908388   1.000000
   26        1.546149   1.000000
   27        2.509955   1.000000
   28        3.669737  -0.025873
   29        4.307925   0.000000
   30        4.753042   0.000000
   31        5.042370   0.000000
   32        5.258647   0.000000
   33        5.665137   0.000000
   34        6.026644   0.000000
   35        6.352745   0.000000
   36        6.995988   0.000000
 
  0.1818182E+00  0.3777360E-15  0.3712308E-15  0.4329004E-02
    1      -32.195217   1.000000
    2      -31.847899   1.000000
    3      -28.183092   1.000000
    4      -28.127730   1.000000
    5      -28.048989   1.000000
    6      -28.033938   1.000000
    7      -27.945340   1.000000
    8      -27.900611   1.000000
    9      -14.650381   1.000000
   10      -14.280197   1.000000
   11      -14.263226   1.000000
   12      -13.913393   1.000000
   13      -13.891568   1.000000
   14      -13.839571   1.000000
   15       -5.707410   1.000000
   16       -3.115971   1.000000
   17       -2.721312   1.000000
   18       -2.296610   1.000000
   19       -1.826979   1.000000
   20       -1.353407   1.000000
   21       -1.306870   1.000000
   22       -1.094541   1.000000
   23       -0.540283   1.000000
   24        0.147707   1.000000
   25        0.636457   1.000000
   26        1.458700   1.000000
   27        2.253886   1.000000
   28        3.750196   0.004635
   29        4.309703   0.000000
   30        4.723093   0.000000
   31        5.162297   0.000000
   32        5.369209   0.000000
   33        5.783165   0.000000
   34        6.114931   0.000000
   35        6.548492   0.000000
   36        6.973110   0.000000
 
  0.2727273E+00  0.3786034E-15  0.3677614E-15  0.4329004E-02
    1      -32.187066   1.000000
    2      -31.839605   1.000000
    3      -28.194066   1.000000
    4      -28.139075   1.000000
    5      -28.059136   1.000000
    6      -28.045722   1.000000
    7      -27.943293   1.000000
    8      -27.898264   1.000000
    9      -14.619397   1.000000
   10      -14.391142   1.000000
   11      -14.261301   1.000000
   12      -14.025090   1.000000
   13      -13.887240   1.000000
   14      -13.830644   1.000000
   15       -5.220777   1.000000
   16       -2.898702   1.000000
   17       -2.582285   1.000000
   18       -2.143131   1.000000
   19       -1.942291   1.000000
   20       -1.441142   1.000000
   21       -1.372075   1.000000
   22       -1.153642   1.000000
   23       -0.691928   1.000000
   24       -0.121589   1.000000
   25        0.322051   1.000000
   26        1.412904   1.000000
   27        1.978634   1.000000
   28        3.865976   0.000070
   29        4.219123   0.000000
   30        4.541622   0.000000
   31        5.216428   0.000000
   32        5.538269   0.000000
   33        6.044207   0.000000
   34        6.387803   0.000000
   35        6.798110   0.000000
   36        7.151157   0.000000
 
  0.3636364E+00  0.3773024E-15  0.3677614E-15  0.4329004E-02
    1      -32.179559   1.000000
    2      -31.831965   1.000000
    3      -28.209519   1.000000
    4      -28.144257   1.000000
    5      -28.082053   1.000000
    6      -28.042825   1.000000
    7      -27.941476   1.000000
    8      -27.896061   1.000000
    9      -14.592085   1.000000
   10      -14.503710   1.000000
   11      -14.244665   1.000000
   12      -14.135672   1.000000
   13      -13.871087   1.000000
   14      -13.821959   1.000000
   15       -4.619844   1.000000
   16       -2.759986   1.000000
   17       -2.554095   1.000000
   18       -2.335424   1.000000
   19       -1.814922   1.000000
   20       -1.531363   1.000000
   21       -1.419321   1.000000
   22       -1.196237   1.000000
   23       -0.779756   1.000000
   24       -0.354684   1.000000
   25        0.102133   1.000000
   26        1.398196   1.000000
   27        1.755747   1.000000
   28        3.929574   0.000001
   29        4.207909   0.000000
   30        4.484228   0.000000
   31        5.079026   0.000000
   32        5.607439   0.000000
   33        6.291789   0.000000
   34        6.663455   0.000000
   35        6.994151   0.000000
   36        7.382049   0.000000
 
  0.4545455E+00  0.3755676E-15  0.3816392E-15  0.4329004E-02
    1      -32.175083   1.000000
    2      -31.827410   1.000000
    3      -28.220252   1.000000
    4      -28.145712   1.000000
    5      -28.095437   1.000000
    6      -28.041033   1.000000
    7      -27.940349   1.000000
    8      -27.894684   1.000000
    9      -14.587002   1.000000
   10      -14.558079   1.000000
   11      -14.235427   1.000000
   12      -14.198424   1.000000
   13      -13.861355   1.000000
   14      -13.816593   1.000000
   15       -4.023152   1.000000
   16       -2.981775   1.000000
   17       -2.693244   1.000000
   18       -2.337712   1.000000
   19       -1.711486   1.000000
   20       -1.606966   1.000000
   21       -1.391174   1.000000
   22       -1.243562   1.000000
   23       -0.755085   1.000000
   24       -0.489290   1.000000
   25        0.003800   1.000000
   26        1.370274   1.000000
   27        1.644000   1.000000
   28        3.883036   0.000027
   29        4.241713   0.000000
   30        4.666217   0.000000
   31        5.016412   0.000000
   32        5.532010   0.000000
   33        6.326272   0.000000
   34        6.723937   0.000000
   35        7.057504   0.000000
   36        7.398804   0.000000
 
  0.3739346E-15  0.1666667E+00  0.3677614E-15  0.4329004E-02
    1      -32.203031   1.000000
    2      -31.857367   1.000000
    3      -28.169754   1.000000
    4      -28.107227   1.000000
    5      -28.052017   1.000000
    6      -28.007882   1.000000
    7      -27.955994   1.000000
    8      -27.906125   1.000000
    9      -14.638657   1.000000
   10      -14.296398   1.000000
   11      -14.126431   1.000000
   12      -13.930465   1.000000
   13      -13.902168   1.000000
   14      -13.759401   1.000000
   15       -6.023076   1.000000
   16       -3.849060   1.000000
   17       -2.613119   1.000000
   18       -2.352708   1.000000
   19       -1.714985   1.000000
   20       -1.374754   1.000000
   21       -1.193643   1.000000
   22       -1.023594   1.000000
   23       -0.318840   1.000000
   24        0.545462   1.000000
   25        0.995271   1.000000
   26        1.593047   1.000000
   27        2.348231   1.000000
   28        3.527655   0.600828
   29        4.204992   0.000000
   30        4.723723   0.000000
   31        5.146677   0.000000
   32        5.428540   0.000000
   33        5.758589   0.000000
   34        5.979368   0.000000
   35        6.524253   0.000000
   36        7.105361   0.000000
 
  0.9090909E-01  0.1666667E+00  0.3573530E-15  0.4329004E-02
    1      -32.200738   1.000000
    2      -31.854994   1.000000
    3      -28.170998   1.000000
    4      -28.112195   1.000000
    5      -28.051239   1.000000
    6      -28.015082   1.000000
    7      -27.955321   1.000000
    8      -27.905410   1.000000
    9      -14.631799   1.000000
   10      -14.291466   1.000000
   11      -14.163232   1.000000
   12      -13.925676   1.000000
   13      -13.898311   1.000000
   14      -13.796412   1.000000
   15       -5.923220   1.000000
   16       -3.744027   1.000000
   17       -2.574747   1.000000
   18       -2.327619   1.000000
   19       -1.725527   1.000000
   20       -1.367227   1.000000
   21       -1.224475   1.000000
   22       -1.049385   1.000000
   23       -0.350464   1.000000
   24        0.475321   1.000000
   25        0.892372   1.000000
   26        1.537687   1.000000
   27        2.171831   1.000000
   28        3.581430   0.096659
   29        4.285224   0.000000
   30        4.774197   0.000000
   31        5.145034   0.000000
   32        5.481903   0.000000
   33        5.747765   0.000000
   34        6.026072   0.000000
   35        6.461955   0.000000
   36        7.011928   0.000000
 
  0.1818182E+00  0.1666667E+00  0.3608225E-15  0.4329004E-02
    1      -32.194547   1.000000
    2      -31.848647   1.000000
    3      -28.176886   1.000000
    4      -28.123138   1.000000
    5      -28.048838   1.000000
    6      -28.034267   1.000000
    7      -27.953659   1.000000
    8      -27.903415   1.000000
    9      -14.610641   1.000000
   10      -14.278094   1.000000
   11      -14.260935   1.000000
   12      -13.924255   1.000000
   13      -13.900233   1.000000
   14      -13.872400   1.000000
   15       -5.619424   1.000000
   16       -3.504821   1.000000
   17       -2.456866   1.000000
   18       -2.238578   1.000000
   19       -1.781755   1.000000
   20       -1.396827   1.000000
   21       -1.266658   1.000000
   22       -1.102454   1.000000
   23       -0.472794   1.000000
   24        0.242272   1.000000
   25        0.630965   1.000000
   26        1.436056   1.000000
   27        1.873858   1.000000
   28        3.685067  -0.012553
   29        4.277949   0.000000
   30        5.058101   0.000000
   31        5.113553   0.000000
   32        5.486908   0.000000
   33        5.781608   0.000000
   34        6.155837   0.000000
   35        6.552480   0.000000
   36        6.921189   0.000000
 
  0.2727273E+00  0.1666667E+00  0.3677614E-15  0.4329004E-02
    1      -32.186416   1.000000
    2      -31.840337   1.000000
    3      -28.190420   1.000000
    4      -28.132036   1.000000
    5      -28.059526   1.000000
    6      -28.045521   1.000000
    7      -27.951692   1.000000
    8      -27.900871   1.000000
    9      -14.582992   1.000000
   10      -14.386222   1.000000
   11      -14.259023   1.000000
   12      -14.031912   1.000000
   13      -13.891172   1.000000
   14      -13.870812   1.000000
   15       -5.145544   1.000000
   16       -3.189687   1.000000
   17       -2.360544   1.000000
   18       -2.157640   1.000000
   19       -1.871930   1.000000
   20       -1.487489   1.000000
   21       -1.348852   1.000000
   22       -1.130487   1.000000
   23       -0.644609   1.000000
   24       -0.046829   1.000000
   25        0.329490   1.000000
   26        1.377924   1.000000
   27        1.610422   1.000000
   28        3.814670   0.000790
   29        4.200967   0.000000
   30        4.918818   0.000000
   31        5.180543   0.000000
   32        5.518051   0.000000
   33        6.134997   0.000000
   34        6.407329   0.000000
   35        6.714877   0.000000
   36        6.957153   0.000000
 
  0.3636364E+00  0.1666667E+00  0.3747003E-15  0.4329004E-02
    1      -32.178915   1.000000
    2      -31.832687   1.000000
    3      -28.207381   1.000000
    4      -28.135622   1.000000
    5      -28.082418   1.000000
    6      -28.042678   1.000000
    7      -27.950032   1.000000
    8      -27.898585   1.000000
    9      -14.563554   1.000000
   10      -14.491018   1.000000
   11      -14.242369   1.000000
   12      -14.141777   1.000000
   13      -13.877408   1.000000
   14      -13.860012   1.000000
   15       -4.556655   1.000000
   16       -2.890845   1.000000
   17       -2.432764   1.000000
   18       -2.328395   1.000000
   19       -1.786592   1.000000
   20       -1.592677   1.000000
   21       -1.445114   1.000000
   22       -1.159610   1.000000
   23       -0.743507   1.000000
   24       -0.308757   1.000000
   25        0.119520   1.000000
   26        1.308452   1.000000
   27        1.494056   1.000000
   28        3.916641   0.000003
   29        4.240048   0.000000
   30        4.747128   0.000000
   31        5.048266   0.000000
   32        5.620441   0.000000
   33        6.303974   0.000000
   34        6.645339   0.000000
   35        6.858434   0.000000
   36        7.302739   0.000000
 
  0.4545455E+00  0.1666667E+00  0.3608225E-15  0.4329004E-02
    1      -32.174435   1.000000
    2      -31.828135   1.000000
    3      -28.218708   1.000000
    4      -28.136578   1.000000
    5      -28.095757   1.000000
    6      -28.040851   1.000000
    7      -27.949082   1.000000
    8      -27.897150   1.000000
    9      -14.583267   1.000000
   10      -14.520757   1.000000
   11      -14.233204   1.000000
   12      -14.203252   1.000000
   13      -13.870497   1.000000
   14      -13.852901   1.000000
   15       -3.959983   1.000000
   16       -2.933465   1.000000
   17       -2.654228   1.000000
   18       -2.417534   1.000000
   19       -1.704344   1.000000
   20       -1.615884   1.000000
   21       -1.446286   1.000000
   22       -1.225534   1.000000
   23       -0.734260   1.000000
   24       -0.478400   1.000000
   25        0.018989   1.000000
   26        1.222999   1.000000
   27        1.504372   1.000000
   28        3.954912   0.000000
   29        4.325949   0.000000
   30        4.730081   0.000000
   31        5.017957   0.000000
   32        5.555270   0.000000
   33        6.288199   0.000000
   34        6.725938   0.000000
   35        6.977873   0.000000
   36        7.451145   0.000000
 
 -0.4545455E+00  0.1666667E+00  0.3747003E-15  0.4329004E-02
    1      -32.174423   1.000000
    2      -31.828157   1.000000
    3      -28.218818   1.000000
    4      -28.136516   1.000000
    5      -28.095639   1.000000
    6      -28.040889   1.000000
    7      -27.949206   1.000000
    8      -27.897169   1.000000
    9      -14.581739   1.000000
   10      -14.522271   1.000000
   11      -14.232695   1.000000
   12      -14.201765   1.000000
   13      -13.871784   1.000000
   14      -13.853961   1.000000
   15       -3.915768   1.000000
   16       -2.967659   1.000000
   17       -2.796994   1.000000
   18       -2.315763   1.000000
   19       -1.752552   1.000000
   20       -1.530876   1.000000
   21       -1.409343   1.000000
   22       -1.226984   1.000000
   23       -0.707373   1.000000
   24       -0.573128   1.000000
   25        0.012578   1.000000
   26        1.238373   1.000000
   27        1.537087   1.000000
   28        3.932329   0.000001
   29        4.334875   0.000000
   30        4.743647   0.000000
   31        5.003672   0.000000
   32        5.546682   0.000000
   33        6.292386   0.000000
   34        6.780907   0.000000
   35        7.081768   0.000000
   36        7.465901   0.000000
 
 -0.3636364E+00  0.1666667E+00  0.3712308E-15  0.4329004E-02
    1      -32.178870   1.000000
    2      -31.832728   1.000000
    3      -28.207538   1.000000
    4      -28.135283   1.000000
    5      -28.082114   1.000000
    6      -28.042552   1.000000
    7      -27.950296   1.000000
    8      -27.898503   1.000000
    9      -14.557288   1.000000
   10      -14.496455   1.000000
   11      -14.241520   1.000000
   12      -14.137364   1.000000
   13      -13.880068   1.000000
   14      -13.863387   1.000000
   15       -4.501081   1.000000
   16       -3.061336   1.000000
   17       -2.514108   1.000000
   18       -2.186234   1.000000
   19       -1.810073   1.000000
   20       -1.458527   1.000000
   21       -1.409209   1.000000
   22       -1.154066   1.000000
   23       -0.719316   1.000000
   24       -0.490989   1.000000
   25        0.112620   1.000000
   26        1.298212   1.000000
   27        1.631945   1.000000
   28        3.852850   0.000140
   29        4.325368   0.000000
   30        4.671091   0.000000
   31        5.046822   0.000000
   32        5.610237   0.000000
   33        6.331190   0.000000
   34        6.707937   0.000000
   35        7.071131   0.000000
   36        7.519050   0.000000
 
 -0.2727273E+00  0.1666667E+00  0.3712308E-15  0.4329004E-02
    1      -32.186366   1.000000
    2      -31.840400   1.000000
    3      -28.190694   1.000000
    4      -28.131687   1.000000
    5      -28.059382   1.000000
    6      -28.045515   1.000000
    7      -27.952253   1.000000
    8      -27.900920   1.000000
    9      -14.577313   1.000000
   10      -14.390292   1.000000
   11      -14.258435   1.000000
   12      -14.026417   1.000000
   13      -13.893860   1.000000
   14      -13.877385   1.000000
   15       -5.101113   1.000000
   16       -3.348874   1.000000
   17       -2.343703   1.000000
   18       -2.036424   1.000000
   19       -1.899062   1.000000
   20       -1.426634   1.000000
   21       -1.360555   1.000000
   22       -1.101480   1.000000
   23       -0.656701   1.000000
   24       -0.228754   1.000000
   25        0.336726   1.000000
   26        1.326854   1.000000
   27        1.826324   1.000000
   28        3.722453   0.003815
   29        4.344423   0.000000
   30        4.732917   0.000000
   31        5.183637   0.000000
   32        5.556985   0.000000
   33        6.192433   0.000000
   34        6.443642   0.000000
   35        6.745712   0.000000
   36        7.347502   0.000000
 
 -0.1818182E+00  0.1666667E+00  0.3729655E-15  0.4329004E-02
    1      -32.194499   1.000000
    2      -31.848703   1.000000
    3      -28.177137   1.000000
    4      -28.122718   1.000000
    5      -28.048788   1.000000
    6      -28.034043   1.000000
    7      -27.954175   1.000000
    8      -27.903403   1.000000
    9      -14.605797   1.000000
   10      -14.277753   1.000000
   11      -14.263365   1.000000
   12      -13.919627   1.000000
   13      -13.897875   1.000000
   14      -13.883351   1.000000
   15       -5.587347   1.000000
   16       -3.615200   1.000000
   17       -2.423961   1.000000
   18       -2.152835   1.000000
   19       -1.794022   1.000000
   20       -1.371116   1.000000
   21       -1.308570   1.000000
   22       -1.063177   1.000000
   23       -0.498023   1.000000
   24        0.097751   1.000000
   25        0.650506   1.000000
   26        1.389726   1.000000
   27        2.075724   1.000000
   28        3.601639  -0.003841
   29        4.363932   0.000000
   30        4.831275   0.000000
   31        5.260485   0.000000
   32        5.427782   0.000000
   33        5.937254   0.000000
   34        6.160614   0.000000
   35        6.541608   0.000000
   36        7.136914   0.000000
 
 -0.9090909E-01  0.1666667E+00  0.3694961E-15  0.4329004E-02
    1      -32.200705   1.000000
    2      -31.855023   1.000000
    3      -28.171199   1.000000
    4      -28.111870   1.000000
    5      -28.051121   1.000000
    6      -28.014939   1.000000
    7      -27.955547   1.000000
    8      -27.905346   1.000000
    9      -14.628802   1.000000
   10      -14.290966   1.000000
   11      -14.164671   1.000000
   12      -13.925845   1.000000
   13      -13.900020   1.000000
   14      -13.796906   1.000000
   15       -5.906058   1.000000
   16       -3.799296   1.000000
   17       -2.550569   1.000000
   18       -2.289854   1.000000
   19       -1.729591   1.000000
   20       -1.372060   1.000000
   21       -1.226553   1.000000
   22       -1.032031   1.000000
   23       -0.372183   1.000000
   24        0.396378   1.000000
   25        0.912009   1.000000
   26        1.508711   1.000000
   27        2.295697   1.000000
   28        3.529893   0.577550
   29        4.253617   0.000000
   30        4.813663   0.000000
   31        5.199474   0.000000
   32        5.415234   0.000000
   33        5.835856   0.000000
   34        6.030572   0.000000
   35        6.399519   0.000000
   36        7.157493   0.000000
 
  0.3736567E-15  0.3333333E+00  0.3677614E-15  0.4329004E-02
    1      -32.201603   1.000000
    2      -31.858966   1.000000
    3      -28.153174   1.000000
    4      -28.097103   1.000000
    5      -28.051704   1.000000
    6      -28.008194   1.000000
    7      -27.979485   1.000000
    8      -27.910247   1.000000
    9      -14.521901   1.000000
   10      -14.291679   1.000000
   11      -14.132873   1.000000
   12      -14.032876   1.000000
   13      -13.933372   1.000000
   14      -13.760033   1.000000
   15       -5.712060   1.000000
   16       -4.506017   1.000000
   17       -2.384929   1.000000
   18       -2.097380   1.000000
   19       -1.685895   1.000000
   20       -1.387061   1.000000
   21       -1.280672   1.000000
   22       -1.009695   1.000000
   23       -0.135603   1.000000
   24        0.688505   1.000000
   25        0.972834   1.000000
   26        1.492780   1.000000
   27        1.906515   1.000000
   28        3.279100   0.998400
   29        4.233972   0.000000
   30        4.700388   0.000000
   31        5.301765   0.000000
   32        5.602386   0.000000
   33        5.977494   0.000000
   34        6.485671   0.000000
   35        6.647997   0.000000
   36        7.201379   0.000000
 
  0.9090909E-01  0.3333333E+00  0.3608225E-15  0.4329004E-02
    1      -32.199321   1.000000
    2      -31.856585   1.000000
    3      -28.156096   1.000000
    4      -28.100680   1.000000
    5      -28.050842   1.000000
    6      -28.015529   1.000000
    7      -27.978731   1.000000
    8      -27.909486   1.000000
    9      -14.517614   1.000000
   10      -14.286691   1.000000
   11      -14.167493   1.000000
   12      -14.027964   1.000000
   13      -13.928149   1.000000
   14      -13.797929   1.000000
   15       -5.624344   1.000000
   16       -4.392201   1.000000
   17       -2.353677   1.000000
   18       -2.081966   1.000000
   19       -1.688005   1.000000
   20       -1.386069   1.000000
   21       -1.271333   1.000000
   22       -1.035637   1.000000
   23       -0.169815   1.000000
   24        0.603159   1.000000
   25        0.872723   1.000000
   26        1.445157   1.000000
   27        1.687347   1.000000
   28        3.345833   0.995470
   29        4.374990   0.000000
   30        4.708804   0.000000
   31        5.303959   0.000000
   32        5.656151   0.000000
   33        6.017888   0.000000
   34        6.402395   0.000000
   35        6.605348   0.000000
   36        6.941901   0.000000
 
  0.1818182E+00  0.3333333E+00  0.3747003E-15  0.4329004E-02
    1      -32.193154   1.000000
    2      -31.850216   1.000000
    3      -28.166497   1.000000
    4      -28.107244   1.000000
    5      -28.048494   1.000000
    6      -28.034752   1.000000
    7      -27.977139   1.000000
    8      -27.907332   1.000000
    9      -14.502006   1.000000
   10      -14.274330   1.000000
   11      -14.260446   1.000000
   12      -14.018433   1.000000
   13      -13.915753   1.000000
   14      -13.893457   1.000000
   15       -5.340557   1.000000
   16       -4.117738   1.000000
   17       -2.260748   1.000000
   18       -2.026982   1.000000
   19       -1.724658   1.000000
   20       -1.413852   1.000000
   21       -1.258729   1.000000
   22       -1.071977   1.000000
   23       -0.333266   1.000000
   24        0.367687   1.000000
   25        0.629774   1.000000
   26        1.226597   1.000000
   27        1.430114   1.000000
   28        3.469823   1.013679
   29        4.443738   0.000000
   30        4.906464   0.000000
   31        5.386323   0.000000
   32        5.715089   0.000000
   33        6.011496   0.000000
   34        6.349147   0.000000
   35        6.565204   0.000000
   36        6.873942   0.000000
 
  0.2727273E+00  0.3333333E+00  0.3608225E-15  0.4329004E-02
    1      -32.185053   1.000000
    2      -31.841869   1.000000
    3      -28.184772   1.000000
    4      -28.111457   1.000000
    5      -28.060152   1.000000
    6      -28.045098   1.000000
    7      -27.975183   1.000000
    8      -27.904585   1.000000
    9      -14.484692   1.000000
   10      -14.379390   1.000000
   11      -14.253865   1.000000
   12      -14.048454   1.000000
   13      -13.976520   1.000000
   14      -13.895142   1.000000
   15       -4.894527   1.000000
   16       -3.721907   1.000000
   17       -2.226393   1.000000
   18       -1.965361   1.000000
   19       -1.788350   1.000000
   20       -1.493261   1.000000
   21       -1.345299   1.000000
   22       -1.076312   1.000000
   23       -0.589235   1.000000
   24        0.081360   1.000000
   25        0.364026   1.000000
   26        0.968082   1.000000
   27        1.340790   1.000000
   28        3.619571  -0.044230
   29        4.401327   0.000000
   30        4.959677   0.000000
   31        5.470980   0.000000
   32        5.677092   0.000000
   33        6.218013   0.000000
   34        6.404371   0.000000
   35        6.745891   0.000000
   36        6.929628   0.000000
 
  0.3636364E+00  0.3333333E+00  0.3747003E-15  0.4329004E-02
    1      -32.177579   1.000000
    2      -31.834187   1.000000
    3      -28.204086   1.000000
    4      -28.112854   1.000000
    5      -28.083016   1.000000
    6      -28.042261   1.000000
    7      -27.973393   1.000000
    8      -27.902165   1.000000
    9      -14.515969   1.000000
   10      -14.436499   1.000000
   11      -14.237090   1.000000
   12      -14.148496   1.000000
   13      -13.974222   1.000000
   14      -13.878379   1.000000
   15       -4.336298   1.000000
   16       -3.264879   1.000000
   17       -2.415293   1.000000
   18       -2.083851   1.000000
   19       -1.758126   1.000000
   20       -1.595130   1.000000
   21       -1.468988   1.000000
   22       -1.109086   1.000000
   23       -0.800204   1.000000
   24       -0.154077   1.000000
   25        0.181021   1.000000
   26        0.821155   1.000000
   27        1.351798   1.000000
   28        3.761160   0.003949
   29        4.453646   0.000000
   30        4.902360   0.000000
   31        5.303998   0.000000
   32        5.749473   0.000000
   33        6.174736   0.000000
   34        6.649607   0.000000
   35        6.881271   0.000000
   36        7.277273   0.000000
 
  0.4545455E+00  0.3333333E+00  0.3608225E-15  0.4329004E-02
    1      -32.173114   1.000000
    2      -31.829615   1.000000
    3      -28.216116   1.000000
    4      -28.113368   1.000000
    5      -28.095957   1.000000
    6      -28.040518   1.000000
    7      -27.972418   1.000000
    8      -27.900658   1.000000
    9      -14.572029   1.000000
   10      -14.432415   1.000000
   11      -14.228259   1.000000
   12      -14.207310   1.000000
   13      -13.969353   1.000000
   14      -13.868247   1.000000
   15       -3.760397   1.000000
   16       -2.895631   1.000000
   17       -2.716308   1.000000
   18       -2.467063   1.000000
   19       -1.743545   1.000000
   20       -1.570613   1.000000
   21       -1.488574   1.000000
   22       -1.193231   1.000000
   23       -0.875930   1.000000
   24       -0.295057   1.000000
   25        0.086985   1.000000
   26        0.782486   1.000000
   27        1.388347   1.000000
   28        3.848730   0.000172
   29        4.642541   0.000000
   30        4.909832   0.000000
   31        5.098452   0.000000
   32        5.674711   0.000000
   33        6.132621   0.000000
   34        6.763531   0.000000
   35        6.953238   0.000000
   36        7.363540   0.000000
 
 -0.4545455E+00  0.3333333E+00  0.3781697E-15  0.4329004E-02
    1      -32.173100   1.000000
    2      -31.829634   1.000000
    3      -28.216147   1.000000
    4      -28.113509   1.000000
    5      -28.095637   1.000000
    6      -28.040471   1.000000
    7      -27.972651   1.000000
    8      -27.900632   1.000000
    9      -14.571609   1.000000
   10      -14.432921   1.000000
   11      -14.227107   1.000000
   12      -14.205024   1.000000
   13      -13.972747   1.000000
   14      -13.868311   1.000000
   15       -3.682010   1.000000
   16       -2.999074   1.000000
   17       -2.852967   1.000000
   18       -2.335536   1.000000
   19       -1.772374   1.000000
   20       -1.499392   1.000000
   21       -1.451311   1.000000
   22       -1.198063   1.000000
   23       -0.872371   1.000000
   24       -0.378894   1.000000
   25        0.068693   1.000000
   26        0.838287   1.000000
   27        1.401089   1.000000
   28        3.835157   0.000329
   29        4.662369   0.000000