       N       E                     dE             d eps       ncg     rms          rms(c)
DAV:   1     0.175369029203E+03    0.17537E+03   -0.15105E+04 16360   0.701E+02
DAV:   2    -0.598851848816E+02   -0.23525E+03   -0.22541E+03 21168   0.265E+02
DAV:   3    -0.755523491066E+02   -0.15667E+02   -0.15586E+02 24616   0.544E+01
DAV:   4    -0.764271556956E+02   -0.87481E+00   -0.87291E+00 27112   0.115E+01
DAV:   5    -0.764426716045E+02   -0.15516E-01   -0.15515E-01 24112   0.127E+00    0.416E+01
DAV:   6    -0.729693217537E+02    0.34733E+01   -0.48634E+00 23688   0.145E+01    0.190E+01
DAV:   7    -0.720601809930E+02    0.90914E+00   -0.23726E+00 21216   0.658E+00    0.825E+00
DAV:   8    -0.720488258296E+02    0.11355E-01   -0.44634E-01 24456   0.322E+00    0.191E+00
DAV:   9    -0.720466605062E+02    0.21653E-02   -0.42606E-02 20704   0.883E-01    0.754E-01
DAV:  10    -0.720458377596E+02    0.82275E-03   -0.16827E-02 22016   0.636E-01    0.189E-01
DAV:  11    -0.720462271451E+02   -0.38939E-03   -0.17384E-03 21944   0.232E-01    0.701E-02
DAV:  12    -0.720465378084E+02   -0.31066E-03   -0.30400E-04 16168   0.930E-02    0.452E-02
DAV:  13    -0.720465635784E+02   -0.25770E-04   -0.33644E-05 12640   0.368E-02
   1 F= -.72046564E+02 E0= -.72046564E+02  d E =-.720466E+02
       N       E                     dE             d eps       ncg     rms          rms(c)
DAV:   1    -0.720484842725E+02   -0.19465E-02   -0.57006E-02 17556   0.143E+00    0.194E-01
DAV:   2    -0.720483409177E+02    0.14335E-03   -0.39836E-03 20968   0.360E-01    0.982E-02
DAV:   3    -0.720482205252E+02    0.12039E-03   -0.18551E-04 14396   0.871E-02    0.480E-02
DAV:   4    -0.720481782589E+02    0.42266E-04   -0.11734E-04 11128   0.754E-02
   2 F= -.72048178E+02 E0= -.72048187E+02  d E =-.161468E-02
       N       E                     dE             d eps       ncg     rms          rms(c)
DAV:   1    -0.720505689218E+02   -0.23484E-02   -0.24251E-01 16424   0.295E+00    0.401E-01
DAV:   2    -0.720499159349E+02    0.65299E-03   -0.16924E-02 20968   0.750E-01    0.201E-01
DAV:   3    -0.720494181014E+02    0.49783E-03   -0.87795E-04 20780   0.177E-01    0.104E-01
DAV:   4    -0.720492420863E+02    0.17602E-03   -0.44402E-04 21312   0.122E-01    0.650E-02
DAV:   5    -0.720492531110E+02   -0.11025E-04   -0.72940E-05 10576   0.483E-02
   3 F= -.72049253E+02 E0= -.72049262E+02  d E =-.268953E-02
       N       E                     dE             d eps       ncg     rms          rms(c)
DAV:   1    -0.720497980987E+02   -0.55601E-03   -0.54288E-03 17260   0.409E-01    0.704E-02
DAV:   2    -0.720497636122E+02    0.34486E-04   -0.21653E-04 15760   0.979E-02
   4 F= -.72049764E+02 E0= -.72049773E+02  d E =-.510501E-03
       N       E                     dE             d eps       ncg     rms          rms(c)
DAV:   1    -0.720513387598E+02   -0.15407E-02   -0.49167E-02 16156   0.122E+00    0.203E-01
DAV:   2    -0.720510212768E+02    0.31748E-03   -0.21755E-03 22152   0.289E-01    0.919E-02
DAV:   3    -0.720508859876E+02    0.13529E-03   -0.17035E-04 14288   0.845E-02    0.512E-02
DAV:   4    -0.720508553205E+02    0.30667E-04   -0.11465E-04 10744   0.743E-02
   5 F= -.72050855E+02 E0= -.72050864E+02  d E =-.160221E-02
       N       E                     dE             d eps       ncg     rms          rms(c)
DAV:   1    -0.720511761671E+02   -0.29018E-03   -0.32507E-03 18616   0.392E-01    0.562E-02
DAV:   2    -0.720512083709E+02   -0.32204E-04   -0.43037E-04 16548   0.979E-02
   6 F= -.72051208E+02 E0= -.72051217E+02  d E =-.353050E-03
       N       E                     dE             d eps       ncg     rms          rms(c)
DAV:   1    -0.720514484003E+02   -0.27223E-03   -0.28220E-02 17832   0.115E+00    0.104E-01
DAV:   2    -0.720517259370E+02   -0.27754E-03   -0.40053E-03 18272   0.290E-01    0.517E-02
DAV:   3    -0.720517071252E+02    0.18812E-04   -0.60882E-05 14744   0.477E-02
   7 F= -.72051707E+02 E0= -.72051716E+02  d E =-.851805E-03
