       N       E                     dE             d eps       ncg     rms          rms(c)
DAV:   1     0.218887837884E+03    0.21889E+03   -0.16870E+04 16600   0.701E+02
DAV:   2    -0.785284378518E+02   -0.29742E+03   -0.28696E+03 20480   0.300E+02
DAV:   3    -0.962661211530E+02   -0.17738E+02   -0.17591E+02 23576   0.642E+01
DAV:   4    -0.970595783356E+02   -0.79346E+00   -0.79055E+00 27560   0.124E+01
DAV:   5    -0.970730425094E+02   -0.13464E-01   -0.13462E-01 24136   0.121E+00    0.469E+01
DAV:   6    -0.931009312520E+02    0.39721E+01   -0.72841E+00 24048   0.166E+01    0.193E+01
DAV:   7    -0.920358392509E+02    0.10651E+01   -0.19801E+00 21992   0.600E+00    0.850E+00
DAV:   8    -0.919816393751E+02    0.54200E-01   -0.48797E-01 26840   0.344E+00    0.216E+00
DAV:   9    -0.919837323460E+02   -0.20930E-02   -0.38013E-02 24512   0.903E-01    0.165E+00
DAV:  10    -0.919880114966E+02   -0.42792E-02   -0.12041E-02 22800   0.686E-01    0.304E-01
DAV:  11    -0.919884503836E+02   -0.43889E-03   -0.34640E-03 24000   0.488E-01    0.167E-01
DAV:  12    -0.919886293400E+02   -0.17896E-03   -0.36314E-04 17624   0.108E-01    0.131E-01
DAV:  13    -0.919888148158E+02   -0.18548E-03   -0.20588E-04 16432   0.861E-02    0.367E-02
DAV:  14    -0.919888263355E+02   -0.11520E-04   -0.40085E-05 12624   0.596E-02
   1 F= -.91988826E+02 E0= -.91988339E+02  d E =-.919888E+02
       N       E                     dE             d eps       ncg     rms          rms(c)
DAV:   1    -0.919883221927E+02    0.49262E-03   -0.15467E-01 18272   0.281E+00    0.198E-01
DAV:   2    -0.919900634044E+02   -0.17412E-02   -0.23073E-02 18816   0.725E-01    0.126E-01
DAV:   3    -0.919899924643E+02    0.70940E-04   -0.43653E-04 19992   0.131E-01
   2 F= -.91989992E+02 E0= -.91989514E+02  d E =-.116613E-02
       N       E                     dE             d eps       ncg     rms          rms(c)
DAV:   1    -0.919899938452E+02    0.69559E-04   -0.73757E-03 19280   0.627E-01    0.558E-02
DAV:   2    -0.919900978058E+02   -0.10396E-03   -0.12319E-03 18608   0.178E-01    0.232E-02
DAV:   3    -0.919900954320E+02    0.23738E-05   -0.19821E-05 11712   0.353E-02
   3 F= -.91990095E+02 E0= -.91989616E+02  d E =-.126910E-02
       N       E                     dE             d eps       ncg     rms          rms(c)
DAV:   1    -0.919911860059E+02   -0.10882E-02   -0.43984E-02 17776   0.143E+00    0.115E-01
DAV:   2    -0.919914702314E+02   -0.28423E-03   -0.54250E-03 18496   0.366E-01    0.703E-02
DAV:   3    -0.919914253522E+02    0.44879E-04   -0.12006E-04 16656   0.725E-02
   4 F= -.91991425E+02 E0= -.91990950E+02  d E =-.132992E-02
       N       E                     dE             d eps       ncg     rms          rms(c)
DAV:   1    -0.919917599692E+02   -0.28974E-03   -0.39222E-01 17368   0.426E+00    0.347E-01
DAV:   2    -0.919940883932E+02   -0.23284E-02   -0.47833E-02 18512   0.109E+00    0.226E-01
DAV:   3    -0.919936559566E+02    0.43244E-03   -0.13061E-03 22584   0.217E-01    0.124E-01
DAV:   4    -0.919934833540E+02    0.17260E-03   -0.45159E-04 19720   0.139E-01    0.391E-02
DAV:   5    -0.919934853344E+02   -0.19804E-05   -0.89906E-05 12576   0.771E-02
   5 F= -.91993485E+02 E0= -.91993024E+02  d E =-.338990E-02
       N       E                     dE             d eps       ncg     rms          rms(c)
DAV:   1    -0.919951304890E+02   -0.16471E-02   -0.28497E-02 16800   0.102E+00    0.111E-01
DAV:   2    -0.919951245947E+02    0.58943E-05   -0.22019E-03 20856   0.272E-01    0.599E-02
DAV:   3    -0.919950914196E+02    0.33175E-04   -0.82740E-05 13384   0.560E-02
   6 F= -.91995091E+02 E0= -.91994626E+02  d E =-.160609E-02
       N       E                     dE             d eps       ncg     rms          rms(c)
DAV:   1    -0.919987911852E+02   -0.36666E-02   -0.25598E-01 16760   0.306E+00    0.340E-01
DAV:   2    -0.919986440432E+02    0.14714E-03   -0.19700E-02 21064   0.810E-01    0.182E-01
DAV:   3    -0.919983386821E+02    0.30536E-03   -0.88745E-04 21272   0.165E-01    0.966E-02
DAV:   4    -0.919982181069E+02    0.12058E-03   -0.35147E-04 19056   0.106E-01    0.364E-02
DAV:   5    -0.919982238079E+02   -0.57010E-05   -0.52930E-05 12384   0.470E-02
   7 F= -.91998224E+02 E0= -.91997748E+02  d E =-.473847E-02
       N       E                     dE             d eps       ncg     rms          rms(c)
DAV:   1    -0.919988065970E+02   -0.58849E-03   -0.16528E-02 17512   0.919E-01    0.680E-02
DAV:   2    -0.919989816316E+02   -0.17503E-03   -0.22173E-03 18880   0.233E-01    0.334E-02
DAV:   3    -0.919989762018E+02    0.54297E-05   -0.32168E-05 12728   0.395E-02
   8 F= -.91998976E+02 E0= -.91998500E+02  d E =-.752394E-03
       N       E                     dE             d eps       ncg     rms          rms(c)
DAV:   1    -0.919990360685E+02   -0.54437E-04   -0.11153E-02 17488   0.748E-01    0.604E-02
DAV:   2    -0.919991475890E+02   -0.11152E-03   -0.14780E-03 18928   0.189E-01    0.299E-02
DAV:   3    -0.919991435869E+02    0.40021E-05   -0.24412E-05 12936   0.334E-02
   9 F= -.91999144E+02 E0= -.91998667E+02  d E =-.919779E-03
