Automatically generated mesh
      42
Reciprocal lattice
    0.00000000000000    0.00000000000000    0.00000000000000             1
    0.25000000000000    0.00000000000000    0.00000000000000             2
    0.50000000000000    0.00000000000000    0.00000000000000             1
    0.00000000000000    0.25000000000000    0.00000000000000             2
    0.25000000000000    0.25000000000000    0.00000000000000             2
    0.50000000000000    0.25000000000000    0.00000000000000             2
   -0.25000000000000    0.25000000000000    0.00000000000000             2
    0.00000000000000    0.50000000000000    0.00000000000000             1
    0.25000000000000    0.50000000000000    0.00000000000000             2
    0.50000000000000    0.50000000000000    0.00000000000000             1
    0.00000000000000    0.00000000000000    0.20000000000000             2
    0.25000000000000    0.00000000000000    0.20000000000000             2
    0.50000000000000    0.00000000000000    0.20000000000000             2
   -0.25000000000000    0.00000000000000    0.20000000000000             2
    0.00000000000000    0.25000000000000    0.20000000000000             2
    0.25000000000000    0.25000000000000    0.20000000000000             2
    0.50000000000000    0.25000000000000    0.20000000000000             2
   -0.25000000000000    0.25000000000000    0.20000000000000             2
    0.00000000000000    0.50000000000000    0.20000000000000             2
    0.25000000000000    0.50000000000000    0.20000000000000             2
    0.50000000000000    0.50000000000000    0.20000000000000             2
   -0.25000000000000    0.50000000000000    0.20000000000000             2
    0.00000000000000   -0.25000000000000    0.20000000000000             2
    0.25000000000000   -0.25000000000000    0.20000000000000             2
    0.50000000000000   -0.25000000000000    0.20000000000000             2
   -0.25000000000000   -0.25000000000000    0.20000000000000             2
    0.00000000000000    0.00000000000000    0.40000000000000             2
    0.25000000000000    0.00000000000000    0.40000000000000             2
    0.50000000000000    0.00000000000000    0.40000000000000             2
   -0.25000000000000    0.00000000000000    0.40000000000000             2
    0.00000000000000    0.25000000000000    0.40000000000000             2
    0.25000000000000    0.25000000000000    0.40000000000000             2
    0.50000000000000    0.25000000000000    0.40000000000000             2
   -0.25000000000000    0.25000000000000    0.40000000000000             2
    0.00000000000000    0.50000000000000    0.40000000000000             2
    0.25000000000000    0.50000000000000    0.40000000000000             2
    0.50000000000000    0.50000000000000    0.40000000000000             2
   -0.25000000000000    0.50000000000000    0.40000000000000             2
    0.00000000000000   -0.25000000000000    0.40000000000000             2
    0.25000000000000   -0.25000000000000    0.40000000000000             2
    0.50000000000000   -0.25000000000000    0.40000000000000             2
   -0.25000000000000   -0.25000000000000    0.40000000000000             2
Tetrahedra
       240    0.00208333333333
         2         1         4         5        16
         2         1         2         5        16
         2         1         2        12        16
         2         1         4        15        16
         2         1        11        15        16
         2         1        11        12        16
         2         2         5         6        17
         2         2         3         6        17
         2         2         3        13        17
         2         2         5        16        17
         2         2        12        16        17
         2         2        12        13        17
         2         3         6         7        18
         2         2         3         7        18
         2         2         3        14        18
         2         3         6        17        18
         2         3        13        17        18
         2         3        13        14        18
         2         2         4         7        15
         2         1         2         4        15
         2         1         2        11        15
         2         2         7        15        18
         2         2        14        15        18
         2         2        11        14        15
         2         4         8         9        20
         2         4         5         9        20
         2         4         5        16        20
         2         4         8        19        20
         2         4        15        19        20
         2         4        15        16        20
         2         5         9        10        21
         2         5         6        10        21
         2         5         6        17        21
         2         5         9        20        21
         2         5        16        20        21
         2         5        16        17        21
         2         6         9        10        22
         2         6         7         9        22
         2         6         7        18        22
         2         6        10        21        22
         2         6        17        21        22
         2         6        17        18        22
         2         7         8         9        19
         2         4         7         8        19
         2         4         7        15        19
         2         7         9        19        22
         2         7        18        19        22
         2         7        15        18        19
         2         4         7         8        24
         2         7         8         9        24
         2         8         9        20        24
         2         4         8        23        24
         2         8        19        23        24
         2         8        19        20        24
         2         6         7         9        25
         2         6         9        10        25
         2         9        10        21        25
         2         7         9        24        25
         2         9        20        24        25
         2         9        20        21        25
         2         5         6        10        26
         2         5         9        10        26
         2         9        10        22        26
         2         6        10        25        26
         2        10        21        25        26
         2        10        21        22        26
         2         4         5         9        23
         2         4         8         9        23
         2         8         9        19        23
         2         5         9        23        26
         2         9        22        23        26
         2         9        19        22        23
         2         1         2         4        12
         2         2         4         7        12
         2         4         7        12        24
         2         1         4        11        12
         2         4        11        12        23
         2         4        12        23        24
         2         2         3         7        13
         2         3         6         7        13
         2         6         7        13        25
         2         2         7        12        13
         2         7        12        13        24
         2         7        13        24        25
         2         2         3         6        14
         2         2         5         6        14
         2         5         6        14        26
         2         3         6        13        14
         2         6        13        14        25
         2         6        14        25        26
         2         1         2         5        11
         2         1         4         5        11
         2         4         5        11        23
         2         2         5        11        14
         2         5        11        14        26
         2         5        11        23        26
         2        11        15        16        32
         2        11        12        16        32
         2        11        12        28        32
         2        11        15        31        32
         2        11        27        31        32
         2        11        27        28        32
         2        12        16        17        33
         2        12        13        17        33
         2        12        13        29        33
         2        12        16        32        33
         2        12        28        32        33
         2        12        28        29        33
         2        13        17        18        34
         2        13        14        18        34
         2        13        14        30        34
         2        13        17        33        34
         2        13        29        33        34
         2        13        29        30        34
         2        14        15        18        31
         2        11        14        15        31
         2        11        14        27        31
         2        14        18        31        34
         2        14        30        31        34
         2        14        27        30        31
         2        15        19        20        36
         2        15        16        20        36
         2        15        16        32        36
         2        15        19        35        36
         2        15        31        35        36
         2        15        31        32        36
         2        16        20        21        37
         2        16        17        21        37
         2        16        17        33        37
         2        16        20        36        37
         2        16        32        36        37
         2        16        32        33        37
         2        17        21        22        38
         2        17        18        22        38
         2        17        18        34        38
         2        17        21        37        38
         2        17        33        37        38
         2        17        33        34        38
         2        18        19        22        35
         2        15        18        19        35
         2        15        18        31        35
         2        18        22        35        38
         2        18        34        35        38
         2        18        31        34        35
         2        19        23        24        40
         2        19        20        24        40
         2        19        20        36        40
         2        19        23        39        40
         2        19        35        39        40
         2        19        35        36        40
         2        20        24        25        41
         2        20        21        25        41
         2        20        21        37        41
         2        20        24        40        41
         2        20        36        40        41
         2        20        36        37        41
         2        21        25        26        42
         2        21        22        26        42
         2        21        22        38        42
         2        21        25        41        42
         2        21        37        41        42
         2        21        37        38        42
         2        22        23        26        39
         2        19        22        23        39
         2        19        22        35        39
         2        22        26        39        42
         2        22        38        39        42
         2        22        35        38        39
         2        11        12        23        28
         2        12        23        24        28
         2        23        24        28        40
         2        11        23        27        28
         2        23        27        28        39
         2        23        28        39        40
         2        12        13        24        29
         2        13        24        25        29
         2        24        25        29        41
         2        12        24        28        29
         2        24        28        29        40
         2        24        29        40        41
         2        13        14        25        30
         2        14        25        26        30
         2        25        26        30        42
         2        13        25        29        30
         2        25        29        30        41
         2        25        30        41        42
         2        11        14        26        27
         2        11        23        26        27
         2        23        26        27        39
         2        14        26        27        30
         2        26        27        30        42
         2        26        27        39        42
         2        27        31        32        42
         2        27        28        32        42
         2        27        28        30        42
         2        27        31        39        42
         2        27        27        39        42
         2        27        27        30        42
         2        28        32        33        41
         2        28        29        33        41
         2        28        29        29        41
         2        28        32        41        42
         2        28        30        41        42
         2        28        29        30        41
         2        29        33        34        40
         2        29        30        34        40
         2        28        29        30        40
         2        29        33        40        41
         2        29        29        40        41
         2        28        29        29        40
         2        30        31        34        39
         2        27        30        31        39
         2        27        27        30        39
         2        30        34        39        40
         2        28        30        39        40
         2        27        28        30        39
         2        31        35        36        38
         2        31        32        36        38
         2        31        32        38        42
         2        31        35        35        38
         2        31        35        38        39
         2        31        38        39        42
         2        32        36        37        37
         2        32        33        37        37
         2        32        33        37        41
         2        32        36        37        38
         2        32        37        38        42
         2        32        37        41        42
         2        33        36        37        38
         2        33        34        36        38
         2        33        34        36        40
         2        33        36        37        37
         2        33        36        37        41
         2        33        36        40        41
         2        34        35        35        38
         2        31        34        35        35
         2        31        34        35        39
         2        34        35        36        38
         2        34        35        36        40
         2        34        35        39        40
