   8   8   0   0
  0.8278271E+01  0.3430507E-09  0.3443665E-09  0.5606069E-09  0.5000000E-15
  1.000000000000000E-004
  CAR 
 unknown system                          
     12.08565409    -33.97480291  301      3.85317879      1.00000000
    -33.975  0.0000E+00  0.0000E+00
    -33.821  0.0000E+00  0.0000E+00
    -33.668  0.0000E+00  0.0000E+00
    -33.514  0.0000E+00  0.0000E+00
    -33.361  0.0000E+00  0.0000E+00
    -33.207  0.0000E+00  0.0000E+00
    -33.054  0.0000E+00  0.0000E+00
    -32.900  0.0000E+00  0.0000E+00
    -32.747  0.1302E-32  0.1999E-33
    -32.593  0.2921E-22  0.4484E-23
    -32.439  0.5301E-14  0.8139E-15
    -32.286  0.7184E-08  0.1103E-08
    -32.132  0.5639E-04  0.8659E-05
    -31.979 -0.1571E-02 -0.2325E-03
    -31.825  0.7331E-01  0.1102E-01
    -31.672  0.1500E+00  0.3406E-01
    -31.518 -0.4947E-02  0.3330E-01
    -31.365  0.2444E-03  0.3333E-01
    -31.211  0.1473E-06  0.3333E-01
    -31.058  0.4220E-12  0.3333E-01
    -30.904  0.0000E+00  0.3333E-01
    -30.751  0.0000E+00  0.3333E-01
    -30.597  0.0000E+00  0.3333E-01
    -30.444  0.0000E+00  0.3333E-01
    -30.290  0.0000E+00  0.3333E-01
    -30.136  0.0000E+00  0.3333E-01
    -29.983  0.0000E+00  0.3333E-01
    -29.829  0.0000E+00  0.3333E-01
    -29.676  0.0000E+00  0.3333E-01
    -29.522  0.0000E+00  0.3333E-01
    -29.369  0.0000E+00  0.3333E-01
    -29.215  0.0000E+00  0.3333E-01
    -29.062  0.0000E+00  0.3333E-01
    -28.908  0.0000E+00  0.3333E-01
    -28.755  0.0000E+00  0.3333E-01
    -28.601  0.2979E-33  0.3333E-01
    -28.448  0.1047E-22  0.3333E-01
    -28.294  0.3004E-14  0.3333E-01
    -28.140  0.6388E-08  0.3333E-01
    -27.987  0.7383E-04  0.3334E-01
    -27.833 -0.2565E-02  0.3295E-01
    -27.680  0.9569E-01  0.4764E-01
    -27.526  0.3718E+00  0.1047E+00
    -27.373  0.1901E+00  0.1339E+00
    -27.219 -0.3839E-02  0.1333E+00
    -27.066  0.1061E-03  0.1333E+00
    -26.912  0.6212E-08  0.1333E+00
    -26.759  0.2109E-14  0.1333E+00
    -26.605  0.0000E+00  0.1333E+00
    -26.452  0.0000E+00  0.1333E+00
    -26.298  0.0000E+00  0.1333E+00
    -26.145  0.0000E+00  0.1333E+00
    -25.991  0.0000E+00  0.1333E+00
    -25.837  0.0000E+00  0.1333E+00
    -25.684  0.0000E+00  0.1333E+00
    -25.530  0.0000E+00  0.1333E+00
    -25.377  0.0000E+00  0.1333E+00
    -25.223  0.0000E+00  0.1333E+00
    -25.070  0.0000E+00  0.1333E+00
    -24.916  0.0000E+00  0.1333E+00
    -24.763  0.0000E+00  0.1333E+00
    -24.609  0.0000E+00  0.1333E+00
    -24.456  0.0000E+00  0.1333E+00
    -24.302  0.0000E+00  0.1333E+00
    -24.149  0.0000E+00  0.1333E+00
    -23.995  0.0000E+00  0.1333E+00
    -23.842  0.0000E+00  0.1333E+00
    -23.688  0.0000E+00  0.1333E+00
    -23.534  0.0000E+00  0.1333E+00
    -23.381  0.0000E+00  0.1333E+00
    -23.227  0.0000E+00  0.1333E+00
    -23.074  0.0000E+00  0.1333E+00
    -22.920  0.0000E+00  0.1333E+00
    -22.767  0.0000E+00  0.1333E+00
    -22.613  0.0000E+00  0.1333E+00
    -22.460  0.0000E+00  0.1333E+00
    -22.306  0.0000E+00  0.1333E+00
    -22.153  0.0000E+00  0.1333E+00
    -21.999  0.0000E+00  0.1333E+00
    -21.846  0.0000E+00  0.1333E+00
    -21.692  0.0000E+00  0.1333E+00
    -21.538  0.0000E+00  0.1333E+00
    -21.385  0.0000E+00  0.1333E+00
    -21.231  0.0000E+00  0.1333E+00
    -21.078  0.0000E+00  0.1333E+00
    -20.924  0.0000E+00  0.1333E+00
    -20.771  0.0000E+00  0.1333E+00
    -20.617  0.0000E+00  0.1333E+00
    -20.464  0.0000E+00  0.1333E+00
    -20.310  0.0000E+00  0.1333E+00
    -20.157  0.0000E+00  0.1333E+00
    -20.003  0.0000E+00  0.1333E+00
    -19.850  0.0000E+00  0.1333E+00
    -19.696  0.0000E+00  0.1333E+00
    -19.543  0.0000E+00  0.1333E+00
    -19.389  0.0000E+00  0.1333E+00
    -19.235  0.0000E+00  0.1333E+00
    -19.082  0.0000E+00  0.1333E+00
    -18.928  0.0000E+00  0.1333E+00
    -18.775  0.0000E+00  0.1333E+00
    -18.621  0.0000E+00  0.1333E+00
    -18.468  0.0000E+00  0.1333E+00
    -18.314  0.0000E+00  0.1333E+00
    -18.161  0.0000E+00  0.1333E+00
    -18.007  0.0000E+00  0.1333E+00
    -17.854  0.0000E+00  0.1333E+00
    -17.700  0.0000E+00  0.1333E+00
    -17.547  0.0000E+00  0.1333E+00
    -17.393  0.0000E+00  0.1333E+00
    -17.240  0.0000E+00  0.1333E+00
    -17.086  0.0000E+00  0.1333E+00
    -16.932  0.0000E+00  0.1333E+00
    -16.779  0.0000E+00  0.1333E+00
    -16.625  0.0000E+00  0.1333E+00
    -16.472  0.0000E+00  0.1333E+00
    -16.318  0.0000E+00  0.1333E+00
    -16.165  0.0000E+00  0.1333E+00
    -16.011  0.0000E+00  0.1333E+00
    -15.858  0.0000E+00  0.1333E+00
    -15.704  0.0000E+00  0.1333E+00
    -15.551  0.0000E+00  0.1333E+00
    -15.397  0.6015E-31  0.1333E+00
    -15.244  0.4747E-21  0.1333E+00
    -15.090  0.3072E-13  0.1333E+00
    -14.936  0.1468E-07  0.1333E+00
    -14.783  0.3656E-04  0.1333E+00
    -14.629 -0.7802E-03  0.1332E+00
    -14.476  0.2787E-01  0.1375E+00
    -14.322  0.7955E-01  0.1497E+00
    -14.169  0.6361E-01  0.1595E+00
    -14.015  0.5634E-01  0.1681E+00
    -13.862  0.1090E+00  0.1849E+00
    -13.708  0.1960E+00  0.2149E+00
    -13.555  0.1143E+00  0.2325E+00
    -13.401  0.5292E-02  0.2333E+00
    -13.248  0.1904E-03  0.2333E+00
    -13.094  0.2880E-05  0.2333E+00
    -12.941  0.7682E-10  0.2333E+00
    -12.787  0.1248E-16  0.2333E+00
    -12.633  0.0000E+00  0.2333E+00
    -12.480  0.0000E+00  0.2333E+00
    -12.326  0.0000E+00  0.2333E+00
    -12.173  0.0000E+00  0.2333E+00
    -12.019  0.0000E+00  0.2333E+00
    -11.866  0.0000E+00  0.2333E+00
    -11.712  0.0000E+00  0.2333E+00
    -11.559  0.0000E+00  0.2333E+00
    -11.405  0.0000E+00  0.2333E+00
    -11.252  0.0000E+00  0.2333E+00
    -11.098  0.0000E+00  0.2333E+00
    -10.945  0.0000E+00  0.2333E+00
    -10.791  0.0000E+00  0.2333E+00
    -10.638  0.0000E+00  0.2333E+00
    -10.484  0.0000E+00  0.2333E+00
    -10.330  0.0000E+00  0.2333E+00
    -10.177  0.0000E+00  0.2333E+00
    -10.023  0.0000E+00  0.2333E+00
     -9.870  0.0000E+00  0.2333E+00
     -9.716  0.0000E+00  0.2333E+00
     -9.563  0.0000E+00  0.2333E+00
     -9.409  0.0000E+00  0.2333E+00
     -9.256  0.0000E+00  0.2333E+00
     -9.102  0.0000E+00  0.2333E+00
     -8.949  0.0000E+00  0.2333E+00
     -8.795  0.0000E+00  0.2333E+00
     -8.642  0.0000E+00  0.2333E+00
     -8.488  0.0000E+00  0.2333E+00
     -8.334  0.0000E+00  0.2333E+00
     -8.181  0.0000E+00  0.2333E+00
     -8.027  0.0000E+00  0.2333E+00
     -7.874  0.0000E+00  0.2333E+00
     -7.720  0.0000E+00  0.2333E+00
     -7.567  0.0000E+00  0.2333E+00
     -7.413  0.0000E+00  0.2333E+00
     -7.260  0.0000E+00  0.2333E+00
     -7.106  0.0000E+00  0.2333E+00
     -6.953  0.0000E+00  0.2333E+00
     -6.799  0.2510E-40  0.2333E+00
     -6.646  0.5954E-29  0.2333E+00
     -6.492  0.1113E-19  0.2333E+00
     -6.339  0.1508E-12  0.2333E+00
     -6.185  0.1173E-07  0.2333E+00
     -6.031  0.9841E-06  0.2333E+00
     -5.878  0.3658E-04  0.2333E+00
     -5.724  0.7800E-03  0.2335E+00
     -5.571  0.2853E-02  0.2339E+00
     -5.417  0.2472E-02  0.2343E+00
     -5.264  0.3878E-02  0.2349E+00
     -5.110  0.6922E-02  0.2359E+00
     -4.957  0.2100E-02  0.2363E+00
     -4.803  0.1001E-01  0.2378E+00
     -4.650  0.5697E-02  0.2387E+00
     -4.496  0.9838E-02  0.2402E+00
     -4.343  0.1069E-01  0.2418E+00
     -4.189  0.1184E-01  0.2436E+00
     -4.036  0.1456E-01  0.2459E+00
     -3.882  0.1333E-01  0.2479E+00
     -3.728  0.2663E-01  0.2520E+00
     -3.575  0.1917E-01  0.2550E+00
     -3.421  0.1838E-01  0.2578E+00
     -3.268  0.1421E-01  0.2600E+00
     -3.114  0.1604E-01  0.2624E+00
     -2.961  0.2040E-01  0.2656E+00
     -2.807  0.1457E-01  0.2678E+00
     -2.654  0.1812E-01  0.2706E+00
     -2.500  0.1265E-01  0.2725E+00
     -2.347  0.1819E-01  0.2753E+00
     -2.193  0.2252E-01  0.2788E+00
     -2.040  0.3115E-01  0.2835E+00
     -1.886  0.4741E-01  0.2908E+00
     -1.732  0.4610E-01  0.2979E+00
     -1.579  0.6684E-01  0.3082E+00
     -1.425  0.5663E-01  0.3169E+00
     -1.272  0.6503E-01  0.3268E+00
     -1.118  0.6285E-01  0.3365E+00
     -0.965  0.6942E-01  0.3472E+00
     -0.811  0.6329E-01  0.3569E+00
     -0.658  0.4571E-01  0.3639E+00
     -0.504  0.3989E-01  0.3700E+00
     -0.351  0.3613E-01  0.3756E+00
     -0.197  0.1666E-01  0.3781E+00
     -0.044  0.2732E-01  0.3823E+00
      0.110  0.2263E-01  0.3858E+00
      0.263  0.3382E-01  0.3910E+00
      0.417  0.2498E-01  0.3948E+00
      0.571  0.5230E-02  0.3956E+00
      0.724  0.1455E-01  0.3979E+00
      0.878  0.1126E-01  0.3996E+00
      1.031  0.3991E-02  0.4002E+00
      1.185  0.1941E-01  0.4032E+00
      1.338  0.1498E-01  0.4055E+00
      1.492  0.8808E-02  0.4068E+00
      1.645  0.8698E-02  0.4082E+00
      1.799  0.1743E-01  0.4108E+00
      1.952  0.2902E-01  0.4153E+00
      2.106  0.1506E-01  0.4176E+00
      2.259  0.2835E-01  0.4220E+00
      2.413  0.1543E-01  0.4243E+00
      2.566  0.2377E-01  0.4280E+00
      2.720  0.2386E-01  0.4316E+00
      2.874  0.1965E-01  0.4347E+00
      3.027  0.1340E-01  0.4367E+00
      3.181  0.2086E-01  0.4399E+00
      3.334  0.1815E-01  0.4427E+00
      3.488  0.1922E-01  0.4457E+00
      3.641  0.1502E-01  0.4480E+00
      3.795  0.9119E-02  0.4494E+00
      3.948  0.1481E-01  0.4516E+00
      4.102  0.1885E-01  0.4545E+00
      4.255  0.2185E-01  0.4579E+00
      4.409  0.1293E-01  0.4599E+00
      4.562  0.2550E-01  0.4638E+00
      4.716  0.2243E-01  0.4672E+00
      4.870  0.2800E-01  0.4715E+00
      5.023  0.3672E-01  0.4772E+00
      5.177  0.2415E-01  0.4809E+00
      5.330  0.1232E-01  0.4828E+00
      5.484  0.3148E-01  0.4876E+00
      5.637  0.2957E-01  0.4921E+00
      5.791  0.4615E-01  0.4992E+00
      5.944  0.6595E-01  0.5093E+00
      6.098  0.4687E-01  0.5165E+00
      6.251  0.5358E-01  0.5248E+00
      6.405  0.3396E-01  0.5300E+00
      6.558  0.1778E-01  0.5327E+00
      6.712  0.2419E-01  0.5364E+00
      6.865  0.4600E-01  0.5435E+00
      7.019  0.5472E-01  0.5519E+00
      7.173  0.3427E-01  0.5572E+00
      7.326  0.2421E-01  0.5609E+00
      7.480  0.2417E-01  0.5646E+00
      7.633  0.3357E-01  0.5697E+00
      7.787  0.5162E-01  0.5777E+00
      7.940  0.5986E-01  0.5869E+00
      8.094  0.6371E-01  0.5966E+00
      8.247  0.7012E-01  0.6074E+00
      8.401  0.5844E-01  0.6164E+00
      8.554  0.5233E-01  0.6244E+00
      8.708  0.4485E-01  0.6313E+00
      8.861  0.4781E-01  0.6386E+00
      9.015  0.5544E-01  0.6471E+00
      9.168  0.5374E-01  0.6554E+00
      9.322  0.3890E-01  0.6614E+00
      9.476  0.1974E-01  0.6644E+00
      9.629  0.9487E-02  0.6659E+00
      9.783  0.3670E-02  0.6664E+00
      9.936  0.1075E-02  0.6666E+00
     10.090  0.5389E-03  0.6667E+00
     10.243 -0.2075E-04  0.6667E+00
     10.397  0.8871E-06  0.6667E+00
     10.550  0.2454E-09  0.6667E+00
     10.704  0.2730E-15  0.6667E+00
     10.857  0.0000E+00  0.6667E+00
     11.011  0.0000E+00  0.6667E+00
     11.164  0.0000E+00  0.6667E+00
     11.318  0.0000E+00  0.6667E+00
     11.472  0.0000E+00  0.6667E+00
     11.625  0.0000E+00  0.6667E+00
     11.779  0.0000E+00  0.6667E+00
     11.932  0.0000E+00  0.6667E+00
     12.086  0.0000E+00  0.6667E+00
