   14   14   60    1
  0.6382968E+01  0.2494654E-09  0.5419307E-09  0.6856454E-09  0.5000000E-15
  1.000000000000000E-004
  CAR 
 unknown system                          
     14    388     16
 
  0.3742002E-15  0.3742002E-15  0.3742002E-15  0.1302083E-02
    1      -11.678282   1.000000
    2       -9.423825   1.000000
    3       -9.132604   1.000000
    4       -8.651140   1.000000
    5       -8.101596   1.000000
    6       -7.038154   1.000000
    7       -6.719608   1.000000
    8        1.952847   0.000000
    9        2.469111   0.000000
   10        3.123968   0.000000
   11        4.131968   0.000000
   12        5.197907   0.000000
   13        6.403306   0.000000
   14        9.758072   0.000000
   15       10.187056   0.000000
   16       11.460245   0.000000
 
  0.6250000E-01  0.3739413E-15  0.3755676E-15  0.2604167E-02
    1      -11.606099   1.000000
    2       -9.364753   1.000000
    3       -9.068916   1.000000
    4       -8.592071   1.000000
    5       -8.045860   1.000000
    6       -6.996214   1.000000
    7       -6.685985   1.000000
    8        2.019670   0.000000
    9        2.524512   0.000000
   10        3.196003   0.000000
   11        4.193680   0.000000
   12        5.259172   0.000000
   13        6.458725   0.000000
   14        9.677324   0.000000
   15       10.062323   0.000000
   16       11.337515   0.000000
 
  0.1250000E+00  0.3705803E-15  0.3712308E-15  0.2604167E-02
    1      -11.390132   1.000000
    2       -9.185765   1.000000
    3       -8.879600   1.000000
    4       -8.422014   1.000000
    5       -7.883733   1.000000
    6       -6.883892   1.000000
    7       -6.587186   1.000000
    8        2.205951   0.000000
    9        2.692040   0.000000
   10        3.405305   0.000000
   11        4.368385   0.000000
   12        5.431851   0.000000
   13        6.604932   0.000000
   14        9.344102   0.000000
   15        9.609100   0.000000
   16       10.922178   0.000000
 
  0.1875000E+00  0.3774108E-15  0.3747003E-15  0.2604167E-02
    1      -11.036815   1.000000
    2       -8.904101   1.000000
    3       -8.583972   1.000000
    4       -8.155486   1.000000
    5       -7.634907   1.000000
    6       -6.726657   1.000000
    7       -6.439078   1.000000
    8        2.454802   0.000000
    9        2.972691   0.000000
   10        3.719850   0.000000
   11        4.615415   0.000000
   12        5.666550   0.000000
   13        6.744094   0.000000
   14        8.556665   0.000000
   15        8.863725   0.000000
   16        9.827207   0.000000
 
  0.2500000E+00  0.3638582E-15  0.3677614E-15  0.2604167E-02
    1      -10.554390   1.000000
    2       -8.535534   1.000000
    3       -8.199921   1.000000
    4       -7.808250   1.000000
    5       -7.319071   1.000000
    6       -6.574411   1.000000
    7       -6.255974   1.000000
    8        2.646736   0.000000
    9        3.379709   0.000000
   10        4.067555   0.000000
   11        4.810821   0.000000
   12        5.880393   0.000000
   13        6.610068   0.000000
   14        7.457821   0.000000
   15        8.269119   0.000000
   16        8.706506   0.000000
 
  0.3125000E+00  0.3666772E-15  0.3573530E-15  0.2604167E-02
    1       -9.967013   1.000000
    2       -8.116325   1.000000
    3       -7.773861   1.000000
    4       -7.427410   1.000000
    5       -6.989123   1.000000
    6       -6.498763   1.000000
    7       -6.070206   1.000000
    8        2.668388   0.000000
    9        3.831886   0.000000
   10        4.296011   0.000000
   11        4.650178   0.000000
   12        5.992894   0.000000
   13        6.170455   0.000000
   14        6.484879   0.000000
   15        7.951938   0.000000
   16        8.215939   0.000000
 
  0.3750000E+00  0.3636414E-15  0.3747003E-15  0.2604167E-02
    1       -9.307497   1.000000
    2       -7.725781   1.000000
    3       -7.396852   1.000000
    4       -7.085583   1.000000
    5       -6.782421   1.000000
    6       -6.440186   1.000000
    7       -5.940777   0.999959
    8        2.568515   0.000000
    9        3.779647   0.000000
   10        4.158430   0.000000
   11        4.581378   0.000000
   12        5.419317   0.000000
   13        5.692141   0.000000
   14        6.645542   0.000000
   15        7.578594   0.000000
   16        8.064868   0.000000
 
  0.4375000E+00  0.3460773E-15  0.3677614E-15  0.2604167E-02
    1       -8.631059   1.000000
    2       -7.527541   1.000000
    3       -7.260800   1.000000
    4       -6.850204   1.000000
    5       -6.714134   1.000000
    6       -6.231987   1.000000
    7       -5.915069   0.999838
    8        2.493478   0.000000
    9        3.258305   0.000000
   10        3.937629   0.000000
   11        4.539579   0.000000
   12        5.147728   0.000000
   13        5.267373   0.000000
   14        6.857166   0.000000
   15        7.464115   0.000000
   16        8.275090   0.000000
 
  0.5000000E+00  0.3569194E-15  0.3677614E-15  0.1302083E-02
    1       -8.160313   1.000000
    2       -7.751422   1.000000
    3       -7.208788   1.000000
    4       -6.734742   1.000000
    5       -6.667456   1.000000
    6       -6.078966   1.000000
    7       -5.976244   0.999995
    8        2.485913   0.000000
    9        3.015359   0.000000
   10        3.897694   0.000000
   11        4.330629   0.000000
   12        5.037279   0.000000
   13        5.230403   0.000000
   14        6.721343   0.000000
   15        7.938601   0.000000
   16        8.195302   0.000000
 
  0.3729859E-15  0.1250000E+00  0.3747003E-15  0.2604167E-02
    1      -11.616784   1.000000
    2       -9.478018   1.000000
    3       -9.085236   1.000000
    4       -8.867795   1.000000
    5       -8.157266   1.000000
    6       -6.908568   1.000000
    7       -6.630509   1.000000
    8        1.831750   0.000000
    9        2.546803   0.000000
   10        3.206760   0.000000
   11        4.474806   0.000000
   12        5.262098   0.000000
   13        6.443489   0.000000
   14        9.004483   0.000000
   15        9.631886   0.000000
   16       10.789274   0.000000
 
  0.6250000E-01  0.1250000E+00  0.3747003E-15  0.2604167E-02
    1      -11.538607   1.000000
    2       -9.435112   1.000000
    3       -9.012518   1.000000
    4       -8.798979   1.000000
    5       -8.098109   1.000000
    6       -6.855892   1.000000
    7       -6.603045   1.000000
    8        1.865897   0.000000
    9        2.605075   0.000000
   10        3.285035   0.000000
   11        4.579417   0.000000
   12        5.338227   0.000000
   13        6.500176   0.000000
   14        9.035138   0.000000
   15        9.683390   0.000000
   16       10.787514   0.000000
 
  0.1250000E+00  0.1250000E+00  0.3747003E-15  0.2604167E-02
    1      -11.321051   1.000000
    2       -9.271015   1.000000
    3       -8.822942   1.000000
    4       -8.620470   1.000000
    5       -7.938345   1.000000
    6       -6.737262   1.000000
    7       -6.521805   1.000000
    8        2.033843   0.000000
    9        2.774020   0.000000
   10        3.467844   0.000000
   11        4.782149   0.000000
   12        5.534146   0.000000
   13        6.644787   0.000000
   14        8.951870   0.000000
   15        9.677429   0.000000
   16       10.395224   0.000000
 
  0.1875000E+00  0.1250000E+00  0.3816392E-15  0.2604167E-02
    1      -10.964214   1.000000
    2       -8.994058   1.000000
    3       -8.528808   1.000000
    4       -8.335667   1.000000
    5       -7.690806   1.000000
    6       -6.558486   1.000000
    7       -6.398190   1.000000
    8        2.295369   0.000000
    9        3.043368   0.000000
   10        3.728546   0.000000
   11        5.024777   0.000000
   12        5.800450   0.000000
   13        6.815082   0.000000
   14        8.452259   0.000000
   15        9.139488   0.000000
   16        9.757952   0.000000
 
  0.2500000E+00  0.1250000E+00  0.3885781E-15  0.2604167E-02
    1      -10.485370   1.000000
    2       -8.626746   1.000000
    3       -8.154301   1.000000
    4       -7.966954   1.000000
    5       -7.386961   1.000000
    6       -6.372195   1.000000
    7       -6.268608   1.000000
    8        2.537097   0.000000
    9        3.398109   0.000000
   10        4.005973   0.000000
   11        5.147079   0.000000
   12        6.007417   0.000000
   13        6.834862   0.000000
   14        7.456503   0.000000
   15        8.450236   0.000000
   16        8.791132   0.000000
 
  0.3125000E+00  0.1250000E+00  0.3885781E-15  0.2604167E-02
    1       -9.899831   1.000000
    2       -8.200437   1.000000
    3       -7.753649   1.000000
    4       -7.549611   1.000000
    5       -7.078513   1.000000
    6       -6.275947   1.000000
    7       -6.110872   1.000000
    8        2.603431   0.000000
    9        3.786612   0.000000
   10        4.178218   0.000000
   11        4.888035   0.000000
   12        5.999892   0.000000
   13        6.465486   0.000000
   14        6.610052   0.000000
   15        8.037066   0.000000
   16        8.474832   0.000000
 
  0.3750000E+00  0.1250000E+00  0.3747003E-15  0.2604167E-02
    1       -9.244243   1.000000
    2       -7.776100   1.000000
    3       -7.430813   1.000000
    4       -7.147415   1.000000
    5       -6.861159   1.000000
    6       -6.250039   1.000000
    7       -5.993570   0.999999
    8        2.524352   0.000000
    9        3.767612   0.000000
   10        3.950522   0.000000
   11        4.800007   0.000000
   12        5.597482   0.000000
   13        5.836779   0.000000
   14        6.500571   0.000000
   15        7.644950   0.000000
   16        8.086570   0.000000
 
  0.4375000E+00  0.1250000E+00  0.3747003E-15  0.2604167E-02
    1       -8.576222   1.000000
    2       -7.497864   1.000000
    3       -7.351272   1.000000
    4       -6.848300   1.000000
    5       -6.741644   1.000000
    6       -6.142608   1.000000
    7       -5.983400   0.999997
    8        2.480577   0.000000
    9        3.187120   0.000000
   10        3.771823   0.000000
   11        4.883972   0.000000
   12        5.068463   0.000000
   13        5.490421   0.000000
   14        6.706944   0.000000
   15        7.305227   0.000000
   16        8.171378   0.000000
 
  0.5000000E+00  0.1250000E+00  0.3608225E-15  0.2604167E-02
    1       -8.121586   1.000000
    2       -7.740540   1.000000
    3       -7.190849   1.000000
    4       -6.745565   1.000000
    5       -6.711656   1.000000
    6       -6.132889   1.000000
    7       -5.940958   0.999959
    8        2.487469   0.000000
    9        2.964705   0.000000
   10        3.769152   0.000000
   11        4.515246   0.000000
   12        4.907749   0.000000
   13        5.592101   0.000000
   14        6.492610   0.000000
   15        7.761145   0.000000
   16        8.119900   0.000000
 
 -0.4375000E+00  0.1250000E+00  0.4059253E-15  0.2604167E-02
    1       -8.591542   1.000000
    2       -7.551713   1.000000
    3       -7.196429   1.000000
    4       -6.900052   1.000000
    5       -6.740429   1.000000
    6       -6.348688   1.000000
    7       -5.813658   0.995286
    8        2.526070   0.000000
    9        3.234628   0.000000
   10        3.996219   0.000000
   11        4.379919   0.000000
   12        5.039940   0.000000
   13        5.682969   0.000000
   14        6.515485   0.000000
   15        7.254536   0.000000
   16        8.457663   0.000000
 
 -0.3750000E+00  0.1250000E+00  0.3872770E-15  0.2604167E-02
    1       -9.267075   1.000000
    2       -7.670964   1.000000
    3       -7.450831   1.000000
    4       -7.223706   1.000000
    5       -6.709581   1.000000
    6       -6.561975   1.000000
    7       -5.807284   0.995089
    8        2.709050   0.000000
    9        3.689483   0.000000
   10        4.179395   0.000000
   11        4.607581   0.000000
   12        5.236894   0.000000
   13        5.882437   0.000000
   14        6.418373   0.000000
   15        7.282910   0.000000
   16        8.186848   0.000000
 
 -0.3125000E+00  0.1250000E+00  0.3777360E-15  0.2604167E-02
    1       -9.921862   1.000000
    2       -8.039467   1.000000
    3       -7.842971   1.000000
    4       -7.608310   1.000000
    5       -7.016611   1.000000
    6       -6.505135   1.000000
    7       -5.921208   0.999881
    8        2.909367   0.000000
    9        3.744295   0.000000
   10        4.189179   0.000000
   11        4.790477   0.000000
   12        5.616544   0.000000
   13        6.259407   0.000000
   14        6.585668   0.000000
   15        7.799883   0.000000
   16        7.997760   0.000000
 
 -0.2500000E+00  0.1250000E+00  0.3799044E-15  0.2604167E-02
    1      -10.506524   1.000000
    2       -8.475443   1.000000
    3       -8.248095   1.000000
    4       -8.006098   1.000000
    5       -7.373685   1.000000
    6       -6.540666   1.000000
    7       -6.108751   1.000000
    8        2.921662   0.000000
    9        3.264989   0.000000
   10        4.058471   0.000000
   11        4.807249   0.000000
   12        5.957299   0.000000
   13        6.429652   0.000000
   14        7.479452   0.000000
   15        8.057042   0.000000
   16        8.644009   0.000000
 
 -0.1875000E+00  0.1250000E+00  0.3781697E-15  0.2604167E-02
    1      -10.982349   1.000000
    2       -8.874505   1.000000
    3       -8.599923   1.000000
    4       -8.359914   1.000000
    5       -7.691812   1.000000
    6       -6.655858   1.000000
    7       -6.303416   1.000000
    8        2.599418   0.000000
    9        2.954591   0.000000
   10        3.715056   0.000000
   11        4.727255   0.000000
   12        5.782038   0.000000
   13        6.624700   0.000000
   14        8.346633   0.000000
   15        8.610962   0.000000
   16        9.710584   0.000000
 
 -0.1250000E+00  0.1250000E+00  0.3816392E-15  0.2604167E-02
    1      -11.334589   1.000000
    2       -9.189254   1.000000
    3       -8.872503   1.000000
    4       -8.633026   1.000000
    5       -7.946538   1.000000
    6       -6.782907   1.000000
    7       -6.473639   1.000000
    8        2.213496   0.000000
    9        2.751552   0.000000
   10        3.424854   0.000000
   11        4.583820   0.000000
   12        5.509449   0.000000
   13        6.587541   0.000000
   14        8.766411   0.000000
   15        9.288470   0.000000
   16       10.365057   0.000000
 
 -0.6250000E-01  0.1250000E+00  0.3712308E-15  0.2604167E-02
    1      -11.547334   1.000000
    2       -9.396029   1.000000
    3       -9.039168   1.000000
    4       -8.806901   1.000000
    5       -8.106964   1.000000
    6       -6.881582   1.000000
    7       -6.590232   1.000000
    8        1.948378   0.000000
    9        2.601486   0.000000
   10        3.251721   0.000000
   11        4.481455   0.000000
   12        5.321526   0.000000
   13        6.484787   0.000000
   14        8.938086   0.000000
   15        9.558928   0.000000
   16       10.641693   0.000000
 
  0.3746799E-15  0.2500000E+00  0.3885781E-15  0.2604167E-02
    1      -11.426571   1.000000
    2       -9.560633   1.000000
    3       -9.488896   1.000000
    4       -8.788501   1.000000
    5       -8.277562   1.000000
    6       -6.852268   1.000000
    7       -6.311669   1.000000
    8        1.696139   0.000000
    9        2.792165   0.000000
   10        3.427165   0.000000
   11        4.935699   0.000000
   12        5.796303   0.000000
   13        6.288674   0.000000
   14        7.925095   0.000000
   15        8.783255   0.000000
   16        9.814249   0.000000
 
  0.6250000E-01  0.2500000E+00  0.4163336E-15  0.2604167E-02
    1      -11.347746   1.000000
    2       -9.514640   1.000000
    3       -9.437489   1.000000
    4       -8.705027   1.000000
    5       -8.217686   1.000000
    6       -6.812281   1.000000
    7       -6.285468   1.000000
    8        1.739501   0.000000
    9        2.832836   0.000000
   10        3.505708   0.000000
   11        5.042511   0.000000
   12        5.867473   0.000000
   13        6.363933   0.000000
   14        7.989261   0.000000
   15        8.830520   0.000000
   16        9.815404   0.000000
 
  0.1250000E+00  0.2500000E+00  0.4024558E-15  0.2604167E-02
    1      -11.129043   1.000000
    2       -9.345741   1.000000
    3       -9.262575   1.000000
    4       -8.514162   1.000000
    5       -8.054553   1.000000
    6       -6.701680   1.000000
    7       -6.208952   1.000000
    8        1.924082   0.000000
    9        2.982450   0.000000
   10        3.682680   0.000000
   11        5.228883   0.000000
   12        6.024780   0.000000
   13        6.530867   0.000000
   14        8.101537   0.000000
   15        8.923977   0.000000
   16        9.677630   0.000000
 
  0.1875000E+00  0.2500000E+00  0.4024558E-15  0.2604167E-02
    1      -10.773252   1.000000
    2       -9.060233   1.000000
    3       -8.971056   1.000000
    4       -8.222397   1.000000
    5       -7.806552   1.000000
    6       -6.526679   1.000000
    7       -6.101687   1.000000
    8        2.222084   0.000000
    9        3.197180   0.000000
   10        3.939521   0.000000
   11        5.429629   0.000000
   12        6.193605   0.000000
   13        6.740054   0.000000
   14        8.059066   0.000000
   15        8.843876   0.000000
   16        9.249979   0.000000
 
  0.2500000E+00  0.2500000E+00  0.4024558E-15  0.2604167E-02
    1      -10.296866   1.000000
    2       -8.680053   1.000000
    3       -8.582769   1.000000
    4       -7.861356   1.000000
    5       -7.504030   1.000000
    6       -6.330068   1.000000
    7       -6.006727   0.999999
    8        2.540931   0.000000
    9        3.400259   0.000000
   10        4.225171   0.000000
   11        5.490514   0.000000
   12        6.196465   0.000000
   13        6.844803   0.000000
   14        7.435117   0.000000
   15        8.370780   0.000000
   16        8.671120   0.000000
 
  0.3125000E+00  0.2500000E+00  0.3885781E-15  0.2604167E-02
    1       -9.721992   1.000000
    2       -8.242793   1.000000
    3       -8.137373   1.000000
    4       -7.473203   1.000000
    5       -7.200594   1.000000
    6       -6.154182   1.000000
    7       -5.969166   0.999992
    8        2.673835   0.000000
    9        3.560864   0.000000
   10        4.342073   0.000000
   11        5.238782   0.000000
   12        6.019446   0.000000
   13        6.542888   0.000000
   14        6.746472   0.000000
   15        7.759599   0.000000
   16        8.357757   0.000000
 
  0.3750000E+00  0.2500000E+00  0.3608225E-15  0.2604167E-02
    1       -9.081674   1.000000
    2       -7.802254   1.000000
    3       -7.708705   1.000000
    4       -7.122730   1.000000
    5       -6.969956   1.000000
    6       -6.083934   1.000000
    7       -5.970333   0.999993
    8        2.570493   0.000000
    9        3.496884   0.000000
   10        3.991811   0.000000
   11        5.086111   0.000000
   12        5.740955   0.000000
   13        6.010000   0.000000
   14        6.434886   0.000000
   15        7.338044   0.000000
   16        8.092066   0.000000
 
  0.4375000E+00  0.2500000E+00  0.3747003E-15  0.2604167E-02
    1       -8.443026   1.000000
    2       -7.544427   1.000000
    3       -7.388567   1.000000
    4       -6.928418   1.000000
    5       -6.802207   1.000000
    6       -6.117176   1.000000
    7       -5.977510   0.999996
    8        2.482915   0.000000
    9        3.024293   0.000000
   10        3.768414   0.000000
   11        4.887084   0.000000
   12        5.242616   0.000000
   13        5.858331   0.000000
   14        6.268940   0.000000
   15        7.506413   0.000000
   16        8.083525   0.000000
 
  0.5000000E+00  0.2500000E+00  0.3747003E-15  0.2604167E-02
    1       -8.018551   1.000000
    2       -7.718979   1.000000
    3       -7.149116   1.000000
    4       -6.871866   1.000000
    5       -6.737573   1.000000
    6       -6.243443   1.000000
    7       -5.901396   0.999687
    8        2.463592   0.000000
    9        2.855393   0.000000
   10        3.730872   0.000000
   11        4.708267   0.000000
   12        4.850743   0.000000
   13        5.953055   0.000000
   14        6.087338   0.000000
   15        7.870832   0.000000
   16        8.286701   0.000000
 
 -0.4375000E+00  0.2500000E+00  0.4059253E-15  0.2604167E-02
    1       -8.469288   1.000000
    2       -7.593312   1.000000
    3       -7.164855   1.000000
    4       -7.070529   1.000000
    5       -6.666679   1.000000
    6       -6.471742   1.000000
    7       -5.756066   1.008394
    8        2.539660   0.000000
    9        3.176559   0.000000
   10        3.886716   0.000000
   11        4.581007   0.000000
   12        4.962685   0.000000
   13        5.800572   0.000000
   14        6.342127   0.000000
   15        7.312604   0.000000
   16        8.533291   0.000000
 
 -0.3750000E+00  0.2500000E+00  0.3955170E-15  0.2604167E-02
    1       -9.120861   1.000000
    2       -7.745553   1.000000
    3       -7.514673   1.000000
    4       -7.391933   1.000000
    5       -6.782253   1.000000
    6       -6.486849   1.000000
    7       -5.687068   1.046702
    8        2.869512   0.000000
    9        3.581512   0.000000
   10        4.079983   0.000000
   11        4.753650   0.000000
   12        5.150954   0.000000
   13        5.817897   0.000000
   14        6.543689   0.000000
   15        7.246186   0.000000
   16        8.501486   0.000000
 
 -0.3125000E+00  0.2500000E+00  0.3816392E-15  0.2604167E-02
    1       -9.765147   1.000000
    2       -8.114783   1.000000
    3       -8.020242   1.000000
    4       -7.713262   1.000000
    5       -7.133159   1.000000
    6       -6.403183   1.000000
    7       -5.734680   1.026073
    8        3.258749   0.000000
    9        3.513163   0.000000
   10        4.241607   0.000000
   11        4.809244   0.000000
   12        5.478609   0.000000
   13        6.255776   0.000000
   14        6.938718   0.000000
   15        7.633740   0.000000
   16        8.214614   0.000000
 
 -0.2500000E+00  0.2500000E+00  0.3747003E-15  0.2604167E-02
    1      -10.340573   1.000000
    2       -8.541753   1.000000
    3       -8.506330   1.000000
    4       -8.060596   1.000000
    5       -7.494275   1.000000
    6       -6.452640   1.000000
    7       -5.869089   0.998811
    8        2.981713   0.000000
    9        3.450335   0.000000
   10        4.120209   0.000000
   11        4.898570   0.000000
   12        5.921447   0.000000
   13        6.700366   0.000000
   14        7.482146   0.000000
   15        7.834396   0.000000
   16        8.590601   0.000000
 
 -0.1875000E+00  0.2500000E+00  0.4163336E-15  0.2604167E-02
    1      -10.807917   1.000000
    2       -8.943464   1.000000
    3       -8.910208   1.000000
    4       -8.374256   1.000000
    5       -7.816483   1.000000
    6       -6.575266   1.000000
    7       -6.027502   1.000000
    8        2.475835   0.000000
    9        3.310179   0.000000
   10        3.813838   0.000000
   11        5.011134   0.000000
   12        6.080545   0.000000
   13        6.574597   0.000000
   14        7.893329   0.000000
   15        8.440052   0.000000
   16        9.102599   0.000000
 
 -0.1250000E+00  0.2500000E+00  0.4093947E-15  0.2604167E-02
    1      -11.152576   1.000000
    2       -9.266178   1.000000
    3       -9.215689   1.000000
    4       -8.612479   1.000000
    5       -8.068083   1.000000
    6       -6.715688   1.000000
    7       -6.173866   1.000000
    8        2.071072   0.000000
    9        3.066789   0.000000
   10        3.586779   0.000000
   11        4.975087   0.000000
   12        5.976500   0.000000
   13        6.410491   0.000000
   14        7.980138   0.000000
   15        8.804406   0.000000
   16        9.435637   0.000000
 
 -0.6250000E-01  0.2500000E+00  0.3816392E-15  0.2604167E-02
    1      -11.361138   1.000000
    2       -9.475968   1.000000
    3       -9.414543   1.000000
    4       -8.755469   1.000000
    5       -8.227326   1.000000
    6       -6.816577   1.000000
    7       -6.273403   1.000000
    8        1.806707   0.000000
    9        2.873102   0.000000
   10        3.455083   0.000000
   11        4.921513   0.000000
   12        5.838936   0.000000
   13        6.311291   0.000000
   14        7.938870   0.000000
   15        8.802897   0.000000
   16        9.708351   0.000000
 
  0.3694317E-15  0.3750000E+00  0.4024558E-15  0.2604167E-02
    1      -11.131968   1.000000
    2      -10.069452   1.000000
    3       -9.555652   1.000000
    4       -8.693006   1.000000
    5       -8.319574   1.000000
    6       -6.907279   1.000000
    7       -6.028243   1.000000
    8        1.686173   0.000000
    9        3.210829   0.000000
   10        3.659050   0.000000
   11        5.197767   0.000000
   12        5.544059   0.000000
   13        6.789467   0.000000
   14        7.255232   0.000000
   15        8.090401   0.000000
   16        9.521697   0.000000
 
  0.6250000E-01  0.3750000E+00  0.4302114E-15  0.2604167E-02
    1      -11.051102   1.000000
    2      -10.015535   1.000000
    3       -9.503737   1.000000
    4       -8.621239   1.000000
    5       -8.256537   1.000000
    6       -6.869530   1.000000
    7       -6.007449   0.999999
    8        1.742482   0.000000
    9        3.243652   0.000000
   10        3.744724   0.000000
   11        5.287151   0.000000
   12        5.614438   0.000000
   13        6.846949   0.000000
   14        7.314745   0.000000
   15        8.101909   0.000000
   16        9.560887   0.000000
 
  0.1250000E+00  0.3750000E+00  0.3469447E-15  0.2604167E-02
    1      -10.833306   1.000000
    2       -9.830247   1.000000
    3       -9.328141   1.000000
    4       -8.443453   1.000000
    5       -8.095056   1.000000
    6       -6.753087   1.000000
    7       -5.938036   0.999952
    8        1.929192   0.000000
    9        3.375910   0.000000
   10        3.953471   0.000000
   11        5.442373   0.000000
   12        5.780523   0.000000
   13        6.985628   0.000000
   14        7.409827   0.000000
   15        8.109347   0.000000
   16        9.480741   0.000000
 
  0.1875000E+00  0.3750000E+00  0.3885781E-15  0.2604167E-02
    1      -10.482091   1.000000
    2       -9.519482   1.000000
    3       -9.036131   1.000000
    4       -8.169389   1.000000
    5       -7.848338   1.000000
    6       -6.575894   1.000000
    7       -5.843767   0.997343
    8        2.225531   0.000000
    9        3.541431   0.000000
   10        4.267454   0.000000
   11        5.590493   0.000000
   12        6.002203   0.000000
   13        7.043738   0.000000
   14        7.475900   0.000000
   15        8.018192   0.000000
   16        8.960134   0.000000
 
  0.2500000E+00  0.3750000E+00  0.4163336E-15  0.2604167E-02
    1      -10.014138   1.000000
    2       -9.105135   1.000000
    3       -8.652631   1.000000
    4       -7.828693   1.000000
    5       -7.546288   1.000000
    6       -6.373984   1.000000
    7       -5.768979   1.001386
    8        2.567383   0.000000
    9        3.609027   0.000000
   10        4.591507   0.000000
   11        5.636911   0.000000
   12        6.093197   0.000000
   13        6.782746   0.000000
   14        7.242477   0.000000
   15        7.941164   0.000000
   16        8.321676   0.000000
 
  0.3125000E+00  0.3750000E+00  0.3608225E-15  0.2604167E-02
    1       -9.455036   1.000000
    2       -8.617908   1.000000
    3       -8.207154   1.000000
    4       -7.472944   1.000000
    5       -7.239043   1.000000
    6       -6.198111   1.000000
    7       -5.762132   1.004724
    8        2.789714   0.000000
    9        3.496435   0.000000
   10        4.550862   0.000000
   11        5.535236   0.000000
   12        5.921546   0.000000
   13        6.381665   0.000000
   14        6.896191   0.000000
   15        7.383890   0.000000
   16        8.360118   0.000000
 
  0.3750000E+00  0.3750000E+00  0.4718448E-15  0.2604167E-02
    1       -8.840297   1.000000
    2       -8.112288   1.000000
    3       -7.742612   1.000000
    4       -7.181742   1.000000
    5       -6.967955   1.000000
    6       -6.112016   1.000000
    7       -5.832782   0.996529
    8        2.675527   0.000000
    9        3.317164   0.000000
   10        4.085797   0.000000
   11        5.145129   0.000000
   12        5.611353   0.000000
   13        6.231251   0.000000
   14        6.525370   0.000000
   15        7.286046   0.000000
   16        8.180108   0.000000
 
  0.4375000E+00  0.3750000E+00  0.4163336E-15  0.2604167E-02
    1       -8.245089   1.000000
    2       -7.725058   1.000000
    3       -7.326271   1.000000
    4       -7.080738   1.000000
    5       -6.784238   1.000000
    6       -6.188967   1.000000
    7       -5.901731   0.999692
    8        2.475635   0.000000
    9        2.952397   0.000000
   10        3.883922   0.000000
   11        4.695754   0.000000
   12        5.197165   0.000000
   13        5.887710   0.000000
   14        6.388787   0.000000
   15        7.847326   0.000000
   16        8.251855   0.000000
 
  0.5000000E+00  0.3750000E+00  0.4440892E-15  0.2604167E-02
    1       -7.877176   1.000000
    2       -7.696147   1.000000
    3       -7.142281   1.000000
    4       -7.015403   1.000000
    5       -6.734899   1.000000
    6       -6.353985   1.000000
    7       -5.881201   0.999252
    8        2.391359   0.000000
    9        2.826213   0.000000
   10        3.853711   0.000000
   11        4.542105   0.000000
   12        4.879573   0.000000
   13        5.677941   0.000000
   14        6.366317   0.000000
   15        8.351171   0.000000
   16        8.481829   0.000000
 
 -0.4375000E+00  0.3750000E+00  0.4232725E-15  0.2604167E-02
    1       -8.276641   1.000000
    2       -7.717076   1.000000
    3       -7.213813   1.000000
    4       -7.159587   1.000000
    5       -6.670892   1.000000