   18   18   60    1
  0.9042368E+01  0.3948623E-09  0.6569475E-09  0.7469362E-09  0.5000000E-15
  1.000000000000000E-004
  CAR 
 unknown system                          
     46    232     36
 
  0.3742002E-15  0.3742002E-15  0.3742002E-15  0.2164502E-02
    1      -33.567906   1.000000
    2      -33.268037   1.000000
    3      -29.460587   1.000000
    4      -29.318899   1.000000
    5      -29.277141   1.000000
    6      -15.766752   1.000000
    7      -15.678563   1.000000
    8      -15.494699   1.000000
    9      -15.446370   1.000000
   10      -15.349500   1.000000
   11      -15.228408   1.000000
   12       -8.407206   1.000000
   13       -6.584747   1.000000
   14       -5.929794   1.000000
   15       -5.109697   1.000000
   16       -3.300430   1.000000
   17       -2.788351   1.000000
   18       -2.389002   1.000000
   19       -2.085197   1.000000
   20       -0.629674   1.000000
   21       -0.434851   1.000000
   22       -0.287107   1.000000
   23       -0.071149   0.995742
   24        3.602053   0.000000
   25        3.633869   0.000000
   26        4.008343   0.000000
   27        4.356651   0.000000
   28        4.452457   0.000000
   29        4.978371   0.000000
   30        5.444057   0.000000
   31        5.894061   0.000000
   32        6.164995   0.000000
   33        6.407465   0.000000
   34        7.010355   0.000000
   35        7.278320   0.000000
   36        7.590378   0.000000
 
  0.9090909E-01  0.3764350E-15  0.3677614E-15  0.4329004E-02
    1      -33.566583   1.000000
    2      -33.266808   1.000000
    3      -29.460321   1.000000
    4      -29.323018   1.000000
    5      -29.276817   1.000000
    6      -15.760168   1.000000
    7      -15.674785   1.000000
    8      -15.521336   1.000000
    9      -15.443085   1.000000
   10      -15.349640   1.000000
   11      -15.252331   1.000000
   12       -8.344711   1.000000
   13       -6.576456   1.000000
   14       -5.944566   1.000000
   15       -5.039615   1.000000
   16       -3.265060   1.000000
   17       -2.749096   1.000000
   18       -2.374999   1.000000
   19       -2.050429   1.000000
   20       -0.710739   1.000000
   21       -0.592274   1.000000
   22       -0.362544   1.000000
   23       -0.153391   0.999724
   24        3.361913   0.000000
   25        3.786820   0.000000
   26        4.102578   0.000000
   27        4.256964   0.000000
   28        4.590039   0.000000
   29        4.941749   0.000000
   30        5.477093   0.000000
   31        5.867402   0.000000
   32        6.095917   0.000000
   33        6.475041   0.000000
   34        6.919783   0.000000
   35        7.489413   0.000000
   36        7.739410   0.000000
 
  0.1818182E+00  0.3747003E-15  0.3469447E-15  0.4329004E-02
    1      -33.563040   1.000000
    2      -33.263508   1.000000
    3      -29.459531   1.000000
    4      -29.334496   1.000000
    5      -29.275884   1.000000
    6      -15.742870   1.000000
    7      -15.664138   1.000000
    8      -15.588903   1.000000
    9      -15.438488   1.000000
   10      -15.350748   1.000000
   11      -15.314026   1.000000
   12       -8.171406   1.000000
   13       -6.552604   1.000000
   14       -6.016202   1.000000
   15       -4.836590   1.000000
   16       -3.162023   1.000000
   17       -2.648217   1.000000
   18       -2.345027   1.000000
   19       -1.968140   1.000000
   20       -0.948518   1.000000
   21       -0.907503   1.000000
   22       -0.605138   1.000000
   23       -0.361346   1.000000
   24        3.131521   0.000000
   25        3.755768   0.000000
   26        4.112213   0.000000
   27        4.381998   0.000000
   28        4.748621   0.000000
   29        4.932929   0.000000
   30        5.412558   0.000000
   31        5.869829   0.000000
   32        6.189335   0.000000
   33        6.634568   0.000000
   34        6.951540   0.000000
   35        7.530131   0.000000
   36        7.737946   0.000000
 
  0.2727273E+00  0.3833739E-15  0.3330669E-15  0.4329004E-02
    1      -33.558380   1.000000
    2      -33.259173   1.000000
    3      -29.458448   1.000000
    4      -29.349277   1.000000
    5      -29.274597   1.000000
    6      -15.726887   1.000000
    7      -15.668405   1.000000
    8      -15.648176   1.000000
    9      -15.443277   1.000000
   10      -15.388971   1.000000
   11      -15.346636   1.000000
   12       -7.917119   1.000000
   13       -6.513100   1.000000
   14       -6.152885   1.000000
   15       -4.523995   1.000000
   16       -3.000943   1.000000
   17       -2.539452   1.000000
   18       -2.324560   1.000000
   19       -1.902446   1.000000
   20       -1.303697   1.000000
   21       -1.179631   1.000000
   22       -0.901534   1.000000
   23       -0.611945   1.000000
   24        2.972568   0.000000
   25        3.540294   0.000000
   26        4.128703   0.000000
   27        4.446229   0.000000
   28        4.776274   0.000000
   29        5.073644   0.000000
   30        5.564963   0.000000
   31        6.011246   0.000000
   32        6.436347   0.000000
   33        6.604463   0.000000
   34        7.030488   0.000000
   35        7.348907   0.000000
   36        7.500007   0.000000
 
  0.3636364E+00  0.3816392E-15  0.3608225E-15  0.4329004E-02
    1      -33.554091   1.000000
    2      -33.255189   1.000000
    3      -29.457487   1.000000
    4      -29.362866   1.000000
    5      -29.273411   1.000000
    6      -15.765662   1.000000
    7      -15.687409   1.000000
    8      -15.631757   1.000000
    9      -15.483442   1.000000
   10      -15.416710   1.000000
   11      -15.346240   1.000000
   12       -7.624770   1.000000
   13       -6.484968   1.000000
   14       -6.336086   1.000000
   15       -4.158843   1.000000
   16       -2.828156   1.000000
   17       -2.549948   1.000000
   18       -2.300622   1.000000
   19       -1.900342   1.000000
   20       -1.566897   1.000000
   21       -1.423858   1.000000
   22       -1.116344   1.000000
   23       -0.812106   1.000000
   24        2.881846   0.000000
   25        3.303694   0.000000
   26        4.175089   0.000000
   27        4.319381   0.000000
   28        4.799432   0.000000
   29        5.261276   0.000000
   30        5.857995   0.000000
   31        6.152938   0.000000
   32        6.463950   0.000000
   33        6.772466   0.000000
   34        6.984737   0.000000
   35        7.262423   0.000000
   36        7.441429   0.000000
 
  0.4545455E+00  0.3851086E-15  0.3885781E-15  0.4329004E-02
    1      -33.551535   1.000000
    2      -33.252816   1.000000
    3      -29.456889   1.000000
    4      -29.370880   1.000000
    5      -29.272721   1.000000
    6      -15.807709   1.000000
    7      -15.681724   1.000000
    8      -15.620232   1.000000
    9      -15.516681   1.000000
   10      -15.422476   1.000000
   11      -15.345027   1.000000
   12       -7.382386   1.000000
   13       -6.583214   1.000000
   14       -6.399753   1.000000
   15       -3.855862   1.000000
   16       -2.838994   1.000000
   17       -2.571294   1.000000
   18       -2.229701   1.000000
   19       -1.972936   1.000000
   20       -1.714675   1.000000
   21       -1.531832   1.000000
   22       -1.211542   1.000000
   23       -0.912511   1.000000
   24        2.833071   0.000000
   25        3.178642   0.000000
   26        4.176689   0.000000
   27        4.199674   0.000000
   28        4.843777   0.000000
   29        5.400864   0.000000
   30        5.818766   0.000000
   31        6.274979   0.000000
   32        6.647794   0.000000
   33        6.845760   0.000000
   34        6.929656   0.000000
   35        7.393020   0.000000
   36        7.671844   0.000000
 
  0.3773024E-15  0.1428571E+00  0.3747003E-15  0.4329004E-02
    1      -33.567854   1.000000
    2      -33.268114   1.000000
    3      -29.460567   1.000000
    4      -29.318790   1.000000
    5      -29.277089   1.000000
    6      -15.762761   1.000000
    7      -15.680227   1.000000
    8      -15.493949   1.000000
    9      -15.447864   1.000000
   10      -15.354004   1.000000
   11      -15.228936   1.000000
   12       -8.357103   1.000000
   13       -6.623134   1.000000
   14       -5.924419   1.000000
   15       -5.120819   1.000000
   16       -3.324753   1.000000
   17       -2.806308   1.000000
   18       -2.423114   1.000000
   19       -2.062989   1.000000
   20       -0.678126   1.000000
   21       -0.450637   1.000000
   22       -0.210171   0.999987
   23       -0.056380   0.995085
   24        3.574206   0.000000
   25        3.739619   0.000000
   26        4.032855   0.000000
   27        4.293811   0.000000
   28        4.533683   0.000000
   29        4.982309   0.000000
   30        5.393806   0.000000
   31        5.804601   0.000000
   32        6.302512   0.000000
   33        6.583654   0.000000
   34        6.938172   0.000000
   35        7.191957   0.000000
   36        7.651254   0.000000
 
  0.9090909E-01  0.1428571E+00  0.3747003E-15  0.4329004E-02
    1      -33.566551   1.000000
    2      -33.266888   1.000000
    3      -29.460224   1.000000
    4      -29.323033   1.000000
    5      -29.276712   1.000000
    6      -15.755521   1.000000
    7      -15.677131   1.000000
    8      -15.522344   1.000000
    9      -15.446087   1.000000
   10      -15.353388   1.000000
   11      -15.251439   1.000000
   12       -8.281144   1.000000
   13       -6.641408   1.000000
   14       -5.919935   1.000000
   15       -5.042550   1.000000
   16       -3.325173   1.000000
   17       -2.782322   1.000000
   18       -2.377850   1.000000
   19       -2.047139   1.000000
   20       -0.734004   1.000000
   21       -0.522981   1.000000
   22       -0.369486   1.000000
   23       -0.141322   0.999524
   24        3.503903   0.000000
   25        3.774031   0.000000
   26        4.094910   0.000000
   27        4.183326   0.000000
   28        4.600045   0.000000
   29        5.019531   0.000000
   30        5.500634   0.000000
   31        5.678790   0.000000
   32        6.144752   0.000000
   33        6.763261   0.000000
   34        6.849752   0.000000
   35        7.281144   0.000000
   36        7.675303   0.000000
 
  0.1818182E+00  0.1428571E+00  0.3885781E-15  0.4329004E-02
    1      -33.563023   1.000000
    2      -33.263578   1.000000
    3      -29.459449   1.000000
    4      -29.334465   1.000000
    5      -29.275704   1.000000
    6      -15.738088   1.000000
    7      -15.666735   1.000000
    8      -15.592630   1.000000
    9      -15.443235   1.000000
   10      -15.354083   1.000000
   11      -15.308698   1.000000
   12       -8.105473   1.000000
   13       -6.624509   1.000000
   14       -5.978311   1.000000
   15       -4.835747   1.000000
   16       -3.249569   1.000000
   17       -2.692689   1.000000
   18       -2.334383   1.000000
   19       -1.994692   1.000000
   20       -0.936496   1.000000
   21       -0.759346   1.000000
   22       -0.669966   1.000000
   23       -0.342893   1.000000
   24        3.259228   0.000000
   25        3.778101   0.000000
   26        3.938587   0.000000
   27        4.416450   0.000000
   28        4.704715   0.000000
   29        5.021198   0.000000
   30        5.518625   0.000000
   31        5.807290   0.000000
   32        6.098315   0.000000
   33        6.713605   0.000000
   34        6.820020   0.000000
   35        7.403444   0.000000
   36        7.668441   0.000000
 
  0.2727273E+00  0.1428571E+00  0.3330669E-15  0.4329004E-02
    1      -33.558380   1.000000
    2      -33.259229   1.000000
    3      -29.458410   1.000000
    4      -29.349419   1.000000
    5      -29.274505   1.000000
    6      -15.721031   1.000000
    7      -15.676672   1.000000
    8      -15.650674   1.000000
    9      -15.451008   1.000000
   10      -15.382839   1.000000
   11      -15.343767   1.000000
   12       -7.860689   1.000000
   13       -6.570188   1.000000
   14       -6.121195   1.000000
   15       -4.523358   1.000000
   16       -3.110420   1.000000
   17       -2.582161   1.000000
   18       -2.335843   1.000000
   19       -1.967118   1.000000
   20       -1.205712   1.000000
   21       -1.046004   1.000000
   22       -0.951021   1.000000
   23       -0.590204   1.000000
   24        3.052937   0.000000
   25        3.546391   0.000000
   26        3.944652   0.000000
   27        4.453694   0.000000
   28        4.858818   0.000000
   29        5.113091   0.000000
   30        5.695609   0.000000
   31        5.802756   0.000000
   32        6.282958   0.000000
   33        6.565629   0.000000
   34        6.917438   0.000000
   35        7.382765   0.000000
   36        7.657991   0.000000
 
  0.3636364E+00  0.1428571E+00  0.4163336E-15  0.4329004E-02
    1      -33.554088   1.000000
    2      -33.255212   1.000000
    3      -29.457408   1.000000
    4      -29.362761   1.000000
    5      -29.273319   1.000000
    6      -15.766408   1.000000
    7      -15.691810   1.000000
    8      -15.635581   1.000000
    9      -15.483506   1.000000
   10      -15.410881   1.000000
   11      -15.344174   1.000000
   12       -7.585847   1.000000
   13       -6.498672   1.000000
   14       -6.326119   1.000000
   15       -4.161243   1.000000
   16       -2.936798   1.000000
   17       -2.591209   1.000000
   18       -2.344749   1.000000
   19       -1.981927   1.000000
   20       -1.423476   1.000000
   21       -1.333687   1.000000
   22       -1.107987   1.000000
   23       -0.785807   1.000000
   24        2.934633   0.000000
   25        3.323935   0.000000
   26        3.952147   0.000000
   27        4.356868   0.000000
   28        4.962006   0.000000
   29        5.280866   0.000000
   30        5.737879   0.000000
   31        5.945704   0.000000
   32        6.435458   0.000000
   33        6.706330   0.000000
   34        7.052305   0.000000
   35        7.306519   0.000000
   36        7.552232   0.000000
 
  0.4545455E+00  0.1428571E+00  0.4163336E-15  0.4329004E-02
    1      -33.551528   1.000000
    2      -33.252818   1.000000
    3      -29.456815   1.000000
    4      -29.370787   1.000000
    5      -29.272657   1.000000
    6      -15.811080   1.000000
    7      -15.686785   1.000000
    8      -15.625875   1.000000
    9      -15.507287   1.000000
   10      -15.419315   1.000000
   11      -15.342969   1.000000
   12       -7.361841   1.000000
   13       -6.569275   1.000000
   14       -6.397621   1.000000
   15       -3.877900   1.000000
   16       -2.862572   1.000000
   17       -2.682145   1.000000
   18       -2.256599   1.000000
   19       -1.999339   1.000000
   20       -1.675439   1.000000
   21       -1.453926   1.000000
   22       -1.182393   1.000000
   23       -0.877074   1.000000
   24        2.905348   0.000000
   25        3.203540   0.000000
   26        3.936844   0.000000
   27        4.325941   0.000000
   28        4.999697   0.000000
   29        5.307941   0.000000
   30        5.701996   0.000000
   31        6.160619   0.000000
   32        6.665058   0.000000
   33        6.838240   0.000000
   34        7.027631   0.000000
   35        7.333790   0.000000
   36        7.763363   0.000000
 
 -0.4545455E+00  0.1428571E+00  0.3885781E-15  0.4329004E-02
    1      -33.551516   1.000000
    2      -33.252806   1.000000
    3      -29.456831   1.000000
    4      -29.370853   1.000000
    5      -29.272722   1.000000
    6      -15.812623   1.000000
    7      -15.686780   1.000000
    8      -15.625059   1.000000
    9      -15.503428   1.000000
   10      -15.421262   1.000000
   11      -15.343204   1.000000
   12       -7.376528   1.000000
   13       -6.586096   1.000000
   14       -6.367459   1.000000
   15       -3.914958   1.000000
   16       -2.815700   1.000000
   17       -2.627213   1.000000
   18       -2.204052   1.000000
   19       -1.968763   1.000000
   20       -1.796672   1.000000
   21       -1.558862   1.000000
   22       -1.157549   1.000000
   23       -0.856218   1.000000
   24        2.927096   0.000000
   25        3.223972   0.000000
   26        3.992939   0.000000
   27        4.351221   0.000000
   28        5.044966   0.000000
   29        5.229146   0.000000
   30        5.676081   0.000000
   31        6.323022   0.000000
   32        6.564484   0.000000
   33        6.824880   0.000000
   34        7.095938   0.000000
   35        7.341986   0.000000
   36        7.727721   0.000000
 
 -0.3636364E+00  0.1428571E+00  0.4163336E-15  0.4329004E-02
    1      -33.554054   1.000000
    2      -33.255183   1.000000
    3      -29.457449   1.000000
    4      -29.362926   1.000000
    5      -29.273483   1.000000
    6      -15.772812   1.000000
    7      -15.688816   1.000000
    8      -15.633101   1.000000
    9      -15.471029   1.000000
   10      -15.418558   1.000000
   11      -15.345190   1.000000
   12       -7.628811   1.000000
   13       -6.437197   1.000000
   14       -6.349406   1.000000
   15       -4.231678   1.000000
   16       -2.754438   1.000000
   17       -2.583055   1.000000
   18       -2.268109   1.000000
   19       -1.854774   1.000000
   20       -1.705045   1.000000
   21       -1.572998   1.000000
   22       -1.044672   1.000000
   23       -0.727054   1.000000
   24        2.957447   0.000000
   25        3.414651   0.000000
   26        4.104179   0.000000
   27        4.409630   0.000000
   28        4.995236   0.000000
   29        5.149312   0.000000
   30        5.608260   0.000000
   31        6.296070   0.000000
   32        6.419122   0.000000
   33        6.839895   0.000000
   34        6.913304   0.000000
   35        7.255980   0.000000
   36        7.444417   0.000000
 
 -0.2727273E+00  0.1428571E+00  0.4163336E-15  0.4329004E-02
    1      -33.558326   1.000000
    2      -33.259183   1.000000
    3      -29.458447   1.000000
    4      -29.349231   1.000000
    5      -29.274617   1.000000
    6      -15.734014   1.000000
    7      -15.668305   1.000000
    8      -15.645358   1.000000
    9      -15.434811   1.000000
   10      -15.390708   1.000000
   11      -15.347353   1.000000
   12       -7.916658   1.000000
   13       -6.452446   1.000000
   14       -6.183992   1.000000
   15       -4.591967   1.000000
   16       -2.932648   1.000000
   17       -2.508947   1.000000
   18       -2.360709   1.000000
   19       -1.888320   1.000000
   20       -1.418733   1.000000
   21       -1.328137   1.000000
   22       -0.823008   1.000000
   23       -0.511405   1.000000
   24        3.025410   0.000000
   25        3.683492   0.000000
   26        4.151874   0.000000
   27        4.465890   0.000000
   28        4.884795   0.000000
   29        5.086155   0.000000
   30        5.380270   0.000000
   31        6.198887   0.000000
   32        6.300161   0.000000
   33        6.541708   0.000000
   34        6.986694   0.000000
   35        7.241927   0.000000
   36        7.440086   0.000000
 
 -0.1818182E+00  0.1428571E+00  0.3920475E-15  0.4329004E-02
    1      -33.562977   1.000000
    2      -33.263548   1.000000
    3      -29.459539   1.000000
    4      -29.334516   1.000000
    5      -29.275908   1.000000
    6      -15.743519   1.000000
    7      -15.664399   1.000000
    8      -15.588660   1.000000
    9      -15.435426   1.000000
   10      -15.351550   1.000000
   11      -15.315488   1.000000
   12       -8.159659   1.000000
   13       -6.513784   1.000000
   14       -6.041601   1.000000
   15       -4.890454   1.000000
   16       -3.115313   1.000000
   17       -2.615057   1.000000
   18       -2.418643   1.000000
   19       -1.952064   1.000000
   20       -1.089732   1.000000
   21       -0.960688   1.000000
   22       -0.529824   1.000000
   23       -0.273036   1.000000
   24        3.150020   0.000000
   25        3.872167   0.000000
   26        4.132345   0.000000
   27        4.442579   0.000000
   28        4.698488   0.000000
   29        5.018413   0.000000
   30        5.371327   0.000000
   31        6.021723   0.000000
   32        6.194824   0.000000
   33        6.382931   0.000000
   34        7.013554   0.000000
   35        7.261077   0.000000
   36        7.674168   0.000000
 
 -0.9090909E-01  0.1428571E+00  0.3955170E-15  0.4329004E-02
    1      -33.566521   1.000000
    2      -33.266868   1.000000
    3      -29.460319   1.000000
    4      -29.323010   1.000000
    5      -29.276784   1.000000
    6      -15.757701   1.000000
    7      -15.675462   1.000000
    8      -15.521449   1.000000
    9      -15.441952   1.000000
   10      -15.353076   1.000000
   11      -15.253275   1.000000
   12       -8.313211   1.000000
   13       -6.573043   1.000000
   14       -5.961575   1.000000
   15       -5.070672   1.000000
   16       -3.250644   1.000000
   17       -2.745537   1.000000
   18       -2.436490   1.000000
   19       -2.024313   1.000000
   20       -0.798593   1.000000
   21       -0.633005   1.000000
   22       -0.278344   1.000000
   23       -0.102287   0.997959
   24        3.335176   0.000000
   25        3.885313   0.000000
   26        4.090467   0.000000
   27        4.406443   0.000000
   28        4.468300   0.000000
   29        5.029808   0.000000
   30        5.395862   0.000000
   31        5.977133   0.000000
   32        6.177643   0.000000
   33        6.374926   0.000000
   34        6.944749   0.000000
   35        7.384390   0.000000
   36        7.722767   0.000000
 
  0.3660267E-15  0.2857143E+00  0.4440892E-15  0.4329004E-02
    1      -33.567751   1.000000
    2      -33.268297   1.000000
    3      -29.460556   1.000000
    4      -29.318778   1.000000
    5      -29.276942   1.000000
    6      -15.753006   1.000000
    7      -15.684926   1.000000
    8      -15.492462   1.000000
    9      -15.451682   1.000000
   10      -15.363649   1.000000
   11      -15.230423   1.000000
   12       -8.238957   1.000000
   13       -6.701084   1.000000
   14       -5.929010   1.000000
   15       -5.143317   1.000000
   16       -3.406882   1.000000
   17       -2.818744   1.000000
   18       -2.508142   1.000000
   19       -2.009431   1.000000
   20       -0.741851   1.000000
   21       -0.473587   1.000000
   22       -0.164997   0.999843
   23        0.038882   1.046476
   24        3.609631   0.000000
   25        3.917761   0.000000
   26        4.104136   0.000000
   27        4.202621   0.000000
   28        4.733994   0.000000
   29        5.014456   0.000000
   30        5.325650   0.000000
   31        5.654483   0.000000
   32        6.373982   0.000000
   33        6.531707   0.000000
   34        7.015113   0.000000
   35        7.095707   0.000000
   36        7.646693   0.000000
 
  0.9090909E-01  0.2857143E+00  0.4163336E-15  0.4329004E-02
    1      -33.566453   1.000000
    2      -33.267056   1.000000
    3      -29.460199   1.000000
    4      -29.323021   1.000000
    5      -29.276581   1.000000
    6      -15.746728   1.000000
    7      -15.681275   1.000000
    8      -15.524495   1.000000
    9      -15.449063   1.000000
   10      -15.360544   1.000000
   11      -15.251601   1.000000
   12       -8.164884   1.000000
   13       -6.716611   1.000000
   14       -5.917709   1.000000
   15       -5.073971   1.000000
   16       -3.413235   1.000000
   17       -2.799797   1.000000
   18       -2.454093   1.000000
   19       -2.004865   1.000000
   20       -0.801481   1.000000
   21       -0.529462   1.000000
   22       -0.332289   1.000000
   23       -0.035335   0.996439
   24        3.637064   0.000000
   25        3.887145   0.000000
   26        4.106763   0.000000
   27        4.223849   0.000000
   28        4.644316   0.000000
   29        5.115811   0.000000
   30        5.386936   0.000000
   31        5.636102   0.000000
   32        6.179311   0.000000
   33        6.597638   0.000000
   34        6.881052   0.000000
   35        7.054273   0.000000
   36        7.483599   0.000000
 
  0.1818182E+00  0.2857143E+00  0.4163336E-15  0.4329004E-02
    1      -33.562945   1.000000
    2      -33.263709   1.000000
    3      -29.459394   1.000000
    4      -29.334483   1.000000
    5      -29.275597   1.000000
    6      -15.731878   1.000000
    7      -15.670768   1.000000
    8      -15.598477   1.000000
    9      -15.445467   1.000000
   10      -15.356747   1.000000
   11      -15.305586   1.000000
   12       -8.007628   1.000000
   13       -6.673844   1.000000
   14       -5.964845   1.000000
   15       -4.885979   1.000000
   16       -3.341036   1.000000
   17       -2.712051   1.000000
   18       -2.390855   1.000000
   19       -1.987427   1.000000
   20       -1.012027   1.000000
   21       -0.765783   1.000000
   22       -0.593379   1.000000
   23       -0.235575   0.999998
   24        3.458160   0.000000
   25        3.845509   0.000000
   26        3.974599   0.000000
   27        4.461753   0.000000
   28        4.612524   0.000000
   29        5.151833   0.000000
   30        5.420678   0.000000
   31        5.810202   0.000000
   32        6.162445   0.000000
   33        6.447851   0.000000
   34        6.642537   0.000000
   35        7.261530   0.000000
   36        7.531837   0.000000
 
  0.2727273E+00  0.2857143E+00  0.3885781E-15  0.4329004E-02
    1      -33.558321   1.000000
    2      -33.259308   1.000000
    3      -29.458347   1.000000
    4      -29.349360   1.000000
    5      -29.274362   1.000000
    6      -15.718318   1.000000
    7      -15.688224   1.000000
    8      -15.652593   1.000000
    9      -15.450760   1.000000
   10      -15.376305   1.000000
   11      -15.341911   1.000000
   12       -7.786740   1.000000
   13       -6.580390   1.000000
   14       -6.106250   1.000000
   15       -4.589087   1.000000
   16       -3.204337   1.000000
   17       -2.595840   1.000000
   18       -2.391961   1.000000
   19       -1.992269   1.000000
   20       -1.257479   1.000000
   21       -1.075969   1.000000
   22       -0.832562   1.000000
   23       -0.472515   1.000000
   24        3.234010   0.000000
   25        3.628403   0.000000
   26        3.919175   0.000000
   27        4.489205   0.000000
   28        4.866158   0.000000
   29        5.312147   0.000000
   30        5.367023   0.000000
   31        5.659053   0.000000
   32        6.253188   0.000000
   33        6.482138   0.000000
   34        6.855385   0.000000
   35        7.344734   0.000000
   36        7.814575   0.000000
 
  0.3636364E+00  0.2857143E+00  0.4440892E-15  0.4329004E-02
    1      -33.554054   1.000000
    2      -33.255245   1.000000
    3      -29.457358   1.000000
    4      -29.362831   1.000000
    5      -29.273206   1.000000
    6      -15.773979   1.000000
    7      -15.699485   1.000000
    8      -15.640912   1.000000
    9      -15.471928   1.000000
   10      -15.405299   1.000000
   11      -15.340655   1.000000
   12       -7.538808   1.000000
   13       -6.473440   1.000000
   14       -6.319452   1.000000
   15       -4.238237   1.000000
   16       -3.035326   1.000000
   17       -2.622878   1.000000
   18       -2.404099   1.000000
   19       -2.018632   1.000000
   20       -1.419769   1.000000
   21       -1.349773   1.000000
   22       -1.013199   1.000000
   23       -0.666749   1.000000
   24        3.104951   0.000000
   25        3.406611   0.000000
   26        3.819756   0.000000
   27        4.502871   0.000000
   28        5.005286   0.000000
   29        5.199574   0.000000
   30        5.469516   0.000000
   31        5.875267   0.000000
   32        6.443327   0.000000
   33        6.579516   0.000000
   34        7.116123   0.000000
   35        7.397846   0.000000
   36        7.731504   0.000000
 
  0.4545455E+00  0.2857143E+00  0.4996004E-15  0.4329004E-02
    1      -33.551502   1.000000
    2      -33.252816   1.000000
    3      -29.456801   1.000000
    4      -29.370825   1.000000
    5      -29.272650   1.000000
    6      -15.820025   1.000000
    7      -15.699017   1.000000
    8      -15.632736   1.000000
    9      -15.486958   1.000000
   10      -15.414851   1.000000
   11      -15.338392   1.000000
   12       -7.333917   1.000000
   13       -6.560100   1.000000
   14       -6.361097   1.000000
   15       -3.965104   1.000000
   16       -2.942671   1.000000
   17       -2.740882   1.000000
   18       -2.330595   1.000000
   19       -2.046759   1.000000
   20       -1.634183   1.000000
   21       -1.435173   1.000000
   22       -1.114678   1.000000
   23       -0.767742   1.000000
   24        3.091008   0.000000
   25        3.291758   0.000000
   26        3.767206   0.000000
   27        4.460295   0.000000
   28        4.925833   0.000000
   29        5.249734   0.000000
   30        5.552365   0.000000
   31        6.135298   0.000000
   32        6.653186   0.000000
   33        6.722187   0.000000
   34        7.254792   0.000000
   35        7.327364   0.000000
   36        7.794493   0.000000
 
 -0.4545455E+00  0.2857143E+00  0.4440892E-15  0.4329004E-02
    1      -33.551487   1.000000
    2      -33.252802   1.000000
    3      -29.456821   1.000000
    4      -29.370821   1.000000
    5      -29.272741   1.000000
    6      -15.821882   1.000000
    7      -15.698947   1.000000
    8      -15.631072   1.000000
    9      -15.482660   1.000000
   10      -15.417414   1.000000
   11      -15.338685   1.000000
   12       -7.351816   1.000000
   13       -6.576283   1.000000
   14       -6.327020   1.000000
   15       -4.006707   1.000000
   16       -2.881681   1.000000
   17       -2.665719   1.000000
   18       -2.308690   1.000000
   19       -2.037732   1.000000
   20       -1.748939   1.000000
   21       -1.522727   1.000000
   22       -1.101610   1.000000
   23       -0.744981   1.000000
   24        3.081171   0.000000
   25        3.405946   0.000000
   26        3.831028   0.000000
   27        4.372792   0.000000
   28        4.922705   0.000000
   29        5.375602   0.000000