       N       E                     dE             d eps       ncg     rms          rms(c)
DAV:   1     0.175106963580E+03    0.17511E+03   -0.16624E+04  8064   0.702E+02
DAV:   2    -0.535017106212E+02   -0.22861E+03   -0.21379E+03  8512   0.206E+02
DAV:   3    -0.661808159917E+02   -0.12679E+02   -0.12557E+02 13648   0.479E+01
DAV:   4    -0.663422926203E+02   -0.16148E+00   -0.16131E+00  9824   0.373E+00
DAV:   5    -0.663456664578E+02   -0.33738E-02   -0.33735E-02 12304   0.495E-01    0.393E+01
RMM:   6    -0.697739206264E+02   -0.34283E+01   -0.33152E+00  8382   0.580E+00    0.216E+01
RMM:   7    -0.689054666475E+02    0.86845E+00   -0.20203E+00  8486   0.646E+00    0.975E+00
RMM:   8    -0.691663484051E+02   -0.26088E+00   -0.32513E-01  8286   0.335E+00    0.530E+00
RMM:   9    -0.691952246558E+02   -0.28876E-01   -0.59801E-02  8147   0.128E+00    0.232E+00
RMM:  10    -0.692041269752E+02   -0.89023E-02   -0.22908E-02  7865   0.878E-01    0.144E+00
RMM:  11    -0.692078676275E+02   -0.37407E-02   -0.75749E-03  7653   0.465E-01    0.639E-01
RMM:  12    -0.692086075282E+02   -0.73990E-03   -0.16169E-03  7055   0.288E-01
   1 F= -.69208608E+02 E0= -.69208608E+02  d E =-.692086E+02  mag=    -0.0005
       N       E                     dE             d eps       ncg     rms          rms(c)
DAV:   1    -0.694752443696E+02   -0.26738E+00   -0.27756E+00 12464   0.813E+00    0.513E+00
RMM:   2    -0.693400890462E+02    0.13516E+00   -0.27566E-01  8376   0.214E+00    0.104E+00
RMM:   3    -0.693153536593E+02    0.24735E-01   -0.25371E-02  8407   0.103E+00    0.802E-01
RMM:   4    -0.693107620716E+02    0.45916E-02   -0.77809E-03  8069   0.444E-01    0.795E-01
RMM:   5    -0.693104402200E+02    0.32185E-03   -0.58452E-03  8122   0.374E-01
   2 F= -.69310440E+02 E0= -.69310440E+02  d E =-.101833E+00  mag=    -0.0000
       N       E                     dE             d eps       ncg     rms          rms(c)
DAV:   1    -0.701770807189E+02   -0.86632E+00   -0.13131E+01 11088   0.175E+01    0.110E+01
RMM:   2    -0.695548457996E+02    0.62223E+00   -0.13416E+00  8301   0.468E+00    0.237E+00
RMM:   3    -0.694059804778E+02    0.14887E+00   -0.12381E-01  8283   0.225E+00    0.186E+00
RMM:   4    -0.693852102935E+02    0.20770E-01   -0.35440E-02  8780   0.892E-01    0.199E+00
RMM:   5    -0.693832586063E+02    0.19517E-02   -0.28294E-02  9226   0.792E-01    0.562E-01
RMM:   6    -0.693842195491E+02   -0.96094E-03   -0.15510E-02  8944   0.390E-01    0.171E-01
RMM:   7    -0.693848150085E+02   -0.59546E-03   -0.50278E-03  7794   0.284E-01
   3 F= -.69384815E+02 E0= -.69384815E+02  d E =-.176207E+00  mag=    -0.0000
       N       E                     dE             d eps       ncg     rms          rms(c)
DAV:   1    -0.694977173619E+02   -0.11350E+00   -0.21841E+00 10032   0.625E+00    0.272E+00
RMM:   2    -0.694404121360E+02    0.57305E-01   -0.14619E-01  8444   0.176E+00    0.971E-01
RMM:   3    -0.694302676001E+02    0.10145E-01   -0.12711E-02  8300   0.749E-01    0.642E-01
RMM:   4    -0.694290768720E+02    0.11907E-02   -0.34928E-03  7313   0.303E-01    0.596E-01
RMM:   5    -0.694291338453E+02   -0.56973E-04   -0.25285E-03  7276   0.281E-01
   4 F= -.69429134E+02 E0= -.69429134E+02  d E =-.443188E-01  mag=    -0.0000
       N       E                     dE             d eps       ncg     rms          rms(c)
DAV:   1    -0.694343138477E+02   -0.52370E-02   -0.13521E-01 10976   0.157E+00    0.699E-01
RMM:   2    -0.694303623550E+02    0.39515E-02   -0.87248E-03  8343   0.399E-01    0.201E-01
RMM:   3    -0.694296812468E+02    0.68111E-03   -0.68380E-04  5796   0.203E-01
   5 F= -.69429681E+02 E0= -.69429681E+02  d E =-.448662E-01  mag=    -0.0000
       N       E                     dE             d eps       ncg     rms          rms(c)
DAV:   1    -0.695465896954E+02   -0.11623E+00   -0.19125E+00  8256   0.559E+00    0.226E+00
RMM:   2    -0.694899793982E+02    0.56610E-01   -0.13035E-01  8387   0.171E+00    0.129E+00
RMM:   3    -0.694809346376E+02    0.90448E-02   -0.10948E-02  8146   0.669E-01    0.815E-01
RMM:   4    -0.694797135830E+02    0.12211E-02   -0.32945E-03  7104   0.295E-01    0.743E-01
RMM:   5    -0.694796847542E+02    0.28829E-04   -0.22569E-03  6878   0.229E-01
   6 F= -.69479685E+02 E0= -.69479685E+02  d E =-.500035E-01  mag=     0.0000
       N       E                     dE             d eps       ncg     rms          rms(c)
DAV:   1    -0.697664569866E+02   -0.28674E+00   -0.72059E+00  8704   0.108E+01    0.452E+00
RMM:   2    -0.695587325091E+02    0.20772E+00   -0.48890E-01  8380   0.324E+00    0.240E+00
RMM:   3    -0.695260207527E+02    0.32712E-01   -0.39892E-02  8286   0.131E+00    0.153E+00
RMM:   4    -0.695220250510E+02    0.39957E-02   -0.11348E-02  7989   0.524E-01    0.129E+00
RMM:   5    -0.695216213119E+02    0.40374E-03   -0.75773E-03  8010   0.389E-01
   7 F= -.69521621E+02 E0= -.69521621E+02  d E =-.919401E-01  mag=    -0.0000
       N       E                     dE             d eps       ncg     rms          rms(c)
DAV:   1    -0.695632313398E+02   -0.41206E-01   -0.13898E+00 10016   0.531E+00    0.124E+00
RMM:   2    -0.695466511262E+02    0.16580E-01   -0.10950E-01  8471   0.133E+00    0.634E-01
RMM:   3    -0.695432896162E+02    0.33615E-02   -0.78840E-03  8138   0.746E-01    0.521E-01
RMM:   4    -0.695430196257E+02    0.26999E-03   -0.17584E-03  6883   0.210E-01
   8 F= -.69543020E+02 E0= -.69543020E+02  d E =-.213983E-01  mag=     0.0000
       N       E                     dE             d eps       ncg     rms          rms(c)
DAV:   1    -0.695431570132E+02    0.13260E-03   -0.14252E-03 11424   0.191E-01    0.142E-01
RMM:   2    -0.695431269353E+02    0.30078E-04   -0.13942E-04  4160   0.423E-02
   9 F= -.69543127E+02 E0= -.69543127E+02  d E =-.215056E-01  mag=    -0.0000
       N       E                     dE             d eps       ncg     rms          rms(c)
DAV:   1    -0.695757153305E+02   -0.32558E-01   -0.12629E+00  8064   0.526E+00    0.873E-01
RMM:   2    -0.695708650534E+02    0.48503E-02   -0.91226E-02  8554   0.121E+00    0.507E-01
RMM:   3    -0.695687594623E+02    0.21056E-02   -0.51984E-03  7826   0.635E-01    0.443E-01
RMM:   4    -0.695684146342E+02    0.34483E-03   -0.98889E-04  6372   0.179E-01
  10 F= -.69568415E+02 E0= -.69568415E+02  d E =-.252877E-01  mag=    -0.0000
       N       E                     dE             d eps       ncg     rms          rms(c)
DAV:   1    -0.696643403520E+02   -0.95581E-01   -0.11330E+01  8064   0.158E+01    0.277E+00
RMM:   2    -0.696236201394E+02    0.40720E-01   -0.83198E-01  8634   0.369E+00    0.166E+00
RMM:   3    -0.696044592082E+02    0.19161E-01   -0.46645E-02  8218   0.183E+00    0.127E+00
RMM:   4    -0.696006808430E+02    0.37784E-02   -0.12110E-02  8428   0.534E-01    0.821E-01
RMM:   5    -0.695997210706E+02    0.95977E-03   -0.46561E-03  7756   0.340E-01    0.323E-01
RMM:   6    -0.695999032033E+02   -0.18213E-03   -0.21712E-03  7018   0.201E-01
  11 F= -.69599903E+02 E0= -.69599903E+02  d E =-.567763E-01  mag=     0.0000
       N       E                     dE             d eps       ncg     rms          rms(c)
DAV:   1    -0.696164873869E+02   -0.16766E-01   -0.31927E-01 10752   0.234E+00    0.419E-01
RMM:   2    -0.696149414553E+02    0.15459E-02   -0.16528E-02  8324   0.531E-01    0.229E-01
RMM:   3    -0.696145428620E+02    0.39859E-03   -0.14465E-03  5952   0.361E-01
  12 F= -.69614543E+02 E0= -.69614543E+02  d E =-.146397E-01  mag=     0.0000
       N       E                     dE             d eps       ncg     rms          rms(c)
DAV:   1    -0.696586446071E+02   -0.43703E-01   -0.28949E+00  8064   0.701E+00    0.136E+00
RMM:   2    -0.696425521466E+02    0.16092E-01   -0.15494E-01  8544   0.167E+00    0.853E-01
RMM:   3    -0.696380449477E+02    0.45072E-02   -0.13319E-02  8052   0.982E-01    0.728E-01
RMM:   4    -0.696367886986E+02    0.12562E-02   -0.25076E-03  7148   0.260E-01    0.473E-01
RMM:   5    -0.696363719741E+02    0.41672E-03   -0.18280E-03  6906   0.220E-01
  13 F= -.69636372E+02 E0= -.69636372E+02  d E =-.364688E-01  mag=    -0.0000
       N       E                     dE             d eps       ncg     rms          rms(c)
DAV:   1    -0.696437641645E+02   -0.69755E-02   -0.58171E-02 12096   0.127E+00    0.208E-01
RMM:   2    -0.696437461430E+02    0.18021E-04   -0.31295E-03  7108   0.214E-01
  14 F= -.69643746E+02 E0= -.69643746E+02  d E =-.737417E-02  mag=    -0.0000
       N       E                     dE             d eps       ncg     rms          rms(c)
DAV:   1    -0.696577069729E+02   -0.13943E-01   -0.53809E-01  9888   0.382E+00    0.631E-01
RMM:   2    -0.696570819667E+02    0.62501E-03   -0.29928E-02  8126   0.654E-01    0.551E-01
RMM:   3    -0.696559350817E+02    0.11469E-02   -0.22235E-03  7226   0.397E-01    0.280E-01
RMM:   4    -0.696558467205E+02    0.88361E-04   -0.56835E-04  5950   0.121E-01
  15 F= -.69655847E+02 E0= -.69655847E+02  d E =-.194747E-01  mag=    -0.0000
       N       E                     dE             d eps       ncg     rms          rms(c)
DAV:   1    -0.696645533898E+02   -0.86183E-02   -0.10749E-01 11968   0.167E+00    0.366E-01
RMM:   2    -0.696637227736E+02    0.83062E-03   -0.65341E-03  7802   0.310E-01
  16 F= -.69663723E+02 E0= -.69663723E+02  d E =-.787605E-02  mag=     0.0000
       N       E                     dE             d eps       ncg     rms          rms(c)
DAV:   1    -0.696841168824E+02   -0.19563E-01   -0.99216E-01  9760   0.506E+00    0.142E+00
RMM:   2    -0.696756579047E+02    0.84590E-02   -0.66698E-02  8436   0.961E-01    0.691E-01
RMM:   3    -0.696714638316E+02    0.41941E-02   -0.60098E-03  7982   0.503E-01    0.248E-01
RMM:   4    -0.696711508758E+02    0.31296E-03   -0.22682E-03  6936   0.205E-01
  17 F= -.69671151E+02 E0= -.69671151E+02  d E =-.153042E-01  mag=    -0.0000
       N       E                     dE             d eps       ncg     rms          rms(c)
DAV:   1    -0.696764972502E+02   -0.50334E-02   -0.60058E-02 10752   0.108E+00    0.364E-01
RMM:   2    -0.696754569714E+02    0.10403E-02   -0.34603E-03  7576   0.237E-01    0.168E-01
RMM:   3    -0.696750807514E+02    0.37622E-03   -0.48575E-04  4638   0.174E-01
  18 F= -.69675081E+02 E0= -.69675081E+02  d E =-.392988E-02  mag=    -0.0000
       N       E                     dE             d eps       ncg     rms          rms(c)
DAV:   1    -0.696891625877E+02   -0.13706E-01   -0.54807E-01  8896   0.321E+00    0.941E-01
RMM:   2    -0.696842764470E+02    0.48861E-02   -0.31991E-02  8388   0.703E-01    0.450E-01
RMM:   3    -0.696821175508E+02    0.21589E-02   -0.29217E-03  7562   0.435E-01    0.184E-01
RMM:   4    -0.696817874929E+02    0.33006E-03   -0.96284E-04  6520   0.158E-01
  19 F= -.69681787E+02 E0= -.69681787E+02  d E =-.106366E-01  mag=     0.0000
       N       E                     dE             d eps       ncg     rms          rms(c)
DAV:   1    -0.696853643898E+02   -0.32468E-02   -0.38252E-02 12096   0.111E+00    0.223E-01
RMM:   2    -0.696853745687E+02   -0.10179E-04   -0.24786E-03  6188   0.178E-01
  20 F= -.69685375E+02 E0= -.69685375E+02  d E =-.358708E-02  mag=    -0.0000
       N       E                     dE             d eps       ncg     rms          rms(c)
DAV:   1    -0.696894975882E+02   -0.41332E-02   -0.33598E-01  9568   0.324E+00    0.632E-01
RMM:   2    -0.696899729477E+02   -0.47536E-03   -0.21585E-02  8048   0.514E-01    0.588E-01
RMM:   3    -0.696893599287E+02    0.61302E-03   -0.15375E-03  6542   0.331E-01
  21 F= -.69689360E+02 E0= -.69689360E+02  d E =-.757244E-02  mag=     0.0000
