Automatically generated mesh
      41
Reciprocal lattice
    0.00000000000000    0.00000000000000    0.00000000000000             1
    0.11111111111111    0.00000000000000    0.00000000000000             2
    0.22222222222222    0.00000000000000    0.00000000000000             2
    0.33333333333333    0.00000000000000    0.00000000000000             2
    0.44444444444445    0.00000000000000    0.00000000000000             2
    0.00000000000000    0.11111111111111    0.00000000000000             2
    0.11111111111111    0.11111111111111    0.00000000000000             2
    0.22222222222222    0.11111111111111    0.00000000000000             2
    0.33333333333333    0.11111111111111    0.00000000000000             2
    0.44444444444445    0.11111111111111    0.00000000000000             2
   -0.44444444444444    0.11111111111111    0.00000000000000             2
   -0.33333333333333    0.11111111111111    0.00000000000000             2
   -0.22222222222222    0.11111111111111    0.00000000000000             2
   -0.11111111111111    0.11111111111111    0.00000000000000             2
    0.00000000000000    0.22222222222222    0.00000000000000             2
    0.11111111111111    0.22222222222222    0.00000000000000             2
    0.22222222222222    0.22222222222222    0.00000000000000             2
    0.33333333333333    0.22222222222222    0.00000000000000             2
    0.44444444444445    0.22222222222222    0.00000000000000             2
   -0.44444444444444    0.22222222222222    0.00000000000000             2
   -0.33333333333333    0.22222222222222    0.00000000000000             2
   -0.22222222222222    0.22222222222222    0.00000000000000             2
   -0.11111111111111    0.22222222222222    0.00000000000000             2
    0.00000000000000    0.33333333333333    0.00000000000000             2
    0.11111111111111    0.33333333333333    0.00000000000000             2
    0.22222222222222    0.33333333333333    0.00000000000000             2
    0.33333333333333    0.33333333333333    0.00000000000000             2
    0.44444444444445    0.33333333333333    0.00000000000000             2
   -0.44444444444444    0.33333333333333    0.00000000000000             2
   -0.33333333333333    0.33333333333333    0.00000000000000             2
   -0.22222222222222    0.33333333333333    0.00000000000000             2
   -0.11111111111111    0.33333333333333    0.00000000000000             2
    0.00000000000000    0.44444444444445    0.00000000000000             2
    0.11111111111111    0.44444444444445    0.00000000000000             2
    0.22222222222222    0.44444444444445    0.00000000000000             2
    0.33333333333333    0.44444444444445    0.00000000000000             2
    0.44444444444444    0.44444444444445    0.00000000000000             2
   -0.44444444444444    0.44444444444445    0.00000000000000             2
   -0.33333333333333    0.44444444444445    0.00000000000000             2
   -0.22222222222222    0.44444444444445    0.00000000000000             2
   -0.11111111111111    0.44444444444445    0.00000000000000             2
Tetrahedra
       240    0.00205761316872
         2         1         1         2         7
         2         1         1         6         7
         2         1         6         6         7
         2         1         2         2         7
         2         1         2         7         7
         2         1         6         7         7
         2         2         2         3         8
         2         2         2         7         8
         2         2         7         7         8
         2         2         3         3         8
         2         2         3         8         8
         2         2         7         8         8
         2         3         3         4         9
         2         3         3         8         9
         2         3         8         8         9
         2         3         4         4         9
         2         3         4         9         9
         2         3         8         9         9
         2         4         4         5        10
         2         4         4         9        10
         2         4         9         9        10
         2         4         5         5        10
         2         4         5        10        10
         2         4         9        10        10
         4         5         5         5        11
         2         5         5        10        11
         2         5        10        10        11
         2         5         5        11        11
         2         5        10        11        11
         2         4         5         5        12
         2         5         5        11        12
         2         5        11        11        12
         2         4         4         5        12
         2         4         5        12        12
         2         5        11        12        12
         2         3         4         4        13
         2         4         4        12        13
         2         4        12        12        13
         2         3         3         4        13
         2         3         4        13        13
         2         4        12        13        13
         2         2         3         3        14
         2         3         3        13        14
         2         3        13        13        14
         2         2         2         3        14
         2         2         3        14        14
         2         3        13        14        14
         2         1         2         2         6
         2         2         2         6        14
         2         2         6        14        14
         2         1         1         2         6
         2         1         2         6         6
         2         2         6         6        14
         2         6         6         7        16
         2         6         6        15        16
         2         6        15        15        16
         2         6         7         7        16
         2         6         7        16        16
         2         6        15        16        16
         2         7         7         8        17
         2         7         7        16        17
         2         7        16        16        17
         2         7         8         8        17
         2         7         8        17        17
         2         7        16        17        17
         2         8         8         9        18
         2         8         8        17        18
         2         8        17        17        18
         2         8         9         9        18
         2         8         9        18        18
         2         8        17        18        18
         2         9         9        10        19
         2         9         9        18        19
         2         9        18        18        19
         2         9        10        10        19
         2         9        10        19        19
         2         9        18        19        19
         2        10        10        11        20
         2        10        10        19        20
         2        10        19        19        20
         2        10        11        11        20
         2        10        11        20        20
         2        10        19        20        20
         2        11        11        12        21
         2        11        11        20        21
         2        11        20        20        21
         2        11        12        12        21
         2        11        12        21        21
         2        11        20        21        21
         2        12        12        13        22
         2        12        12        21        22
         2        12        21        21        22
         2        12        13        13        22
         2        12        13        22        22
         2        12        21        22        22
         2        13        13        14        23
         2        13        13        22        23
         2        13        22        22        23
         2        13        14        14        23
         2        13        14        23        23
         2        13        22        23        23
         2         6        14        14        15
         2        14        14        15        23
         2        14        15        23        23
         2         6         6        14        15
         2         6        14        15        15
         2        14        15        15        23
         2        15        15        16        25
         2        15        15        24        25
         2        15        24        24        25
         2        15        16        16        25
         2        15        16        25        25
         2        15        24        25        25
         2        16        16        17        26
         2        16        16        25        26
         2        16        25        25        26
         2        16        17        17        26
         2        16        17        26        26
         2        16        25        26        26
         2        17        17        18        27
         2        17        17        26        27
         2        17        26        26        27
         2        17        18        18        27
         2        17        18        27        27
         2        17        26        27        27
         2        18        18        19        28
         2        18        18        27        28
         2        18        27        27        28
         2        18        19        19        28
         2        18        19        28        28
         2        18        27        28        28
         2        19        19        20        29
         2        19        19        28        29
         2        19        28        28        29
         2        19        20        20        29
         2        19        20        29        29
         2        19        28        29        29
         2        20        20        21        30
         2        20        20        29        30
         2        20        29        29        30
         2        20        21        21        30
         2        20        21        30        30
         2        20        29        30        30
         2        21        21        22        31
         2        21        21        30        31
         2        21        30        30        31
         2        21        22        22        31
         2        21        22        31        31
         2        21        30        31        31
         2        22        22        23        32
         2        22        22        31        32
         2        22        31        31        32
         2        22        23        23        32
         2        22        23        32        32
         2        22        31        32        32
         2        15        23        23        24
         2        23        23        24        32
         2        23        24        32        32
         2        15        15        23        24
         2        15        23        24        24
         2        23        24        24        32
         2        24        24        25        34
         2        24        24        33        34
         2        24        33        33        34
         2        24        25        25        34
         2        24        25        34        34
         2        24        33        34        34
         2        25        25        26        35
         2        25        25        34        35
         2        25        34        34        35
         2        25        26        26        35
         2        25        26        35        35
         2        25        34        35        35
         2        26        26        27        36
         2        26        26        35        36
         2        26        35        35        36
         2        26        27        27        36
         2        26        27        36        36
         2        26        35        36        36
         2        27        27        28        37
         2        27        27        36        37
         2        27        36        36        37
         2        27        28        28        37
         2        27        28        37        37
         2        27        36        37        37
         2        28        28        29        38
         2        28        28        37        38
         2        28        37        37        38
         2        28        29        29        38
         2        28        29        38        38
         2        28        37        38        38
         2        29        29        30        39
         2        29        29        38        39
         2        29        38        38        39
         2        29        30        30        39
         2        29        30        39        39
         2        29        38        39        39
         2        30        30        31        40
         2        30        30        39        40
         2        30        39        39        40
         2        30        31        31        40
         2        30        31        40        40
         2        30        39        40        40
         2        31        31        32        41
         2        31        31        40        41
         2        31        40        40        41
         2        31        32        32        41
         2        31        32        41        41
         2        31        40        41        41
         2        24        32        32        33
         2        32        32        33        41
         2        32        33        41        41
         2        24        24        32        33
         2        24        32        33        33
         2        32        33        33        41
         2        33        33        34        41
         4        33        33        33        41
         2        33        34        34        41
         2        33        34        41        41
         2        33        33        41        41
         2        34        34        35        40
         2        34        34        40        41
         2        34        40        41        41
         2        34        35        35        40
         2        34        35        40        40
         2        34        40        40        41
         2        35        35        36        39
         2        35        35        39        40
         2        35        39        40        40
         2        35        36        36        39
         2        35        36        39        39
         2        35        39        39        40
         2        36        36        37        38
         2        36        36        38        39
         2        36        38        39        39
         2        36        37        37        38
         2        36        37        38        38
         2        36        38        38        39
         4        37        37        37        38
         2        37        37        38        38
