   19   19   99    2
  0.8909284E+01  0.3620338E-09  0.6259848E-09  0.7859522E-09  0.5000000E-15
  1.000000000000000E-004
  CAR 
 unknown system                          
     47     43     48
 
  0.3742002E-15  0.3742002E-15  0.3742002E-15  0.1190476E-01
    1      -34.329810    -34.329810   1.000000   1.000000
    2      -34.289491    -34.289491   1.000000   1.000000
    3      -30.456921    -30.456921   1.000000   1.000000
    4      -30.281535    -30.281535   1.000000   1.000000
    5      -30.259487    -30.259487   1.000000   1.000000
    6      -16.523004    -16.523005   1.000000   1.000000
    7      -16.429987    -16.429987   1.000000   1.000000
    8      -16.367804    -16.367804   1.000000   1.000000
    9      -16.242620    -16.242620   1.000000   1.000000
   10      -16.147532    -16.147533   1.000000   1.000000
   11      -16.105899    -16.105899   1.000000   1.000000
   12       -8.692239     -8.692239   1.000000   1.000000
   13       -7.542319     -7.542319   1.000000   1.000000
   14       -6.739183     -6.739183   1.000000   1.000000
   15       -5.579637     -5.579637   1.000000   1.000000
   16       -5.223080     -5.223080   1.000000   1.000000
   17       -3.571639     -3.571639   1.000000   1.000000
   18       -3.279494     -3.279494   1.000000   1.000000
   19       -2.817670     -2.817670   1.000000   1.000000
   20       -2.315986     -2.315986   1.000000   1.000000
   21       -1.993587     -1.993587   1.000000   1.000000
   22       -0.932593     -0.932593   1.000000   1.000000
   23       -0.041572     -0.041572   1.000000   1.000000
   24        1.487113      1.487113   0.000000   0.000000
   25        2.522806      2.522806   0.000000   0.000000
   26        2.838432      2.838432   0.000000   0.000000
   27        3.618161      3.618161   0.000000   0.000000
   28        3.886149      3.886149   0.000000   0.000000
   29        4.178007      4.178007   0.000000   0.000000
   30        5.128813      5.128813   0.000000   0.000000
   31        5.171367      5.171367   0.000000   0.000000
   32        5.356435      5.356435   0.000000   0.000000
   33        5.566749      5.566749   0.000000   0.000000
   34        5.636887      5.636887   0.000000   0.000000
   35        6.032682      6.032682   0.000000   0.000000
   36        6.321632      6.321632   0.000000   0.000000
   37        6.455942      6.455942   0.000000   0.000000
   38        6.793199      6.793199   0.000000   0.000000
   39        7.240118      7.240118   0.000000   0.000000
   40        7.563565      7.563565   0.000000   0.000000
   41        7.672739      7.672739   0.000000   0.000000
   42        7.938375      7.938375   0.000000   0.000000
   43        8.462236      8.462236   0.000000   0.000000
   44        8.762051      8.762051   0.000000   0.000000
   45        8.960642      8.960642   0.000000   0.000000
   46        9.363107      9.363107   0.000000   0.000000
   47        9.496673      9.496673   0.000000   0.000000
   48       10.207933     10.207933   0.000000   0.000000
 
  0.1428571E+00  0.3799044E-15  0.3885781E-15  0.2380952E-01
    1      -34.324168    -34.324168   1.000000   1.000000
    2      -34.284135    -34.284135   1.000000   1.000000
    3      -30.455914    -30.455914   1.000000   1.000000
    4      -30.297533    -30.297533   1.000000   1.000000
    5      -30.258182    -30.258182   1.000000   1.000000
    6      -16.512920    -16.512920   1.000000   1.000000
    7      -16.412765    -16.412764   1.000000   1.000000
    8      -16.355060    -16.355060   1.000000   1.000000
    9      -16.253931    -16.253931   1.000000   1.000000
   10      -16.218500    -16.218500   1.000000   1.000000
   11      -16.187827    -16.187827   1.000000   1.000000
   12       -8.546645     -8.546645   1.000000   1.000000
   13       -7.482422     -7.482422   1.000000   1.000000
   14       -6.652028     -6.652028   1.000000   1.000000
   15       -5.637852     -5.637851   1.000000   1.000000
   16       -5.036081     -5.036081   1.000000   1.000000
   17       -3.506332     -3.506332   1.000000   1.000000
   18       -3.215651     -3.215652   1.000000   1.000000
   19       -2.784030     -2.784029   1.000000   1.000000
   20       -2.292470     -2.292470   1.000000   1.000000
   21       -1.980405     -1.980405   1.000000   1.000000
   22       -1.035628     -1.035628   1.000000   1.000000
   23       -0.670812     -0.670812   1.000000   1.000000
   24        1.137527      1.137527  -0.049675  -0.049675
   25        2.854879      2.854879   0.000000   0.000000
   26        3.316390      3.316390   0.000000   0.000000
   27        3.469632      3.469632   0.000000   0.000000
   28        3.784933      3.784933   0.000000   0.000000
   29        4.126530      4.126530   0.000000   0.000000
   30        4.739763      4.739763   0.000000   0.000000
   31        4.998744      4.998744   0.000000   0.000000
   32        5.122518      5.122518   0.000000   0.000000
   33        5.526267      5.526267   0.000000   0.000000
   34        5.934636      5.934636   0.000000   0.000000
   35        6.084596      6.084596   0.000000   0.000000
   36        6.336635      6.336635   0.000000   0.000000
   37        6.648870      6.648870   0.000000   0.000000
   38        6.798839      6.798839   0.000000   0.000000
   39        7.199805      7.199805   0.000000   0.000000
   40        7.524107      7.524107   0.000000   0.000000
   41        7.742182      7.742182   0.000000   0.000000
   42        7.903491      7.903491   0.000000   0.000000
   43        8.102394      8.102394   0.000000   0.000000
   44        8.500164      8.500164   0.000000   0.000000
   45        8.849630      8.849630   0.000000   0.000000
   46        9.326788      9.326788   0.000000   0.000000
   47        9.575209      9.575209   0.000000   0.000000
   48       10.035866     10.035866   0.000000   0.000000
 
  0.2857143E+00  0.3859760E-15  0.4163336E-15  0.2380952E-01
    1      -34.311441    -34.311441   1.000000   1.000000
    2      -34.272072    -34.272072   1.000000   1.000000
    3      -30.453889    -30.453889   1.000000   1.000000
    4      -30.334140    -30.334140   1.000000   1.000000
    5      -30.254113    -30.254113   1.000000   1.000000
    6      -16.492502    -16.492502   1.000000   1.000000
    7      -16.428413    -16.428413   1.000000   1.000000
    8      -16.397749    -16.397749   1.000000   1.000000
    9      -16.355787    -16.355787   1.000000   1.000000
   10      -16.306396    -16.306396   1.000000   1.000000
   11      -16.224525    -16.224525   1.000000   1.000000
   12       -8.168127     -8.168127   1.000000   1.000000
   13       -7.329429     -7.329429   1.000000   1.000000
   14       -6.485685     -6.485685   1.000000   1.000000
   15       -5.843944     -5.843944   1.000000   1.000000
   16       -4.527295     -4.527295   1.000000   1.000000
   17       -3.443457     -3.443457   1.000000   1.000000
   18       -3.136145     -3.136145   1.000000   1.000000
   19       -2.668856     -2.668856   1.000000   1.000000
   20       -2.310759     -2.310759   1.000000   1.000000
   21       -1.884076     -1.884076   1.000000   1.000000
   22       -1.584035     -1.584035   1.000000   1.000000
   23       -1.172512     -1.172512   1.000000   1.000000
   24        0.468465      0.468464   0.818830   0.818830
   25        2.854913      2.854913   0.000000   0.000000
   26        3.154074      3.154074   0.000000   0.000000
   27        3.294369      3.294369   0.000000   0.000000
   28        4.019299      4.019299   0.000000   0.000000
   29        4.186452      4.186452   0.000000   0.000000
   30        4.754732      4.754732   0.000000   0.000000
   31        5.054406      5.054406   0.000000   0.000000
   32        5.332410      5.332410   0.000000   0.000000
   33        5.525058      5.525058   0.000000   0.000000
   34        5.656048      5.656048   0.000000   0.000000
   35        5.973151      5.973151   0.000000   0.000000
   36        6.273889      6.273889   0.000000   0.000000
   37        6.447777      6.447777   0.000000   0.000000
   38        6.826776      6.826776   0.000000   0.000000
   39        6.945748      6.945748   0.000000   0.000000
   40        7.262641      7.262641   0.000000   0.000000
   41        7.686304      7.686304   0.000000   0.000000
   42        7.972970      7.972970   0.000000   0.000000
   43        8.181471      8.181471   0.000000   0.000000
   44        8.525956      8.525956   0.000000   0.000000
   45        8.658377      8.658377   0.000000   0.000000
   46        9.264570      9.264570   0.000000   0.000000
   47        9.690470      9.690469   0.000000   0.000000
   48       10.065458     10.065459   0.000000   0.000000
 
  0.4285714E+00  0.3833739E-15  0.4163336E-15  0.2380952E-01
    1      -34.301181    -34.301181   1.000000   1.000000
    2      -34.262369    -34.262369   1.000000   1.000000
    3      -30.452725    -30.452725   1.000000   1.000000
    4      -30.363016    -30.363016   1.000000   1.000000
    5      -30.250627    -30.250627   1.000000   1.000000
    6      -16.571291    -16.571291   1.000000   1.000000
    7      -16.531333    -16.531333   1.000000   1.000000
    8      -16.466075    -16.466075   1.000000   1.000000
    9      -16.334885    -16.334885   1.000000   1.000000
   10      -16.268194    -16.268193   1.000000   1.000000
   11      -16.232240    -16.232240   1.000000   1.000000
   12       -7.755293     -7.755293   1.000000   1.000000
   13       -7.185521     -7.185521   1.000000   1.000000
   14       -6.429663     -6.429663   1.000000   1.000000
   15       -6.093885     -6.093885   1.000000   1.000000
   16       -4.000978     -4.000978   1.000000   1.000000
   17       -3.415454     -3.415454   1.000000   1.000000
   18       -3.104262     -3.104262   1.000000   1.000000
   19       -2.636431     -2.636432   1.000000   1.000000
   20       -2.442398     -2.442398   1.000000   1.000000
   21       -2.101787     -2.101787   1.000000   1.000000
   22       -1.673044     -1.673044   1.000000   1.000000
   23       -1.278434     -1.278434   1.000000   1.000000
   24        0.020342      0.020342   1.000000   1.000000
   25        2.563314      2.563314   0.000000   0.000000
   26        2.825171      2.825171   0.000000   0.000000
   27        3.335617      3.335617   0.000000   0.000000
   28        3.843041      3.843041   0.000000   0.000000
   29        4.359509      4.359509   0.000000   0.000000
   30        4.667504      4.667504   0.000000   0.000000
   31        4.725949      4.725949   0.000000   0.000000
   32        5.406136      5.406136   0.000000   0.000000
   33        5.601425      5.601425   0.000000   0.000000
   34        5.681026      5.681026   0.000000   0.000000
   35        6.143742      6.143742   0.000000   0.000000
   36        6.247686      6.247686   0.000000   0.000000
   37        6.689240      6.689240   0.000000   0.000000
   38        6.909153      6.909153   0.000000   0.000000
   39        7.038453      7.038453   0.000000   0.000000
   40        7.155295      7.155295   0.000000   0.000000
   41        7.652167      7.652167   0.000000   0.000000
   42        8.244104      8.244102   0.000000   0.000000
   43        8.446297      8.446295   0.000000   0.000000
   44        8.716970      8.716971   0.000000   0.000000
   45        8.979656      8.979656   0.000000   0.000000
   46        9.064560      9.064560   0.000000   0.000000
   47        9.592931      9.592924   0.000000   0.000000
   48       10.018384     10.018523   0.000000   0.000000
 
  0.3783866E-15  0.2500000E+00  0.3955170E-15  0.2380952E-01
    1      -34.329804    -34.329804   1.000000   1.000000
    2      -34.289511    -34.289511   1.000000   1.000000
    3      -30.456930    -30.456930   1.000000   1.000000
    4      -30.281530    -30.281530   1.000000   1.000000
    5      -30.259432    -30.259432   1.000000   1.000000
    6      -16.524600    -16.524600   1.000000   1.000000
    7      -16.428281    -16.428281   1.000000   1.000000
    8      -16.367875    -16.367876   1.000000   1.000000
    9      -16.246052    -16.246052   1.000000   1.000000
   10      -16.147496    -16.147496   1.000000   1.000000
   11      -16.105925    -16.105925   1.000000   1.000000
   12       -8.613075     -8.613075   1.000000   1.000000
   13       -7.609226     -7.609226   1.000000   1.000000
   14       -6.625521     -6.625521   1.000000   1.000000
   15       -5.790577     -5.790577   1.000000   1.000000
   16       -5.174966     -5.174966   1.000000   1.000000
   17       -3.655522     -3.655523   1.000000   1.000000
   18       -3.259095     -3.259095   1.000000   1.000000
   19       -2.859841     -2.859841   1.000000   1.000000
   20       -2.254772     -2.254772   1.000000   1.000000
   21       -1.912863     -1.912863   1.000000   1.000000
   22       -0.878446     -0.878446   1.000000   1.000000
   23       -0.061585     -0.061585   1.000000   1.000000
   24        1.481324      1.481324   0.000000   0.000000
   25        2.446936      2.446936   0.000000   0.000000
   26        2.937750      2.937750   0.000000   0.000000
   27        3.486122      3.486122   0.000000   0.000000
   28        4.017820      4.017820   0.000000   0.000000
   29        4.209160      4.209160   0.000000   0.000000
   30        4.904412      4.904412   0.000000   0.000000
   31        5.094590      5.094590   0.000000   0.000000
   32        5.370854      5.370854   0.000000   0.000000
   33        5.409879      5.409879   0.000000   0.000000
   34        5.593394      5.593394   0.000000   0.000000
   35        6.036273      6.036273   0.000000   0.000000
   36        6.246945      6.246945   0.000000   0.000000
   37        6.587097      6.587097   0.000000   0.000000
   38        6.902173      6.902173   0.000000   0.000000
   39        7.235655      7.235655   0.000000   0.000000
   40        7.563311      7.563310   0.000000   0.000000
   41        7.853493      7.853493   0.000000   0.000000
   42        8.180023      8.180023   0.000000   0.000000
   43        8.583835      8.583835   0.000000   0.000000
   44        8.822061      8.822061   0.000000   0.000000
   45        9.031544      9.031544   0.000000   0.000000
   46        9.396646      9.396646   0.000000   0.000000
   47        9.642822      9.642822   0.000000   0.000000
   48       10.248139     10.248139   0.000000   0.000000
 
  0.1428571E+00  0.2500000E+00  0.4163336E-15  0.2380952E-01
    1      -34.324161    -34.324161   1.000000   1.000000
    2      -34.284152    -34.284152   1.000000   1.000000
    3      -30.455921    -30.455921   1.000000   1.000000
    4      -30.297531    -30.297531   1.000000   1.000000
    5      -30.258144    -30.258144   1.000000   1.000000
    6      -16.514440    -16.514440   1.000000   1.000000
    7      -16.410975    -16.410975   1.000000   1.000000
    8      -16.354246    -16.354246   1.000000   1.000000
    9      -16.257137    -16.257137   1.000000   1.000000
   10      -16.219484    -16.219484   1.000000   1.000000
   11      -16.187595    -16.187595   1.000000   1.000000
   12       -8.473515     -8.473515   1.000000   1.000000
   13       -7.554636     -7.554636   1.000000   1.000000
   14       -6.526195     -6.526195   1.000000   1.000000
   15       -5.767146     -5.767146   1.000000   1.000000
   16       -5.070725     -5.070725   1.000000   1.000000
   17       -3.578300     -3.578300   1.000000   1.000000
   18       -3.197668     -3.197669   1.000000   1.000000
   19       -2.851048     -2.851048   1.000000   1.000000
   20       -2.235586     -2.235586   1.000000   1.000000
   21       -1.924456     -1.924456   1.000000   1.000000
   22       -0.992894     -0.992894   1.000000   1.000000
   23       -0.598303     -0.598303   1.000000   1.000000
   24        1.135153      1.135152  -0.048074  -0.048074
   25        2.935414      2.935414   0.000000   0.000000
   26        3.100929      3.100929   0.000000   0.000000
   27        3.470593      3.470593   0.000000   0.000000
   28        3.942599      3.942599   0.000000   0.000000
   29        4.081338      4.081338   0.000000   0.000000
   30        4.318926      4.318926   0.000000   0.000000
   31        4.826793      4.826793   0.000000   0.000000
   32        5.249333      5.249333   0.000000   0.000000
   33        5.464500      5.464500   0.000000   0.000000
   34        6.046160      6.046160   0.000000   0.000000
   35        6.270457      6.270457   0.000000   0.000000
   36        6.448482      6.448482   0.000000   0.000000
   37        6.609137      6.609137   0.000000   0.000000
   38        6.875872      6.875872   0.000000   0.000000
   39        7.171727      7.171727   0.000000   0.000000
   40        7.540133      7.540133   0.000000   0.000000
   41        7.672079      7.672079   0.000000   0.000000
   42        7.896922      7.896921   0.000000   0.000000
   43        8.495576      8.495576   0.000000   0.000000
   44        8.662363      8.662363   0.000000   0.000000
   45        9.020521      9.020521   0.000000   0.000000
   46        9.285734      9.285734   0.000000   0.000000
   47        9.611761      9.611761   0.000000   0.000000
   48       10.132368     10.132368   0.000000   0.000000
 
  0.2857143E+00  0.2500000E+00  0.4440892E-15  0.2380952E-01
    1      -34.311432    -34.311432   1.000000   1.000000
    2      -34.272079    -34.272079   1.000000   1.000000
    3      -30.453891    -30.453891   1.000000   1.000000
    4      -30.334149    -30.334149   1.000000   1.000000
    5      -30.254106    -30.254106   1.000000   1.000000
    6      -16.493937    -16.493937   1.000000   1.000000
    7      -16.428199    -16.428199   1.000000   1.000000
    8      -16.397423    -16.397423   1.000000   1.000000
    9      -16.356051    -16.356051   1.000000   1.000000
   10      -16.303812    -16.303812   1.000000   1.000000
   11      -16.227504    -16.227504   1.000000   1.000000
   12       -8.119629     -8.119629   1.000000   1.000000
   13       -7.374686     -7.374686   1.000000   1.000000
   14       -6.416384     -6.416384   1.000000   1.000000
   15       -5.870177     -5.870177   1.000000   1.000000
   16       -4.599328     -4.599328   1.000000   1.000000
   17       -3.494682     -3.494682   1.000000   1.000000
   18       -3.116398     -3.116398   1.000000   1.000000
   19       -2.679096     -2.679096   1.000000   1.000000
   20       -2.302704     -2.302704   1.000000   1.000000
   21       -1.958086     -1.958086   1.000000   1.000000
   22       -1.605037     -1.605038   1.000000   1.000000
   23       -0.963036     -0.963036   1.000000   1.000000
   24        0.460750      0.460749   0.823722   0.823722
   25        2.925934      2.925933   0.000000   0.000000
   26        3.114606      3.114606   0.000000   0.000000
   27        3.247580      3.247580   0.000000   0.000000
   28        3.960450      3.960450   0.000000   0.000000
   29        4.141560      4.141560   0.000000   0.000000
   30        4.450874      4.450874   0.000000   0.000000
   31        4.971330      4.971330   0.000000   0.000000
   32        5.157079      5.157079   0.000000   0.000000
   33        5.575945      5.575945   0.000000   0.000000
   34        5.854519      5.854519   0.000000   0.000000
   35        6.190651      6.190651   0.000000   0.000000
   36        6.286332      6.286332   0.000000   0.000000
   37        6.400383      6.400383   0.000000   0.000000
   38        6.834791      6.834791   0.000000   0.000000
   39        7.138264      7.138264   0.000000   0.000000
   40        7.432170      7.432170   0.000000   0.000000
   41        7.664967      7.664967   0.000000   0.000000
   42        8.055195      8.055195   0.000000   0.000000
   43        8.266907      8.266907   0.000000   0.000000
   44        8.674819      8.674818   0.000000   0.000000
   45        8.800607      8.800607   0.000000   0.000000
   46        9.253022      9.253022   0.000000   0.000000
   47        9.765431      9.765429   0.000000   0.000000
   48       10.234506     10.234497   0.000000   0.000000
 
  0.4285714E+00  0.2500000E+00  0.1332268E-14  0.2380952E-01
    1      -34.301176    -34.301176   1.000000   1.000000
    2      -34.262363    -34.262363   1.000000   1.000000
    3      -30.452725    -30.452725   1.000000   1.000000
    4      -30.363034    -30.363034   1.000000   1.000000
    5      -30.250647    -30.250646   1.000000   1.000000
    6      -16.571318    -16.571318   1.000000   1.000000
    7      -16.530878    -16.530878   1.000000   1.000000
    8      -16.466791    -16.466791   1.000000   1.000000
    9      -16.335050    -16.335050   1.000000   1.000000
   10      -16.267192    -16.267192   1.000000   1.000000
   11      -16.233374    -16.233374   1.000000   1.000000
   12       -7.743725     -7.743725   1.000000   1.000000
   13       -7.184680     -7.184680   1.000000   1.000000
   14       -6.439224     -6.439224   1.000000   1.000000
   15       -6.061215     -6.061215   1.000000   1.000000
   16       -4.028414     -4.028414   1.000000   1.000000
   17       -3.425639     -3.425640   1.000000   1.000000
   18       -3.134151     -3.134151   1.000000   1.000000
   19       -2.639559     -2.639559   1.000000   1.000000
   20       -2.414878     -2.414877   1.000000   1.000000
   21       -2.091333     -2.091333   1.000000   1.000000
   22       -1.769776     -1.769775   1.000000   1.000000
   23       -1.218225     -1.218225   1.000000   1.000000
   24        0.028393      0.028393   1.000000   1.000000
   25        2.652135      2.652135   0.000000   0.000000
   26        2.850922      2.850922   0.000000   0.000000
   27        3.280424      3.280424   0.000000   0.000000
   28        3.826890      3.826890   0.000000   0.000000
   29        4.252713      4.252713   0.000000   0.000000
   30        4.566258      4.566258   0.000000   0.000000
   31        5.029294      5.029294   0.000000   0.000000
   32        5.292722      5.292722   0.000000   0.000000
   33        5.407192      5.407192   0.000000   0.000000
   34        5.740120      5.740120   0.000000   0.000000
   35        6.031215      6.031215   0.000000   0.000000
   36        6.303081      6.303081   0.000000   0.000000
   37        6.541506      6.541506   0.000000   0.000000
   38        6.808609      6.808609   0.000000   0.000000
   39        7.139227      7.139227   0.000000   0.000000
   40        7.504184      7.504184   0.000000   0.000000
   41        7.832576      7.832576   0.000000   0.000000
   42        8.000769      8.000769   0.000000   0.000000
   43        8.557199      8.557199   0.000000   0.000000
   44        8.762918      8.762918   0.000000   0.000000
   45        9.040062      9.040062   0.000000   0.000000
   46        9.246910      9.246910   0.000000   0.000000
   47        9.610608      9.610608   0.000000   0.000000
   48       10.020570     10.020570   0.000000   0.000000
 
 -0.4285714E+00  0.2500000E+00  0.3330669E-15  0.2380952E-01
    1      -34.301180    -34.301180   1.000000   1.000000
    2      -34.262358    -34.262358   1.000000   1.000000
    3      -30.452727    -30.452727   1.000000   1.000000
    4      -30.363035    -30.363035   1.000000   1.000000
    5      -30.250647    -30.250647   1.000000   1.000000
    6      -16.571052    -16.571052   1.000000   1.000000
    7      -16.530963    -16.530963   1.000000   1.000000
    8      -16.466771    -16.466771   1.000000   1.000000
    9      -16.335093    -16.335093   1.000000   1.000000
   10      -16.270538    -16.270538   1.000000   1.000000
   11      -16.230110    -16.230110   1.000000   1.000000
   12       -7.742880     -7.742879   1.000000   1.000000
   13       -7.188931     -7.188931   1.000000   1.000000
   14       -6.404236     -6.404236   1.000000   1.000000
   15       -6.105853     -6.105853   1.000000   1.000000
   16       -4.022199     -4.022199   1.000000   1.000000
   17       -3.430447     -3.430447   1.000000   1.000000
   18       -3.068223     -3.068223   1.000000   1.000000
   19       -2.657644     -2.657644   1.000000   1.000000
   20       -2.420226     -2.420226   1.000000   1.000000
   21       -2.133411     -2.133411   1.000000   1.000000
   22       -1.604197     -1.604197   1.000000   1.000000
   23       -1.420781     -1.420781   1.000000   1.000000
   24        0.049009      0.049009   1.000000   1.000000
   25        2.657262      2.657262   0.000000   0.000000
   26        2.815402      2.815402   0.000000   0.000000
   27        3.315285      3.315285   0.000000   0.000000
   28        3.789892      3.789892   0.000000   0.000000
   29        4.544046      4.544046   0.000000   0.000000
   30        4.702941      4.702941   0.000000   0.000000
   31        4.949660      4.949660   0.000000   0.000000
   32        5.149261      5.149261   0.000000   0.000000
   33        5.442095      5.442095   0.000000   0.000000
   34        5.788878      5.788878   0.000000   0.000000
   35        6.004188      6.004188   0.000000   0.000000
   36        6.253787      6.253787   0.000000   0.000000
   37        6.528318      6.528318   0.000000   0.000000
   38        6.700983      6.700983   0.000000   0.000000
   39        7.060916      7.060916   0.000000   0.000000
   40        7.460006      7.460006   0.000000   0.000000
   41        7.720480      7.720480   0.000000   0.000000
   42        7.948852      7.948852   0.000000   0.000000
   43        8.560289      8.560289   0.000000   0.000000
   44        8.696679      8.696679   0.000000   0.000000
   45        8.878692      8.878692   0.000000   0.000000
   46        9.441705      9.441705   0.000000   0.000000
   47        9.744666      9.744666   0.000000   0.000000
   48        9.811362      9.811362   0.000000   0.000000
 
 -0.2857143E+00  0.2500000E+00  0.3885781E-15  0.2380952E-01
    1      -34.311438    -34.311438   1.000000   1.000000
    2      -34.272072    -34.272072   1.000000   1.000000
    3      -30.453893    -30.453893   1.000000   1.000000
    4      -30.334153    -30.334153   1.000000   1.000000
    5      -30.254103    -30.254103   1.000000   1.000000
    6      -16.493833    -16.493833   1.000000   1.000000
    7      -16.428184    -16.428184   1.000000   1.000000
    8      -16.397670    -16.397670   1.000000   1.000000
    9      -16.355732    -16.355732   1.000000   1.000000
   10      -16.307555    -16.307555   1.000000   1.000000
   11      -16.223698    -16.223698   1.000000   1.000000
   12       -8.127302     -8.127302   1.000000   1.000000
   13       -7.343675     -7.343675   1.000000   1.000000
   14       -6.448227     -6.448227   1.000000   1.000000
   15       -5.907577     -5.907577   1.000000   1.000000
   16       -4.549368     -4.549368   1.000000   1.000000
   17       -3.498305     -3.498305   1.000000   1.000000
   18       -3.048822     -3.048822   1.000000   1.000000
   19       -2.643630     -2.643630   1.000000   1.000000
   20       -2.355927     -2.355928   1.000000   1.000000
   21       -1.856247     -1.856247   1.000000   1.000000
   22       -1.655666     -1.655666   1.000000   1.000000
   23       -1.153749     -1.153749   1.000000   1.000000
   24        0.464945      0.464945   0.825065   0.825065
   25        2.947475      2.947475   0.000000   0.000000
   26        3.145802      3.145802   0.000000   0.000000
   27        3.299180      3.299180   0.000000   0.000000
   28        3.945007      3.945007   0.000000   0.000000
   29        4.183357      4.183357   0.000000   0.000000
   30        4.845281      4.845281   0.000000   0.000000
   31        4.930965      4.930965   0.000000   0.000000
   32        5.224282      5.224282   0.000000   0.000000
   33        5.667231      5.667231   0.000000   0.000000
   34        5.902080      5.902080   0.000000   0.000000
   35        6.006197      6.006197   0.000000   0.000000
   36        6.093917      6.093917   0.000000   0.000000
   37        6.534314      6.534314   0.000000   0.000000
   38        6.656726      6.656726   0.000000   0.000000
   39        7.033186      7.033186   0.000000   0.000000
   40        7.262632      7.262632   0.000000   0.000000
   41        7.558669      7.558669   0.000000   0.000000
   42        7.739248      7.739248   0.000000   0.000000
   43        8.179453      8.179452   0.000000   0.000000
   44        8.426050      8.426050   0.000000   0.000000
   45        8.774178      8.774178   0.000000   0.000000
   46        9.603580      9.603580   0.000000   0.000000
   47        9.855588      9.855588   0.000000   0.000000
   48       10.101190     10.101190   0.000000   0.000000
 
 -0.1428571E+00  0.2500000E+00  0.1259409E-14  0.2380952E-01
    1      -34.324162    -34.324162   1.000000   1.000000
    2      -34.284150    -34.284150   1.000000   1.000000
    3      -30.455922    -30.455922   1.000000   1.000000
    4      -30.297540    -30.297540   1.000000   1.000000
    5      -30.258139    -30.258139   1.000000   1.000000
    6      -16.514453    -16.514453   1.000000   1.000000
    7      -16.411923    -16.411923   1.000000   1.000000
    8      -16.356319    -16.356319   1.000000   1.000000
    9      -16.254537    -16.254537   1.000000   1.000000
   10      -16.218685    -16.218685   1.000000   1.000000
   11      -16.187687    -16.187687   1.000000   1.000000
   12       -8.480971     -8.480971   1.000000   1.000000
   13       -7.517792     -7.517792   1.000000   1.000000
   14       -6.591666     -6.591666   1.000000   1.000000
   15       -5.784963     -5.784963   1.000000   1.000000
   16       -5.006262     -5.006262   1.000000   1.000000
   17       -3.605015     -3.605015   1.000000   1.000000
   18       -3.138292     -3.138292   1.000000   1.000000
   19       -2.783235     -2.783235   1.000000   1.000000
   20       -2.309959     -2.309959   1.000000   1.000000
   21       -1.927058     -1.927058   1.000000   1.000000