  19  19   0   0
  0.7652024E+01  0.4887713E-09  0.6277704E-09  0.5318710E-09  0.5000000E-15
  1.000000000000000E-004
  CAR 
 unknown system                          
     10.21432956    -36.63524628  301     -0.80350702      1.00000000
    -36.635  0.0000E+00  0.0000E+00
    -36.479  0.0000E+00  0.0000E+00
    -36.323  0.0000E+00  0.0000E+00
    -36.167  0.0000E+00  0.0000E+00
    -36.011  0.0000E+00  0.0000E+00
    -35.854  0.0000E+00  0.0000E+00
    -35.698  0.0000E+00  0.0000E+00
    -35.542  0.0000E+00  0.0000E+00
    -35.386  0.3994E-32  0.6237E-33
    -35.230  0.1680E-21  0.2623E-22
    -35.074  0.4569E-13  0.7135E-14
    -34.917  0.7003E-07  0.1094E-07
    -34.761  0.3651E-03  0.5702E-04
    -34.605 -0.1127E-01 -0.1702E-02
    -34.449  0.2181E+00  0.3235E-01
    -34.293  0.5275E-02  0.3318E-01
    -34.137  0.9938E-03  0.3333E-01
    -33.980  0.1435E-05  0.3333E-01
    -33.824  0.4217E-11  0.3333E-01
    -33.668  0.0000E+00  0.3333E-01
    -33.512  0.0000E+00  0.3333E-01
    -33.356  0.0000E+00  0.3333E-01
    -33.200  0.0000E+00  0.3333E-01
    -33.043  0.0000E+00  0.3333E-01
    -32.887  0.0000E+00  0.3333E-01
    -32.731  0.0000E+00  0.3333E-01
    -32.575  0.0000E+00  0.3333E-01
    -32.419  0.0000E+00  0.3333E-01
    -32.263  0.0000E+00  0.3333E-01
    -32.106  0.0000E+00  0.3333E-01
    -31.950  0.0000E+00  0.3333E-01
    -31.794  0.0000E+00  0.3333E-01
    -31.638  0.0000E+00  0.3333E-01
    -31.482  0.0000E+00  0.3333E-01
    -31.326  0.0000E+00  0.3333E-01
    -31.169  0.0000E+00  0.3333E-01
    -31.013  0.1395E-36  0.3333E-01
    -30.857  0.3692E-25  0.3333E-01
    -30.701  0.6482E-16  0.3333E-01
    -30.545  0.6868E-09  0.3333E-01
    -30.389  0.3300E-04  0.3334E-01
    -30.232 -0.1318E-02  0.3313E-01
    -30.076  0.1051E+00  0.4955E-01
    -29.920  0.1114E+00  0.6694E-01
    -29.764 -0.7453E-02  0.6578E-01
    -29.608  0.2290E+00  0.1015E+00
    -29.452  0.2080E+00  0.1340E+00
    -29.295 -0.4515E-02  0.1333E+00
    -29.139  0.1060E-03  0.1333E+00
    -28.983  0.4881E-08  0.1333E+00
    -28.827  0.9820E-15  0.1333E+00
    -28.671  0.0000E+00  0.1333E+00
    -28.515  0.0000E+00  0.1333E+00
    -28.358  0.0000E+00  0.1333E+00
    -28.202  0.0000E+00  0.1333E+00
    -28.046  0.0000E+00  0.1333E+00
    -27.890  0.0000E+00  0.1333E+00
    -27.734  0.0000E+00  0.1333E+00
    -27.578  0.0000E+00  0.1333E+00
    -27.421  0.0000E+00  0.1333E+00
    -27.265  0.0000E+00  0.1333E+00
    -27.109  0.0000E+00  0.1333E+00
    -26.953  0.0000E+00  0.1333E+00
    -26.797  0.0000E+00  0.1333E+00
    -26.641  0.0000E+00  0.1333E+00
    -26.485  0.0000E+00  0.1333E+00
    -26.328  0.0000E+00  0.1333E+00
    -26.172  0.0000E+00  0.1333E+00
    -26.016  0.0000E+00  0.1333E+00
    -25.860  0.0000E+00  0.1333E+00
    -25.704  0.0000E+00  0.1333E+00
    -25.548  0.0000E+00  0.1333E+00
    -25.391  0.0000E+00  0.1333E+00
    -25.235  0.0000E+00  0.1333E+00
    -25.079  0.0000E+00  0.1333E+00
    -24.923  0.0000E+00  0.1333E+00
    -24.767  0.0000E+00  0.1333E+00
    -24.611  0.0000E+00  0.1333E+00
    -24.454  0.0000E+00  0.1333E+00
    -24.298  0.0000E+00  0.1333E+00
    -24.142  0.0000E+00  0.1333E+00
    -23.986  0.0000E+00  0.1333E+00
    -23.830  0.0000E+00  0.1333E+00
    -23.674  0.0000E+00  0.1333E+00
    -23.517  0.0000E+00  0.1333E+00
    -23.361  0.0000E+00  0.1333E+00
    -23.205  0.0000E+00  0.1333E+00
    -23.049  0.0000E+00  0.1333E+00
    -22.893  0.0000E+00  0.1333E+00
    -22.737  0.0000E+00  0.1333E+00
    -22.580  0.0000E+00  0.1333E+00
    -22.424  0.0000E+00  0.1333E+00
    -22.268  0.0000E+00  0.1333E+00
    -22.112  0.0000E+00  0.1333E+00
    -21.956  0.0000E+00  0.1333E+00
    -21.800  0.0000E+00  0.1333E+00
    -21.643  0.0000E+00  0.1333E+00
    -21.487  0.0000E+00  0.1333E+00
    -21.331  0.0000E+00  0.1333E+00
    -21.175  0.0000E+00  0.1333E+00
    -21.019  0.0000E+00  0.1333E+00
    -20.863  0.0000E+00  0.1333E+00
    -20.706  0.0000E+00  0.1333E+00
    -20.550  0.0000E+00  0.1333E+00
    -20.394  0.0000E+00  0.1333E+00
    -20.238  0.0000E+00  0.1333E+00
    -20.082  0.0000E+00  0.1333E+00
    -19.926  0.0000E+00  0.1333E+00
    -19.769  0.0000E+00  0.1333E+00
    -19.613  0.0000E+00  0.1333E+00
    -19.457  0.0000E+00  0.1333E+00
    -19.301  0.0000E+00  0.1333E+00
    -19.145  0.0000E+00  0.1333E+00
    -18.989  0.0000E+00  0.1333E+00
    -18.832  0.0000E+00  0.1333E+00
    -18.676  0.0000E+00  0.1333E+00
    -18.520  0.0000E+00  0.1333E+00
    -18.364  0.0000E+00  0.1333E+00
    -18.208  0.0000E+00  0.1333E+00
    -18.052  0.0000E+00  0.1333E+00
    -17.895  0.0000E+00  0.1333E+00
    -17.739  0.0000E+00  0.1333E+00
    -17.583  0.4000E-32  0.1333E+00
    -17.427  0.1637E-21  0.1333E+00
    -17.271  0.4386E-13  0.1333E+00
    -17.115  0.6709E-07  0.1333E+00
    -16.958  0.3551E-03  0.1334E+00
    -16.802 -0.1091E-01  0.1317E+00
    -16.646  0.2068E+00  0.1640E+00
    -16.490  0.3065E+00  0.2118E+00
    -16.334  0.1381E+00  0.2334E+00
    -16.178 -0.5328E-03  0.2333E+00
    -16.021  0.4126E-04  0.2333E+00
    -15.865  0.9703E-09  0.2333E+00
    -15.709  0.1175E-15  0.2333E+00
    -15.553  0.0000E+00  0.2333E+00
    -15.397  0.0000E+00  0.2333E+00
    -15.241  0.0000E+00  0.2333E+00
    -15.084  0.0000E+00  0.2333E+00
    -14.928  0.0000E+00  0.2333E+00
    -14.772  0.0000E+00  0.2333E+00
    -14.616  0.0000E+00  0.2333E+00
    -14.460  0.0000E+00  0.2333E+00
    -14.304  0.0000E+00  0.2333E+00
    -14.147  0.0000E+00  0.2333E+00
    -13.991  0.0000E+00  0.2333E+00
    -13.835  0.0000E+00  0.2333E+00
    -13.679  0.0000E+00  0.2333E+00
    -13.523  0.0000E+00  0.2333E+00
    -13.367  0.0000E+00  0.2333E+00
    -13.210  0.0000E+00  0.2333E+00
    -13.054  0.0000E+00  0.2333E+00
    -12.898  0.0000E+00  0.2333E+00
    -12.742  0.0000E+00  0.2333E+00
    -12.586  0.0000E+00  0.2333E+00
    -12.430  0.0000E+00  0.2333E+00
    -12.273  0.0000E+00  0.2333E+00
    -12.117  0.0000E+00  0.2333E+00
    -11.961  0.0000E+00  0.2333E+00
    -11.805  0.0000E+00  0.2333E+00
    -11.649  0.0000E+00  0.2333E+00
    -11.493  0.0000E+00  0.2333E+00
    -11.336  0.0000E+00  0.2333E+00
    -11.180  0.0000E+00  0.2333E+00
    -11.024  0.0000E+00  0.2333E+00
    -10.868  0.0000E+00  0.2333E+00
    -10.712  0.0000E+00  0.2333E+00
    -10.556  0.0000E+00  0.2333E+00
    -10.399  0.5483E-30  0.2333E+00
    -10.243  0.2660E-20  0.2333E+00
    -10.087  0.8043E-13  0.2333E+00
     -9.931  0.1280E-07  0.2333E+00
     -9.775  0.7082E-05  0.2333E+00
     -9.619 -0.8699E-04  0.2333E+00
     -9.462  0.5189E-02  0.2341E+00
     -9.306  0.1194E-01  0.2360E+00
     -9.150  0.1764E-01  0.2388E+00
     -8.994  0.2546E-01  0.2427E+00
     -8.838  0.3725E-01  0.2485E+00
     -8.682  0.4129E-01  0.2550E+00
     -8.526  0.3847E-01  0.2610E+00
     -8.369  0.2730E-01  0.2653E+00
     -8.213  0.2171E-01  0.2687E+00
     -8.057  0.3346E-01  0.2739E+00
     -7.901  0.4533E-01  0.2810E+00
     -7.745  0.4799E-01  0.2885E+00
     -7.589  0.3753E-01  0.2943E+00
     -7.432  0.3235E-01  0.2994E+00
     -7.276  0.4468E-01  0.3063E+00
     -7.120  0.4656E-01  0.3136E+00
     -6.964  0.4530E-01  0.3207E+00
     -6.808  0.3247E-01  0.3258E+00
     -6.652  0.3832E-01  0.3317E+00
     -6.495  0.4384E-01  0.3386E+00
     -6.339  0.7123E-01  0.3497E+00
     -6.183  0.6681E-01  0.3601E+00
     -6.027  0.4650E-01  0.3674E+00
     -5.871  0.7048E-01  0.3784E+00
     -5.715  0.7664E-01  0.3904E+00
     -5.558  0.6054E-01  0.3998E+00
     -5.402  0.9031E-03  0.4000E+00
     -5.246  0.1430E-03  0.4000E+00
     -5.090  0.4790E-06  0.4000E+00
     -4.934  0.5577E-05  0.4000E+00
     -4.778 -0.6733E-04  0.4000E+00
     -4.621  0.5172E-02  0.4008E+00
     -4.465  0.3055E-01  0.4056E+00
     -4.309  0.3944E-01  0.4117E+00
     -4.153  0.5204E-01  0.4199E+00
     -3.997  0.3998E-01  0.4261E+00
     -3.841  0.2558E-01  0.4301E+00
     -3.684  0.4092E-01  0.4365E+00
     -3.528  0.8712E-01  0.4501E+00
     -3.372  0.8036E-01  0.4626E+00
     -3.216  0.2617E-01  0.4667E+00
     -3.060  0.2397E-01  0.4705E+00
     -2.904  0.4438E-01  0.4774E+00
     -2.747  0.7090E-01  0.4885E+00
     -2.591  0.8859E-01  0.5023E+00
     -2.435  0.6145E-01  0.5119E+00
     -2.279  0.6621E-01  0.5222E+00
     -2.123  0.5559E-01  0.5309E+00
     -1.967  0.3253E-01  0.5360E+00
     -1.810  0.1230E+00  0.5552E+00
     -1.654  0.9671E-01  0.5703E+00
     -1.498  0.9697E-01  0.5855E+00
     -1.342  0.6777E-01  0.5960E+00
     -1.186  0.1142E+00  0.6139E+00
     -1.030  0.9151E-01  0.6282E+00
     -0.873  0.2942E-01  0.6328E+00
     -0.717  0.3703E-02  0.6333E+00
     -0.561 -0.3644E-04  0.6333E+00
     -0.405  0.2324E-05  0.6333E+00
     -0.249  0.1776E-09  0.6333E+00
     -0.093  0.7109E-16  0.6333E+00
      0.064  0.0000E+00  0.6333E+00
      0.220  0.0000E+00  0.6333E+00
      0.376  0.0000E+00  0.6333E+00
      0.532  0.0000E+00  0.6333E+00
      0.688  0.0000E+00  0.6333E+00
      0.844  0.0000E+00  0.6333E+00
      1.001  0.0000E+00  0.6333E+00
      1.157  0.0000E+00  0.6333E+00
      1.313  0.0000E+00  0.6333E+00
      1.469  0.0000E+00  0.6333E+00
      1.625  0.1610E-32  0.6333E+00
      1.781  0.2478E-22  0.6333E+00
      1.938  0.2438E-14  0.6333E+00
      2.094  0.1344E-08  0.6333E+00
      2.250  0.2964E-05  0.6333E+00
      2.406 -0.2855E-04  0.6333E+00
      2.562  0.2640E-02  0.6337E+00
      2.718  0.1924E-01  0.6367E+00
      2.875  0.4223E-01  0.6433E+00
      3.031  0.6016E-01  0.6527E+00
      3.187  0.8604E-01  0.6662E+00
      3.343  0.5697E-01  0.6751E+00
      3.499  0.8092E-01  0.6877E+00
      3.655  0.6639E-01  0.6981E+00
      3.812  0.8961E-01  0.7121E+00
      3.968  0.1005E+00  0.7278E+00
      4.124  0.6999E-01  0.7387E+00
      4.280  0.7806E-01  0.7509E+00
      4.436  0.8218E-01  0.7637E+00
      4.592  0.7613E-01  0.7756E+00
      4.749  0.8002E-01  0.7881E+00
      4.905  0.6330E-01  0.7980E+00
      5.061  0.7152E-01  0.8092E+00
      5.217  0.8549E-01  0.8225E+00
      5.373  0.7742E-01  0.8346E+00
      5.529  0.8798E-01  0.8483E+00
      5.686  0.1006E+00  0.8640E+00
      5.842  0.9851E-01  0.8794E+00
      5.998  0.8547E-01  0.8928E+00
      6.154  0.1034E+00  0.9089E+00
      6.310  0.1054E+00  0.9254E+00
      6.466  0.9167E-01  0.9397E+00
      6.623  0.1105E+00  0.9570E+00
      6.779  0.6320E-01  0.9668E+00
      6.935  0.8606E-01  0.9803E+00
      7.091  0.9834E-01  0.9956E+00
      7.247  0.8781E-01  0.1009E+01
      7.403  0.1047E+00  0.1026E+01
      7.560  0.6643E-01  0.1036E+01
      7.716  0.9757E-01  0.1051E+01
      7.872  0.6583E-01  0.1062E+01
      8.028  0.2764E-01  0.1066E+01
      8.184  0.5094E-02  0.1067E+01
      8.340 -0.7794E-04  0.1067E+01
      8.497  0.3355E-05  0.1067E+01
      8.653  0.3494E-09  0.1067E+01
      8.809  0.2023E-15  0.1067E+01
      8.965  0.0000E+00  0.1067E+01
      9.121  0.0000E+00  0.1067E+01
      9.277  0.0000E+00  0.1067E+01
      9.434  0.0000E+00  0.1067E+01
      9.590  0.0000E+00  0.1067E+01
      9.746  0.0000E+00  0.1067E+01
      9.902  0.0000E+00  0.1067E+01
     10.058  0.0000E+00  0.1067E+01
     10.214  0.0000E+00  0.1067E+01
