   19   19   60    1
  0.7652024E+01  0.4887713E-09  0.6277704E-09  0.5318710E-09  0.5000000E-15
  1.000000000000000E-004
  CAR 
 unknown system                          
     38    253     32
 
  0.3742002E-15  0.3742002E-15  0.3742002E-15  0.1984127E-02
    1      -34.505710   1.000000
    2      -30.074943   1.000000
    3      -29.632707   1.000000
    4      -29.585819   1.000000
    5      -16.698949   1.000000
    6      -16.502422   1.000000
    7      -16.472491   1.000000
    8       -9.585928   1.000000
    9       -7.092455   1.000000
   10       -6.826174   1.000000
   11       -6.181215   1.000000
   12       -5.982033   1.000000
   13       -4.717500   1.000000
   14       -3.635991   1.000000
   15       -2.544801   1.000000
   16       -2.538814   1.000000
   17       -1.730713   1.000000
   18       -1.310334   1.000000
   19       -0.823676   0.706755
   20        3.243704   0.000000
   21        3.440170   0.000000
   22        3.689057   0.000000
   23        3.956777   0.000000
   24        4.631806   0.000000
   25        4.973542   0.000000
   26        5.709421   0.000000
   27        5.888154   0.000000
   28        6.271461   0.000000
   29        6.489283   0.000000
   30        6.772741   0.000000
   31        7.513327   0.000000
   32        7.613546   0.000000
 
  0.1111111E+00  0.3884290E-15  0.3786034E-15  0.3968254E-02
    1      -34.505608   1.000000
    2      -30.075020   1.000000
    3      -29.633190   1.000000
    4      -29.585760   1.000000
    5      -16.699366   1.000000
    6      -16.504011   1.000000
    7      -16.479014   1.000000
    8       -9.522326   1.000000
    9       -7.150474   1.000000
   10       -6.817313   1.000000
   11       -6.216368   1.000000
   12       -5.983812   1.000000
   13       -4.654966   1.000000
   14       -3.620123   1.000000
   15       -2.629709   1.000000
   16       -2.496095   1.000000
   17       -1.726609   1.000000
   18       -1.324089   1.000000
   19       -0.887521   1.046077
   20        3.144050   0.000000
   21        3.532216   0.000000
   22        3.726014   0.000000
   23        4.003999   0.000000
   24        4.695097   0.000000
   25        4.933477   0.000000
   26        5.648914   0.000000
   27        5.836107   0.000000
   28        6.244204   0.000000
   29        6.570139   0.000000
   30        6.806481   0.000000
   31        7.173575   0.000000
   32        7.798818   0.000000
 
  0.2222222E+00  0.3556725E-15  0.3807718E-15  0.3968254E-02
    1      -34.505336   1.000000
    2      -30.074980   1.000000
    3      -29.634180   1.000000
    4      -29.585623   1.000000
    5      -16.700101   1.000000
    6      -16.513213   1.000000
    7      -16.489795   1.000000
    8       -9.340635   1.000000
    9       -7.306243   1.000000
   10       -6.796197   1.000000
   11       -6.305858   1.000000
   12       -5.967822   1.000000
   13       -4.493484   1.000000
   14       -3.622377   1.000000
   15       -2.702281   1.000000
   16       -2.469516   1.000000
   17       -1.739340   1.000000
   18       -1.347061   1.000000
   19       -1.031633   0.996360
   20        3.001185   0.000000
   21        3.570017   0.000000
   22        3.750389   0.000000
   23        4.239511   0.000000
   24        4.590494   0.000000
   25        5.015719   0.000000
   26        5.587195   0.000000
   27        5.783386   0.000000
   28        6.108996   0.000000
   29        6.566446   0.000000
   30        6.882989   0.000000
   31        7.143907   0.000000
   32        7.911908   0.000000
 
  0.3333333E+00  0.3439225E-15  0.3799044E-15  0.3968254E-02
    1      -34.505032   1.000000
    2      -30.074918   1.000000
    3      -29.635397   1.000000
    4      -29.585493   1.000000
    5      -16.700997   1.000000
    6      -16.531822   1.000000
    7      -16.493848   1.000000
    8       -9.087511   1.000000
    9       -7.535346   1.000000
   10       -6.785693   1.000000
   11       -6.386041   1.000000
   12       -5.944800   1.000000
   13       -4.301853   1.000000
   14       -3.707482   1.000000
   15       -2.684454   1.000000
   16       -2.428612   1.000000
   17       -1.800230   1.000000
   18       -1.357973   1.000000
   19       -1.182004   0.999996
   20        2.913701   0.000000
   21        3.429157   0.000000
   22        3.815025   0.000000
   23        4.187362   0.000000
   24        4.597852   0.000000
   25        5.166525   0.000000
   26        5.515356   0.000000
   27        5.797935   0.000000
   28        6.018142   0.000000
   29        6.463672   0.000000
   30        7.045114   0.000000
   31        7.350350   0.000000
   32        7.759218   0.000000
 
  0.4444444E+00  0.4013174E-15  0.3851086E-15  0.3968254E-02
    1      -34.504833   1.000000
    2      -30.074827   1.000000
    3      -29.636146   1.000000
    4      -29.585323   1.000000
    5      -16.701409   1.000000
    6      -16.545524   1.000000
    7      -16.494684   1.000000
    8       -8.864152   1.000000
    9       -7.747007   1.000000
   10       -6.787386   1.000000
   11       -6.415011   1.000000
   12       -5.931337   1.000000
   13       -4.164037   1.000000
   14       -3.803797   1.000000
   15       -2.647724   1.000000
   16       -2.360147   1.000000
   17       -1.861764   1.000000
   18       -1.379722   1.000000
   19       -1.263547   1.000000
   20        2.894769   0.000000
   21        3.314865   0.000000
   22        3.750856   0.000000
   23        4.075737   0.000000
   24        4.737449   0.000000
   25        5.043450   0.000000
   26        5.541398   0.000000
   27        5.786982   0.000000
   28        6.012068   0.000000
   29        6.619174   0.000000
   30        7.118432   0.000000
   31        7.441539   0.000000
   32        7.959793   0.000000
 
  0.3731824E-15  0.1428571E+00  0.3642919E-15  0.3968254E-02
    1      -34.505699   1.000000
    2      -30.075043   1.000000
    3      -29.632739   1.000000
    4      -29.585769   1.000000
    5      -16.701115   1.000000
    6      -16.502469   1.000000
    7      -16.472688   1.000000
    8       -9.499211   1.000000
    9       -7.347289   1.000000
   10       -6.669478   1.000000
   11       -6.196918   1.000000
   12       -6.034193   1.000000
   13       -4.678841   1.000000
   14       -3.615289   1.000000
   15       -2.677422   1.000000
   16       -2.355841   1.000000
   17       -1.737515   1.000000
   18       -1.309425   1.000000
   19       -0.857356   0.959271
   20        3.267521   0.000000
   21        3.379649   0.000000
   22        3.843079   0.000000
   23        4.050042   0.000000
   24        4.582333   0.000000
   25        4.953100   0.000000
   26        5.661578   0.000000
   27        5.816813   0.000000
   28        6.254468   0.000000
   29        6.424580   0.000000
   30        6.819350   0.000000
   31        7.494693   0.000000
   32        7.656758   0.000000
 
  0.1111111E+00  0.1428571E+00  0.3608225E-15  0.3968254E-02
    1      -34.505603   1.000000
    2      -30.074916   1.000000
    3      -29.633140   1.000000
    4      -29.585704   1.000000
    5      -16.699078   1.000000
    6      -16.503788   1.000000
    7      -16.479118   1.000000
    8       -9.496002   1.000000
    9       -7.285803   1.000000
   10       -6.708372   1.000000
   11       -6.234977   1.000000
   12       -5.965416   1.000000
   13       -4.650656   1.000000
   14       -3.613610   1.000000
   15       -2.779278   1.000000
   16       -2.315704   1.000000
   17       -1.747567   1.000000
   18       -1.305251   1.000000
   19       -0.888766   1.047246
   20        3.087727   0.000000
   21        3.456637   0.000000
   22        3.793597   0.000000
   23        4.119582   0.000000
   24        4.582109   0.000000
   25        5.008867   0.000000
   26        5.618828   0.000000
   27        6.012880   0.000000
   28        6.173709   0.000000
   29        6.374025   0.000000
   30        6.813758   0.000000
   31        7.375033   0.000000
   32        7.806549   0.000000
 
  0.2222222E+00  0.1428571E+00  0.3642919E-15  0.3968254E-02
    1      -34.505345   1.000000
    2      -30.074926   1.000000
    3      -29.634204   1.000000
    4      -29.585621   1.000000
    5      -16.698109   1.000000
    6      -16.512796   1.000000
    7      -16.490170   1.000000
    8       -9.372673   1.000000
    9       -7.335172   1.000000
   10       -6.757801   1.000000
   11       -6.270988   1.000000
   12       -5.939342   1.000000
   13       -4.502233   1.000000
   14       -3.643174   1.000000
   15       -2.856383   1.000000
   16       -2.306185   1.000000
   17       -1.756326   1.000000
   18       -1.340313   1.000000
   19       -1.014628   0.995280
   20        2.914950   0.000000
   21        3.528112   0.000000
   22        3.728071   0.000000
   23        4.309694   0.000000
   24        4.612607   0.000000
   25        4.918379   0.000000
   26        5.609078   0.000000
   27        6.015917   0.000000
   28        6.108311   0.000000
   29        6.580613   0.000000
   30        6.874572   0.000000
   31        7.220034   0.000000
   32        7.642619   0.000000
 
  0.3333333E+00  0.1428571E+00  0.3677614E-15  0.3968254E-02
    1      -34.505046   1.000000
    2      -30.074930   1.000000
    3      -29.635424   1.000000
    4      -29.585480   1.000000
    5      -16.698391   1.000000
    6      -16.531509   1.000000
    7      -16.494138   1.000000
    8       -9.152278   1.000000
    9       -7.512000   1.000000
   10       -6.799540   1.000000
   11       -6.296007   1.000000
   12       -5.930476   1.000000
   13       -4.271313   1.000000
   14       -3.775817   1.000000
   15       -2.826445   1.000000
   16       -2.290378   1.000000
   17       -1.792157   1.000000
   18       -1.376644   1.000000
   19       -1.160316   0.999986
   20        2.808747   0.000000
   21        3.394188   0.000000
   22        3.801861   0.000000
   23        4.302360   0.000000
   24        4.581226   0.000000
   25        4.979658   0.000000
   26        5.694162   0.000000
   27        5.891113   0.000000
   28        6.103965   0.000000
   29        6.557969   0.000000
   30        7.068156   0.000000
   31        7.258033   0.000000
   32        7.806133   0.000000
 
  0.4444444E+00  0.1428571E+00  0.3712308E-15  0.3968254E-02
    1      -34.504843   1.000000
    2      -30.074932   1.000000
    3      -29.636223   1.000000
    4      -29.585402   1.000000
    5      -16.699934   1.000000
    6      -16.545359   1.000000
    7      -16.494884   1.000000
    8       -8.899762   1.000000
    9       -7.740710   1.000000
   10       -6.832156   1.000000
   11       -6.322298   1.000000
   12       -5.930744   1.000000
   13       -4.107488   1.000000
   14       -3.879474   1.000000
   15       -2.743142   1.000000
   16       -2.262050   1.000000
   17       -1.848473   1.000000
   18       -1.395966   1.000000
   19       -1.258746   1.000000
   20        2.790164   0.000000
   21        3.273369   0.000000
   22        3.834818   0.000000
   23        4.074926   0.000000
   24        4.750213   0.000000
   25        4.955560   0.000000
   26        5.656924   0.000000
   27        5.849812   0.000000
   28        6.244265   0.000000
   29        6.478764   0.000000
   30        7.120053   0.000000
   31        7.483588   0.000000
   32        7.694918   0.000000
 
 -0.4444444E+00  0.1428571E+00  0.3538836E-15  0.3968254E-02
    1      -34.504834   1.000000
    2      -30.074928   1.000000
    3      -29.636146   1.000000
    4      -29.585339   1.000000
    5      -16.701864   1.000000
    6      -16.545535   1.000000
    7      -16.494817   1.000000
    8       -8.771602   1.000000
    9       -7.865930   1.000000
   10       -6.840781   1.000000
   11       -6.358030   1.000000
   12       -5.939057   1.000000
   13       -4.204079   1.000000
   14       -3.747772   1.000000
   15       -2.669485   1.000000
   16       -2.291840   1.000000
   17       -1.872041   1.000000
   18       -1.382287   1.000000
   19       -1.269738   1.000000
   20        2.844755   0.000000
   21        3.270598   0.000000
   22        3.757608   0.000000
   23        4.144967   0.000000
   24        4.794486   0.000000
   25        4.981303   0.000000
   26        5.516323   0.000000
   27        5.805410   0.000000
   28        6.192816   0.000000
   29        6.564465   0.000000
   30        7.085984   0.000000
   31        7.507791   0.000000
   32        7.761506   0.000000
 
 -0.3333333E+00  0.1428571E+00  0.3538836E-15  0.3968254E-02
    1      -34.505020   1.000000
    2      -30.074952   1.000000
    3      -29.635311   1.000000
    4      -29.585427   1.000000
    5      -16.703394   1.000000
    6      -16.531939   1.000000
    7      -16.493831   1.000000
    8       -8.908276   1.000000
    9       -7.771043   1.000000
   10       -6.773534   1.000000
   11       -6.403574   1.000000
   12       -5.959113   1.000000
   13       -4.337352   1.000000
   14       -3.621714   1.000000
   15       -2.617190   1.000000
   16       -2.416238   1.000000
   17       -1.825155   1.000000
   18       -1.316318   1.000000
   19       -1.225384   1.000000
   20        2.918543   0.000000
   21        3.400078   0.000000
   22        3.826248   0.000000
   23        4.232027   0.000000
   24        4.673360   0.000000
   25        5.217938   0.000000
   26        5.401068   0.000000
   27        5.750503   0.000000
   28        6.069063   0.000000
   29        6.391393   0.000000
   30        7.125872   0.000000
   31        7.479966   0.000000
   32        7.595691   0.000000
 
 -0.2222222E+00  0.1428571E+00  0.3573530E-15  0.3968254E-02
    1      -34.505319   1.000000
    2      -30.075093   1.000000
    3      -29.634265   1.000000
    4      -29.585557   1.000000
    5      -16.703923   1.000000
    6      -16.513657   1.000000
    7      -16.489787   1.000000
    8       -9.159985   1.000000
    9       -7.609484   1.000000
   10       -6.657102   1.000000
   11       -6.416442   1.000000
   12       -5.994397   1.000000
   13       -4.479278   1.000000
   14       -3.564206   1.000000
   15       -2.595261   1.000000
   16       -2.496560   1.000000
   17       -1.751272   1.000000
   18       -1.321771   1.000000
   19       -1.085395   0.999341
   20        3.016726   0.000000
   21        3.581275   0.000000
   22        3.886432   0.000000
   23        4.292678   0.000000
   24        4.500459   0.000000
   25        5.153826   0.000000
   26        5.447715   0.000000
   27        5.803884   0.000000
   28        6.100341   0.000000
   29        6.305626   0.000000
   30        6.970122   0.000000
   31        7.233793   0.000000
   32        7.711167   0.000000
 
 -0.1111111E+00  0.1428571E+00  0.3608225E-15  0.3968254E-02
    1      -34.505587   1.000000
    2      -30.075070   1.000000
    3      -29.633188   1.000000
    4      -29.585725   1.000000
    5      -16.702948   1.000000
    6      -16.504313   1.000000
    7      -16.479025   1.000000
    8       -9.377705   1.000000
    9       -7.464103   1.000000
   10       -6.637633   1.000000
   11       -6.287663   1.000000
   12       -6.037771   1.000000
   13       -4.607110   1.000000
   14       -3.583869   1.000000
   15       -2.619367   1.000000
   16       -2.435446   1.000000
   17       -1.723815   1.000000
   18       -1.328703   1.000000
   19       -0.938284   1.023714
   20        3.155725   0.000000
   21        3.607277   0.000000
   22        3.823145   0.000000
   23        4.141591   0.000000
   24        4.604627   0.000000
   25        4.906042   0.000000
   26        5.525498   0.000000
   27        5.881251   0.000000
   28        6.207326   0.000000
   29        6.463751   0.000000
   30        6.784755   0.000000
   31        7.215728   0.000000
   32        7.783851   0.000000
 
  0.3790371E-15  0.2857143E+00  0.3677614E-15  0.3968254E-02
    1      -34.505677   1.000000
    2      -30.075190   1.000000
    3      -29.632745   1.000000
    4      -29.585714   1.000000
    5      -16.705977   1.000000
    6      -16.502666   1.000000
    7      -16.473027   1.000000
    8       -9.254596   1.000000
    9       -7.777453   1.000000
   10       -6.508583   1.000000
   11       -6.241732   1.000000
   12       -6.122121   1.000000
   13       -4.612142   1.000000
   14       -3.566337   1.000000
   15       -2.734434   1.000000
   16       -2.214434   1.000000
   17       -1.731758   1.000000
   18       -1.311782   1.000000
   19       -0.925994   1.035446
   20        3.160458   0.000000
   21        3.580747   0.000000
   22        4.024025   0.000000
   23        4.208632   0.000000
   24        4.589953   0.000000
   25        4.933562   0.000000
   26        5.444108   0.000000
   27        5.744147   0.000000
   28        6.181980   0.000000
   29        6.464583   0.000000
   30        6.809571   0.000000
   31        7.381374   0.000000
   32        7.496095   0.000000
 
  0.1111111E+00  0.2857143E+00  0.3677614E-15  0.3968254E-02
    1      -34.505586   1.000000
    2      -30.075056   1.000000
    3      -29.633153   1.000000
    4      -29.585658   1.000000
    5      -16.702841   1.000000
    6      -16.503910   1.000000
    7      -16.479382   1.000000
    8       -9.306967   1.000000
    9       -7.661087   1.000000
   10       -6.533931   1.000000
   11       -6.291890   1.000000
   12       -6.030958   1.000000
   13       -4.600234   1.000000
   14       -3.570892   1.000000
   15       -2.840058   1.000000
   16       -2.160464   1.000000
   17       -1.758268   1.000000
   18       -1.296660   1.000000
   19       -0.944830   1.017828
   20        3.012071   0.000000
   21        3.600509   0.000000
   22        3.889450   0.000000
   23        4.299657   0.000000
   24        4.533403   0.000000
   25        4.926510   0.000000
   26        5.529950   0.000000
   27        5.858126   0.000000
   28        6.086528   0.000000
   29        6.590939   0.000000
   30        6.778534   0.000000
   31        7.315282   0.000000
   32        7.873974   0.000000
 
  0.2222222E+00  0.2857143E+00  0.3608225E-15  0.3968254E-02
    1      -34.505340   1.000000
    2      -30.075088   1.000000
    3      -29.634250   1.000000
    4      -29.585602   1.000000
    5      -16.699702   1.000000
    6      -16.512648   1.000000
    7      -16.490628   1.000000
    8       -9.243810   1.000000
    9       -7.633865   1.000000
   10       -6.569279   1.000000
   11       -6.354659   1.000000
   12       -5.952799   1.000000
   13       -4.500101   1.000000
   14       -3.606904   1.000000
   15       -2.918882   1.000000
   16       -2.136360   1.000000
   17       -1.786607   1.000000
   18       -1.328066   1.000000
   19       -1.042938   0.997204
   20        2.838820   0.000000
   21        3.556663   0.000000
   22        3.837620   0.000000
   23        4.328124   0.000000
   24        4.561815   0.000000
   25        4.884780   0.000000
   26        5.612956   0.000000
   27        5.944213   0.000000
   28        6.272934   0.000000
   29        6.537515   0.000000
   30        6.836510   0.000000
   31        7.259979   0.000000
   32        7.771153   0.000000
 
  0.3333333E+00  0.2857143E+00  0.3677614E-15  0.3968254E-02
    1      -34.505048   1.000000
    2      -30.074984   1.000000
    3      -29.635381   1.000000
    4      -29.585542   1.000000
    5      -16.697776   1.000000
    6      -16.531144   1.000000
    7      -16.494528   1.000000
    8       -9.074705   1.000000
    9       -7.736278   1.000000
   10       -6.640892   1.000000
   11       -6.330945   1.000000
   12       -5.921818   1.000000
   13       -4.306849   1.000000
   14       -3.751331   1.000000
   15       -2.885317   1.000000
   16       -2.137077   1.000000
   17       -1.819080   1.000000
   18       -1.371800   1.000000
   19       -1.165814   0.999990
   20        2.713585   0.000000
   21        3.407915   0.000000
   22        3.791042   0.000000
   23        4.290030   0.000000
   24        4.566094   0.000000
   25        5.007657   0.000000
   26        5.675265   0.000000
   27        6.000134   0.000000
   28        6.286044   0.000000
   29        6.585242   0.000000
   30        7.051064   0.000000
   31        7.150649   0.000000
   32        7.736228   0.000000
 
  0.4444444E+00  0.2857143E+00  0.3677614E-15  0.3968254E-02
    1      -34.504852   1.000000
    2      -30.074983   1.000000
    3      -29.636263   1.000000
    4      -29.585399   1.000000
    5      -16.698276   1.000000
    6      -16.545151   1.000000
    7      -16.495197   1.000000
    8       -8.841302   1.000000
    9       -7.924011   1.000000
   10       -6.739189   1.000000
   11       -6.293051   1.000000
   12       -5.921537   1.000000
   13       -4.133518   1.000000
   14       -3.876847   1.000000
   15       -2.804694   1.000000
   16       -2.138599   1.000000
   17       -1.851738   1.000000
   18       -1.399016   1.000000
   19       -1.257484   1.000000
   20        2.660747   0.000000
   21        3.277100   0.000000
   22        3.757194   0.000000
   23        4.211212   0.000000
   24        4.555957   0.000000
   25        5.157873   0.000000
   26        5.698611   0.000000
   27        6.001063   0.000000
   28        6.228942   0.000000
   29        6.525988   0.000000
   30        7.076314   0.000000
   31        7.467145   0.000000
   32        7.788974   0.000000
 
 -0.4444444E+00  0.2857143E+00  0.3608225E-15  0.3968254E-02
    1      -34.504838   1.000000
    2      -30.074966   1.000000
    3      -29.636127   1.000000
    4      -29.585342   1.000000
    5      -16.700766   1.000000
    6      -16.545261   1.000000
    7      -16.495059   1.000000
    8       -8.639562   1.000000
    9       -8.093403   1.000000
   10       -6.824311   1.000000
   11       -6.281369   1.000000
   12       -5.944859   1.000000
   13       -4.227076   1.000000
   14       -3.730769   1.000000
   15       -2.741422   1.000000
   16       -2.146071   1.000000
   17       -1.873392   1.000000
   18       -1.402582   1.000000
   19       -1.265422   1.000000
   20        2.710355   0.000000
   21        3.246016   0.000000
   22        3.759574   0.000000
   23        4.229565   0.000000
   24        4.646172   0.000000
   25        5.159717   0.000000
   26        5.614337   0.000000
   27        5.817112   0.000000
   28        6.231891   0.000000
   29        6.628137   0.000000
   30        7.046605   0.000000
   31        7.565032   0.000000
   32        7.722691   0.000000
 
 -0.3333333E+00  0.2857143E+00  0.3538836E-15  0.3968254E-02
    1      -34.505017   1.000000
    2      -30.075067   1.000000
    3      -29.635336   1.000000
    4      -29.585403   1.000000
    5      -16.704035   1.000000
    6      -16.531804   1.000000
    7      -16.494129   1.000000
    8       -8.667964   1.000000
    9       -8.099549   1.000000
   10       -6.811712   1.000000
   11       -6.310815   1.000000
   12       -5.980156   1.000000
   13       -4.357641   1.000000
   14       -3.578219   1.000000
   15       -2.714425   1.000000
   16       -2.215993   1.000000
   17       -1.847076   1.000000
   18       -1.315358   1.000000
   19       -1.239888   1.000000
   20        2.827288   0.000000
   21        3.356232   0.000000
   22        3.829306   0.000000
   23        4.357905   0.000000
   24        4.750214   0.000000
   25        5.117680   0.000000
   26        5.373782   0.000000
   27        5.762773   0.000000
   28        6.122123   0.000000
   29        6.585745   0.000000
   30        7.170898   0.000000
   31        7.297118   0.000000
   32        7.637406   0.000000
 
 -0.2222222E+00  0.2857143E+00  0.3677614E-15  0.3968254E-02
    1      -34.505303   1.000000
    2      -30.075132   1.000000
    3      -29.634187   1.000000
    4      -29.585478   1.000000
    5      -16.706587   1.000000
    6      -16.513602   1.000000
    7      -16.490048   1.000000
    8       -8.876476   1.000000
    9       -8.008089   1.000000
   10       -6.656977   1.000000
   11       -6.367930   1.000000
   12       -6.020890   1.000000
   13       -4.468703   1.000000
   14       -3.509946   1.000000
   15       -2.702072   1.000000
   16       -2.295611   1.000000
   17       -1.765924   1.000000
   18       -1.285379   1.000000
   19       -1.134453   0.999938
   20        2.966700   0.000000
   21        3.560194   0.000000
   22        3.954496   0.000000
   23        4.355100   0.000000
   24        4.752937   0.000000
   25        5.134875   0.000000
   26        5.221499   0.000000
   27        5.719556   0.000000
   28        6.131159   0.000000
   29        6.400433   0.000000
   30        7.044310   0.000000
   31        7.210352   0.000000
   32        7.614551   0.000000
 
 -0.1111111E+00  0.2857143E+00  0.3469447E-15  0.3968254E-02
    1      -34.505567   1.000000
    2      -30.075192   1.000000
    3      -29.633235   1.000000
    4      -29.585653   1.000000
    5      -16.707397   1.000000
    6      -16.504550   1.000000
    7      -16.479342   1.000000
    8       -9.097717   1.000000
    9       -7.905282   1.000000
   10       -6.475680   1.000000
   11       -6.393698   1.000000
   12       -6.074432   1.000000
   13       -4.558634   1.000000
   14       -3.531785   1.000000
   15       -2.690813   1.000000
   16       -2.283322   1.000000
   17       -1.719916   1.000000
   18       -1.318693   1.000000
   19       -1.000307   0.995155
   20        3.107652   0.000000
   21        3.681593   0.000000
   22        3.970031   0.000000
   23        4.344284   0.000000
   24        4.610561   0.000000
   25        4.961157   0.000000
   26        5.395622   0.000000
   27        5.695992   0.000000
   28        6.204332   0.000000
   29        6.380759   0.000000
   30        6.833152   0.000000
   31        7.156586   0.000000
   32        7.589126   0.000000
 
  0.3803381E-15  0.4285714E+00  0.3608225E-15  0.3968254E-02
    1      -34.505660   1.000000
    2      -30.075271   1.000000
    3      -29.632824   1.000000
    4      -29.585589   1.000000
    5      -16.709626   1.000000
    6      -16.502849   1.000000
    7      -16.473299   1.000000
    8       -8.926493   1.000000
    9       -8.209680   1.000000
   10       -6.426230   1.000000
   11       -6.294951   1.000000
   12       -6.155184   1.000000
   13       -4.571214   1.000000
   14       -3.524527   1.000000
   15       -2.747577   1.000000
   16       -2.156069   1.000000
   17       -1.704310   1.000000
   18       -1.323882   1.000000
   19       -0.972239   1.000504
   20        3.092684   0.000000
   21        3.787253   0.000000
   22        4.114915   0.000000
   23        4.313117   0.000000
   24        4.692721   0.000000
   25        4.919158   0.000000
   26        5.352928   0.000000
   27        5.695602   0.000000
   28        6.128325   0.000000
   29        6.428847   0.000000
   30        6.663271   0.000000
   31        7.162232   0.000000
   32        7.311115   0.000000
 
  0.1111111E+00  0.4285714E+00  0.3747003E-15  0.3968254E-02
    1      -34.505569   1.000000
    2      -30.075179   1.000000
    3      -29.633262   1.000000
    4      -29.585606   1.000000
    5      -16.707287   1.000000
    6      -16.504269   1.000000
    7      -16.479728   1.000000
    8       -8.994630   1.000000
    9       -8.081927   1.000000
   10       -6.488867   1.000000
   11       -6.296072   1.000000
   12       -6.103754   1.000000
   13       -4.557464   1.000000
   14       -3.519897   1.000000
   15       -2.822528   1.000000
   16       -2.118354   1.000000
   17       -1.733819   1.000000
   18       -1.298782   1.000000
   19       -1.004324   0.995069
   20        2.993107   0.000000
   21        3.760578   0.000000
   22        4.047472   0.000000
   23        4.330530   0.000000
   24        4.623648   0.000000
   25        4.836544   0.000000
   26        5.434020   0.000000
   27        5.782863   0.000000
   28        6.167275   0.000000
   29        6.484061   0.000000
   30        6.719696   0.000000
   31        7.137654   0.000000
   32        7.613091   0.000000
 
  0.2222222E+00  0.4285714E+00  0.3885781E-15  0.3968254E-02
    1      -34.505318   1.000000
    2      -30.075067   1.000000
    3      -29.634118   1.000000
    4      -29.585510   1.000000
    5      -16.703278   1.000000
    6      -16.512700   1.000000
    7      -16.490682   1.000000
    8       -8.973964   1.000000
    9       -7.987414   1.000000
   10       -6.545768   1.000000
   11       -6.353063   1.000000
   12       -6.006667   1.000000
   13       -4.484985   1.000000
   14       -3.542617   1.000000
   15       -2.890324   1.000000
   16       -2.064171   1.000000
   17       -1.788652   1.000000
   18       -1.311949   1.000000
   19       -1.093255   0.999527
   20        2.825222   0.000000
   21        3.610477   0.000000
   22        4.030524   0.000000
   23        4.306891   0.000000
   24        4.520477   0.000000
   25        4.903159   0.000000
   26        5.501982   0.000000
   27        5.803805   0.000000
   28        6.263922   0.000000
   29        6.592461   0.000000
   30        6.863236   0.000000
   31        7.333228   0.000000
   32        7.791223   0.000000
 
  0.3333333E+00  0.4285714E+00  0.3747003E-15  0.3968254E-02
    1      -34.505037   1.000000
    2      -30.074962   1.000000
    3      -29.635423   1.000000
    4      -29.585400   1.000000
    5      -16.699477   1.000000
    6      -16.531230   1.000000
    7      -16.494565   1.000000
    8       -8.860402   1.000000
    9       -8.031317   1.000000
   10       -6.554547   1.000000
   11       -6.388034   1.000000
   12       -5.942114   1.000000
   13       -4.353485   1.000000
   14       -3.669013   1.000000
   15       -2.865418   1.000000
   16       -2.036848   1.000000
   17       -1.849633   1.000000
   18       -1.369494   1.000000
   19       -1.184814   0.999997