 running on   32 total cores
 distrk:  each k-point on   32 cores,    1 groups
 distr:  one band on    8 cores,    4 groups
 using from now: INCAR     
 vasp.5.4.4.18Apr17-6-g9f103f2a35 (build Nov 01 2019 12:17:22) complex          
  
 POSCAR found type information on POSCAR  H  Nb H  Sr
 POSCAR found :  4 types and      19 ions

 ----------------------------------------------------------------------------- 
|                                                                             |
|  ADVICE TO THIS USER RUNNING 'VASP/VAMP'   (HEAR YOUR MASTER'S VOICE ...):  |
|                                                                             |
|      You have a (more or less) 'large supercell' and for larger cells       |
|      it might be more efficient to use real space projection opertators     |
|      So try LREAL= Auto  in the INCAR   file.                               |
|      Mind:          For very  accurate calculation you might also keep the  |
|      reciprocal projection scheme          (i.e. LREAL=.FALSE.)             |
|                                                                             |
 ----------------------------------------------------------------------------- 

 LDA part: xc-table for Pade appr. of Perdew
 generate k-points for:    9    7    8
 POSCAR, INCAR and KPOINTS ok, starting setup
 FFT: planning ...
 WAVECAR not read
 entering main loop
       N       E                     dE             d eps       ncg     rms          rms(c)
DAV:   1     0.113316792325E+03    0.11332E+03   -0.12051E+04 17040   0.613E+02
DAV:   2    -0.617287076941E+02   -0.17505E+03   -0.16949E+03 20064   0.233E+02
DAV:   3    -0.722959985670E+02   -0.10567E+02   -0.10503E+02 25288   0.471E+01
DAV:   4    -0.727229310895E+02   -0.42693E+00   -0.42570E+00 25840   0.810E+00
DAV:   5    -0.727310240649E+02   -0.80930E-02   -0.80924E-02 23368   0.879E-01    0.391E+01
DAV:   6    -0.699620794802E+02    0.27689E+01   -0.33396E+00 24256   0.115E+01    0.178E+01
DAV:   7    -0.689404969538E+02    0.10216E+01   -0.16507E+00 24080   0.542E+00    0.649E+00
DAV:   8    -0.689141408047E+02    0.26356E-01   -0.34443E-01 24224   0.303E+00    0.197E+00
DAV:   9    -0.689187011162E+02   -0.45603E-02   -0.14959E-02 20592   0.629E-01    0.118E+00
DAV:  10    -0.689246336691E+02   -0.59326E-02   -0.10195E-02 20512   0.550E-01    0.138E-01
DAV:  11    -0.689252911122E+02   -0.65744E-03   -0.12717E-03 22120   0.183E-01    0.119E-01
DAV:  12    -0.689255450635E+02   -0.25395E-03   -0.24961E-04 19904   0.769E-02    0.411E-02
DAV:  13    -0.689255709793E+02   -0.25916E-04   -0.32309E-05 16552   0.289E-02
   1 F= -.68925571E+02 E0= -.68925623E+02  d E =-.689256E+02
 curvature:   0.00 expect dE= 0.000E+00 dE for cont linesearch  0.000E+00
 trial: gam= 0.00000 g(F)=  0.181E-02 g(S)=  0.147E-03 ort = 0.000E+00 (trialstep = 0.100E+01)
 search vector abs. value=  0.196E-02
 bond charge predicted
       N       E                     dE             d eps       ncg     rms          rms(c)
DAV:   1    -0.689253306270E+02    0.21444E-03   -0.89124E-02 18704   0.215E+00    0.123E-01
DAV:   2    -0.689262468889E+02   -0.91626E-03   -0.10556E-02 19608   0.491E-01    0.752E-02
DAV:   3    -0.689262343318E+02    0.12557E-04   -0.13131E-04 20944   0.644E-02
   2 F= -.68926234E+02 E0= -.68926287E+02  d E =-.663352E-03
 trial-energy change:   -0.000663  1 .order   -0.000689   -0.001956    0.000578
 step:   0.7718(harm=  0.7718)  dis= 0.00286  next Energy=   -68.926326 (dE=-0.755E-03)
 bond charge predicted
       N       E                     dE             d eps       ncg     rms          rms(c)
DAV:   1    -0.689262527409E+02   -0.58520E-05   -0.49541E-03 18880   0.514E-01    0.269E-02
DAV:   2    -0.689263097734E+02   -0.57033E-04   -0.62605E-04 18528   0.124E-01
   3 F= -.68926310E+02 E0= -.68926362E+02  d E =-.738794E-03
 curvature:  -0.39 expect dE=-0.774E-03 dE for cont linesearch -0.557E-06
 trial: gam= 1.05238 g(F)=  0.188E-02 g(S)=  0.123E-03 ort =-0.531E-04 (trialstep = 0.460E+00)
 search vector abs. value=  0.406E-02
 reached required accuracy - stopping structural energy minimisation
