  21  21   0   0
  0.7491630E+01  0.4703806E-09  0.5658113E-09  0.6020451E-09  0.5000000E-15
  1.000000000000000E-004
  CAR 
 unknown system                          
      9.56652784    -36.58370317  301     -0.80054166      1.00000000
    -36.584  0.0000E+00  0.0000E+00
    -36.430  0.0000E+00  0.0000E+00
    -36.276  0.0000E+00  0.0000E+00
    -36.122  0.0000E+00  0.0000E+00
    -35.968  0.0000E+00  0.0000E+00
    -35.815  0.0000E+00  0.0000E+00
    -35.661  0.0000E+00  0.0000E+00
    -35.507  0.0000E+00  0.0000E+00
    -35.353  0.3574E-31  0.5498E-32
    -35.199  0.7243E-21  0.1114E-21
    -35.045  0.1097E-12  0.1687E-13
    -34.892  0.1080E-06  0.1661E-07
    -34.738  0.4127E-03  0.6350E-04
    -34.584 -0.1153E-01 -0.1710E-02
    -34.430  0.2201E+00  0.3215E-01
    -34.276  0.6674E-02  0.3317E-01
    -34.122  0.1041E-02  0.3333E-01
    -33.969  0.2124E-05  0.3333E-01
    -33.815  0.9646E-11  0.3333E-01
    -33.661  0.0000E+00  0.3333E-01
    -33.507  0.0000E+00  0.3333E-01
    -33.353  0.0000E+00  0.3333E-01
    -33.199  0.0000E+00  0.3333E-01
    -33.046  0.0000E+00  0.3333E-01
    -32.892  0.0000E+00  0.3333E-01
    -32.738  0.0000E+00  0.3333E-01
    -32.584  0.0000E+00  0.3333E-01
    -32.430  0.0000E+00  0.3333E-01
    -32.276  0.0000E+00  0.3333E-01
    -32.123  0.0000E+00  0.3333E-01
    -31.969  0.0000E+00  0.3333E-01
    -31.815  0.0000E+00  0.3333E-01
    -31.661  0.0000E+00  0.3333E-01
    -31.507  0.0000E+00  0.3333E-01
    -31.353  0.0000E+00  0.3333E-01
    -31.200  0.1022E-35  0.3333E-01
    -31.046  0.1350E-24  0.3333E-01
    -30.892  0.1367E-15  0.3333E-01
    -30.738  0.9676E-09  0.3333E-01
    -30.584  0.3603E-04  0.3334E-01
    -30.430 -0.1231E-02  0.3315E-01
    -30.277  0.9927E-01  0.4842E-01
    -30.123  0.1221E+00  0.6721E-01
    -29.969  0.1657E-01  0.6976E-01
    -29.815  0.2581E+00  0.1095E+00
    -29.661  0.1615E+00  0.1343E+00
    -29.507 -0.6463E-02  0.1333E+00
    -29.354  0.1456E-03  0.1333E+00
    -29.200  0.1223E-07  0.1333E+00
    -29.046  0.4757E-14  0.1333E+00
    -28.892  0.0000E+00  0.1333E+00
    -28.738  0.0000E+00  0.1333E+00
    -28.584  0.0000E+00  0.1333E+00
    -28.430  0.0000E+00  0.1333E+00
    -28.277  0.0000E+00  0.1333E+00
    -28.123  0.0000E+00  0.1333E+00
    -27.969  0.0000E+00  0.1333E+00
    -27.815  0.0000E+00  0.1333E+00
    -27.661  0.0000E+00  0.1333E+00
    -27.507  0.0000E+00  0.1333E+00
    -27.354  0.0000E+00  0.1333E+00
    -27.200  0.0000E+00  0.1333E+00
    -27.046  0.0000E+00  0.1333E+00
    -26.892  0.0000E+00  0.1333E+00
    -26.738  0.0000E+00  0.1333E+00
    -26.584  0.0000E+00  0.1333E+00
    -26.431  0.0000E+00  0.1333E+00
    -26.277  0.0000E+00  0.1333E+00
    -26.123  0.0000E+00  0.1333E+00
    -25.969  0.0000E+00  0.1333E+00
    -25.815  0.0000E+00  0.1333E+00
    -25.661  0.0000E+00  0.1333E+00
    -25.508  0.0000E+00  0.1333E+00
    -25.354  0.0000E+00  0.1333E+00
    -25.200  0.0000E+00  0.1333E+00
    -25.046  0.0000E+00  0.1333E+00
    -24.892  0.0000E+00  0.1333E+00
    -24.738  0.0000E+00  0.1333E+00
    -24.585  0.0000E+00  0.1333E+00
    -24.431  0.0000E+00  0.1333E+00
    -24.277  0.0000E+00  0.1333E+00
    -24.123  0.0000E+00  0.1333E+00
    -23.969  0.0000E+00  0.1333E+00
    -23.815  0.0000E+00  0.1333E+00
    -23.662  0.0000E+00  0.1333E+00
    -23.508  0.0000E+00  0.1333E+00
    -23.354  0.0000E+00  0.1333E+00
    -23.200  0.0000E+00  0.1333E+00
    -23.046  0.0000E+00  0.1333E+00
    -22.892  0.0000E+00  0.1333E+00
    -22.739  0.0000E+00  0.1333E+00
    -22.585  0.0000E+00  0.1333E+00
    -22.431  0.0000E+00  0.1333E+00
    -22.277  0.0000E+00  0.1333E+00
    -22.123  0.0000E+00  0.1333E+00
    -21.969  0.0000E+00  0.1333E+00
    -21.816  0.0000E+00  0.1333E+00
    -21.662  0.0000E+00  0.1333E+00
    -21.508  0.0000E+00  0.1333E+00
    -21.354  0.0000E+00  0.1333E+00
    -21.200  0.0000E+00  0.1333E+00
    -21.046  0.0000E+00  0.1333E+00
    -20.893  0.0000E+00  0.1333E+00
    -20.739  0.0000E+00  0.1333E+00
    -20.585  0.0000E+00  0.1333E+00
    -20.431  0.0000E+00  0.1333E+00
    -20.277  0.0000E+00  0.1333E+00
    -20.123  0.0000E+00  0.1333E+00
    -19.970  0.0000E+00  0.1333E+00
    -19.816  0.0000E+00  0.1333E+00
    -19.662  0.0000E+00  0.1333E+00
    -19.508  0.0000E+00  0.1333E+00
    -19.354  0.0000E+00  0.1333E+00
    -19.200  0.0000E+00  0.1333E+00
    -19.047  0.0000E+00  0.1333E+00
    -18.893  0.0000E+00  0.1333E+00
    -18.739  0.0000E+00  0.1333E+00
    -18.585  0.0000E+00  0.1333E+00
    -18.431  0.0000E+00  0.1333E+00
    -18.277  0.0000E+00  0.1333E+00
    -18.124  0.0000E+00  0.1333E+00
    -17.970  0.0000E+00  0.1333E+00
    -17.816  0.0000E+00  0.1333E+00
    -17.662  0.0000E+00  0.1333E+00
    -17.508  0.3008E-27  0.1333E+00
    -17.354  0.1035E-17  0.1333E+00
    -17.201  0.2611E-10  0.1333E+00
    -17.047  0.3941E-05  0.1333E+00
    -16.893  0.1050E-02  0.1335E+00
    -16.739  0.1999E-01  0.1366E+00
    -16.585  0.2039E+00  0.1679E+00
    -16.431  0.4290E+00  0.2339E+00
    -16.278 -0.5374E-02  0.2331E+00
    -16.124  0.1515E-02  0.2333E+00
    -15.970  0.2037E-05  0.2333E+00
    -15.816  0.8070E-11  0.2333E+00
    -15.662  0.0000E+00  0.2333E+00
    -15.508  0.0000E+00  0.2333E+00
    -15.355  0.0000E+00  0.2333E+00
    -15.201  0.0000E+00  0.2333E+00
    -15.047  0.0000E+00  0.2333E+00
    -14.893  0.0000E+00  0.2333E+00
    -14.739  0.0000E+00  0.2333E+00
    -14.585  0.0000E+00  0.2333E+00
    -14.432  0.0000E+00  0.2333E+00
    -14.278  0.0000E+00  0.2333E+00
    -14.124  0.0000E+00  0.2333E+00
    -13.970  0.0000E+00  0.2333E+00
    -13.816  0.0000E+00  0.2333E+00
    -13.662  0.0000E+00  0.2333E+00
    -13.509  0.0000E+00  0.2333E+00
    -13.355  0.0000E+00  0.2333E+00
    -13.201  0.0000E+00  0.2333E+00
    -13.047  0.0000E+00  0.2333E+00
    -12.893  0.0000E+00  0.2333E+00
    -12.739  0.0000E+00  0.2333E+00
    -12.586  0.0000E+00  0.2333E+00
    -12.432  0.0000E+00  0.2333E+00
    -12.278  0.0000E+00  0.2333E+00
    -12.124  0.0000E+00  0.2333E+00
    -11.970  0.0000E+00  0.2333E+00
    -11.816  0.0000E+00  0.2333E+00
    -11.663  0.0000E+00  0.2333E+00
    -11.509  0.0000E+00  0.2333E+00
    -11.355  0.0000E+00  0.2333E+00
    -11.201  0.0000E+00  0.2333E+00
    -11.047  0.0000E+00  0.2333E+00
    -10.893  0.0000E+00  0.2333E+00
    -10.740  0.0000E+00  0.2333E+00
    -10.586  0.1646E-35  0.2333E+00
    -10.432  0.6819E-25  0.2333E+00
    -10.278  0.2137E-16  0.2333E+00
    -10.124  0.4558E-10  0.2333E+00
     -9.970  0.5166E-06  0.2333E+00
     -9.817  0.5760E-05  0.2333E+00
     -9.663  0.5834E-03  0.2334E+00
     -9.509  0.9444E-02  0.2349E+00
     -9.355  0.1655E-01  0.2374E+00
     -9.201  0.2200E-01  0.2408E+00
     -9.047  0.3193E-01  0.2457E+00
     -8.894  0.3853E-01  0.2516E+00
     -8.740  0.4008E-01  0.2578E+00
     -8.586  0.3272E-01  0.2628E+00
     -8.432  0.2737E-01  0.2671E+00
     -8.278  0.2668E-01  0.2712E+00
     -8.124  0.3304E-01  0.2762E+00
     -7.971  0.4027E-01  0.2824E+00
     -7.817  0.4185E-01  0.2889E+00
     -7.663  0.4790E-01  0.2962E+00
     -7.509  0.4774E-01  0.3036E+00
     -7.355  0.5449E-01  0.3120E+00
     -7.201  0.8124E-01  0.3245E+00
     -7.048  0.4890E-01  0.3320E+00
     -6.894  0.2796E-01  0.3363E+00
     -6.740  0.5746E-01  0.3451E+00
     -6.586  0.3341E-01  0.3503E+00
     -6.432  0.9114E-01  0.3643E+00
     -6.278  0.1029E+00  0.3801E+00
     -6.125  0.4612E-01  0.3872E+00
     -5.971  0.3181E-01  0.3921E+00
     -5.817  0.3571E-01  0.3976E+00
     -5.663  0.3383E-01  0.4028E+00
     -5.509  0.1336E+00  0.4234E+00
     -5.355  0.6420E-01  0.4332E+00
     -5.202  0.4754E-03  0.4333E+00
     -5.048  0.1119E-03  0.4333E+00
     -4.894 -0.3082E-04  0.4333E+00
     -4.740  0.2543E-02  0.4337E+00
     -4.586  0.1113E-01  0.4354E+00
     -4.432  0.3736E-01  0.4412E+00
     -4.279  0.4806E-01  0.4486E+00
     -4.125  0.4577E-01  0.4556E+00
     -3.971  0.5091E-01  0.4634E+00
     -3.817  0.1788E-01  0.4662E+00
     -3.663  0.2985E-02  0.4667E+00
     -3.509  0.2080E-01  0.4699E+00
     -3.356  0.9094E-01  0.4838E+00
     -3.202  0.1163E+00  0.5017E+00
     -3.048  0.7353E-01  0.5131E+00
     -2.894  0.1028E+00  0.5289E+00
     -2.740  0.4869E-01  0.5363E+00
     -2.586  0.3951E-01  0.5424E+00
     -2.433  0.6009E-01  0.5517E+00
     -2.279  0.1079E+00  0.5683E+00
     -2.125  0.9923E-01  0.5835E+00
     -1.971  0.1276E+00  0.6032E+00
     -1.817  0.1263E+00  0.6226E+00
     -1.663  0.5956E-01  0.6318E+00
     -1.510  0.3146E-01  0.6366E+00
     -1.356  0.5911E-01  0.6457E+00
     -1.202  0.5203E-01  0.6537E+00
     -1.048  0.4336E-01  0.6604E+00
     -0.894  0.3379E-01  0.6656E+00
     -0.740  0.7352E-02  0.6667E+00
     -0.587 -0.1896E-03  0.6667E+00
     -0.433  0.8221E-05  0.6667E+00
     -0.279  0.1533E-08  0.6667E+00
     -0.125  0.1429E-14  0.6667E+00
      0.029  0.0000E+00  0.6667E+00
      0.183  0.0000E+00  0.6667E+00
      0.336  0.0000E+00  0.6667E+00
      0.490  0.0000E+00  0.6667E+00
      0.644  0.0000E+00  0.6667E+00
      0.798  0.0000E+00  0.6667E+00
      0.952  0.0000E+00  0.6667E+00
      1.106  0.0000E+00  0.6667E+00
      1.259  0.0000E+00  0.6667E+00
      1.413  0.0000E+00  0.6667E+00
      1.567  0.0000E+00  0.6667E+00
      1.721  0.4223E-31  0.6667E+00
      1.875  0.3636E-21  0.6667E+00
      2.029  0.2393E-13  0.6667E+00
      2.182  0.1050E-07  0.6667E+00
      2.336  0.1883E-04  0.6667E+00
      2.490 -0.2537E-03  0.6666E+00
      2.644  0.1153E-01  0.6684E+00
      2.798  0.4141E-01  0.6748E+00
      2.952  0.8608E-01  0.6880E+00
      3.105  0.1094E+00  0.7048E+00
      3.259  0.8946E-01  0.7186E+00
      3.413  0.6627E-01  0.7288E+00
      3.567  0.7658E-01  0.7406E+00
      3.721  0.7829E-01  0.7526E+00
      3.875  0.9728E-01  0.7676E+00
      4.029  0.8460E-01  0.7806E+00
      4.182  0.8795E-01  0.7941E+00
      4.336  0.6795E-01  0.8046E+00
      4.490  0.6414E-01  0.8145E+00
      4.644  0.8582E-01  0.8277E+00
      4.798  0.9333E-01  0.8420E+00
      4.952  0.9950E-01  0.8573E+00
      5.105  0.7635E-01  0.8691E+00
      5.259  0.8272E-01  0.8818E+00
      5.413  0.1118E+00  0.8990E+00
      5.567  0.1000E+00  0.9144E+00
      5.721  0.1086E+00  0.9311E+00
      5.875  0.1010E+00  0.9466E+00
      6.028  0.9454E-01  0.9612E+00
      6.182  0.8642E-01  0.9745E+00
      6.336  0.1032E+00  0.9903E+00
      6.490  0.9913E-01  0.1006E+01
      6.644  0.8747E-01  0.1019E+01
      6.798  0.7995E-01  0.1031E+01
      6.951  0.9442E-01  0.1046E+01
      7.105  0.6694E-01  0.1056E+01
      7.259  0.4391E-01  0.1063E+01
      7.413  0.1994E-01  0.1066E+01
      7.567  0.4533E-02  0.1067E+01
      7.721 -0.1145E-03  0.1067E+01
      7.874  0.4590E-05  0.1067E+01
      8.028  0.8037E-09  0.1067E+01
      8.182  0.7159E-15  0.1067E+01
      8.336  0.0000E+00  0.1067E+01
      8.490  0.0000E+00  0.1067E+01
      8.644  0.0000E+00  0.1067E+01
      8.797  0.0000E+00  0.1067E+01
      8.951  0.0000E+00  0.1067E+01
      9.105  0.0000E+00  0.1067E+01
      9.259  0.0000E+00  0.1067E+01
      9.413  0.0000E+00  0.1067E+01
      9.567  0.0000E+00  0.1067E+01
