   15   15   60    1
  0.6041093E+01  0.2929517E-09  0.4246427E-09  0.7386728E-09  0.5000000E-15
  1.000000000000000E-004
  CAR 
 unknown system                          
     15    352     16
 
  0.3742002E-15  0.3742002E-15  0.3742002E-15  0.1428571E-02
    1      -12.383711   1.000000
    2      -10.531151   1.000000
    3       -9.334659   1.000000
    4       -8.082743   1.000000
    5       -6.909421   1.000000
    6       -6.154702   1.000000
    7       -5.307528   1.000000
    8        2.233777   0.000000
    9        3.317105   0.000000
   10        4.196325   0.000000
   11        4.673117   0.000000
   12        5.681693   0.000000
   13        6.222685   0.000000
   14        6.533942   0.000000
   15        7.325524   0.000000
   16        8.132562   0.000000
 
  0.7142857E-01  0.3739820E-15  0.3747003E-15  0.2857143E-02
    1      -12.301668   1.000000
    2      -10.460035   1.000000
    3       -9.280066   1.000000
    4       -8.028040   1.000000
    5       -6.885738   1.000000
    6       -6.144850   1.000000
    7       -5.352807   1.000000
    8        2.314590   0.000000
    9        3.392510   0.000000
   10        3.692677   0.000000
   11        4.274776   0.000000
   12        4.898338   0.000000
   13        5.990757   0.000000
   14        7.215522   0.000000
   15        7.796584   0.000000
   16        8.768030   0.000000
 
  0.1428571E+00  0.3578409E-15  0.3729655E-15  0.2857143E-02
    1      -12.054128   1.000000
    2      -10.246313   1.000000
    3       -9.121116   1.000000
    4       -7.869559   1.000000
    5       -6.823994   1.000000
    6       -6.129236   1.000000
    7       -5.490782   1.000000
    8        1.561816   0.000000
    9        2.561343   0.000000
   10        3.661525   0.000000
   11        4.452135   0.000000
   12        4.863158   0.000000
   13        6.024553   0.000000
   14        6.785632   0.000000
   15        7.428683   0.000000
   16        8.615690   0.000000
 
  0.2142857E+00  0.3616627E-15  0.3712308E-15  0.2857143E-02
    1      -11.639352   1.000000
    2       -9.890878   1.000000
    3       -8.866691   1.000000
    4       -7.611711   1.000000
    5       -6.742197   1.000000
    6       -6.144680   1.000000
    7       -5.731522   1.000000
    8       -0.413154   0.000000
    9        2.950700   0.000000
   10        4.046087   0.000000
   11        4.638903   0.000000
   12        4.868720   0.000000
   13        5.781081   0.000000
   14        5.937027   0.000000
   15        7.464150   0.000000
   16        8.299449   0.000000
 
  0.2857143E+00  0.3480831E-15  0.3747003E-15  0.2857143E-02
    1      -11.079308   1.000000
    2       -9.408769   1.000000
    3       -8.558432   1.000000
    4       -7.276720   1.000000
    5       -6.686945   1.000000
    6       -6.332509   1.000000
    7       -5.991190   1.000000
    8       -2.190415   0.830675
    9        3.448213   0.000000
   10        4.175859   0.000000
   11        4.693264   0.000000
   12        4.911071   0.000000
   13        5.077750   0.000000
   14        5.830912   0.000000
   15        7.722488   0.000000
   16        8.323034   0.000000
 
  0.3571429E+00  0.3554557E-15  0.3642919E-15  0.2857143E-02
    1      -10.379561   1.000000
    2       -8.814207   1.000000
    3       -8.254996   1.000000
    4       -6.903016   1.000000
    5       -6.853928   1.000000
    6       -6.601366   1.000000
    7       -6.172805   1.000000
    8       -3.711869   1.000000
    9        3.570937   0.000000
   10        3.956285   0.000000
   11        4.406929   0.000000
   12        4.896975   0.000000
   13        5.572360   0.000000
   14        6.108312   0.000000
   15        7.885437   0.000000
   16        8.312896   0.000000
 
  0.4285714E+00  0.3547510E-15  0.3816392E-15  0.2857143E-02
    1       -9.588605   1.000000
    2       -8.212590   1.000000
    3       -8.160482   1.000000
    4       -7.342920   1.000000
    5       -6.738801   1.000000
    6       -6.476131   1.000000
    7       -6.316051   1.000000
    8       -4.914242   1.000000
    9        3.159061   0.000000
   10        3.694913   0.000000
   11        4.590046   0.000000
   12        5.216067   0.000000
   13        6.200767   0.000000
   14        6.486450   0.000000
   15        7.588287   0.000000
   16        8.035003   0.000000
 
  0.5000000E+00  0.3551304E-15  0.3747003E-15  0.1428571E-02
    1       -8.849981   1.000000
    2       -8.708536   1.000000
    3       -7.733553   1.000000
    4       -7.492553   1.000000
    5       -6.827802   1.000000
    6       -6.623786   1.000000
    7       -5.925442   1.000000
    8       -5.613666   1.000000
    9        3.003487   0.000000
   10        3.543534   0.000000
   11        4.679951   0.000000
   12        5.468050   0.000000
   13        6.491443   0.000000
   14        6.847933   0.000000
   15        7.138132   0.000000
   16        7.864241   0.000000
 
  0.3736076E-15  0.1000000E+00  0.3816392E-15  0.2857143E-02
    1      -12.327739   1.000000
    2      -10.496057   1.000000
    3       -9.278926   1.000000
    4       -8.192930   1.000000
    5       -7.051293   1.000000
    6       -6.200223   1.000000
    7       -5.305239   1.000000
    8        2.223862   0.000000
    9        3.528947   0.000000
   10        4.316841   0.000000
   11        4.660203   0.000000
   12        5.660615   0.000000
   13        6.239161   0.000000
   14        6.360490   0.000000
   15        7.473009   0.000000
   16        8.226884   0.000000
 
  0.7142857E-01  0.1000000E+00  0.3747003E-15  0.2857143E-02
    1      -12.236711   1.000000
    2      -10.418549   1.000000
    3       -9.213377   1.000000
    4       -8.153407   1.000000
    5       -7.047579   1.000000
    6       -6.204575   1.000000
    7       -5.352720   1.000000
    8        2.303573   0.000000
    9        3.546712   0.000000
   10        3.773493   0.000000
   11        4.464439   0.000000
   12        4.825654   0.000000
   13        5.856490   0.000000
   14        7.208610   0.000000
   15        7.940790   0.000000
   16        8.903661   0.000000
 
  0.1428571E+00  0.1000000E+00  0.3747003E-15  0.2857143E-02
    1      -11.980716   1.000000
    2      -10.197826   1.000000
    3       -9.044776   1.000000
    4       -8.008832   1.000000
    5       -6.999278   1.000000
    6       -6.203722   1.000000
    7       -5.489277   1.000000
    8        1.556890   0.000000
    9        2.552323   0.000000
   10        3.905111   0.000000
   11        4.646174   0.000000
   12        4.825023   0.000000
   13        5.826727   0.000000
   14        6.724481   0.000000
   15        7.540609   0.000000
   16        9.101552   0.000000
 
  0.2142857E+00  0.1000000E+00  0.3816392E-15  0.2857143E-02
    1      -11.557443   1.000000
    2       -9.838862   1.000000
    3       -8.787699   1.000000
    4       -7.764500   1.000000
    5       -6.918382   1.000000
    6       -6.237439   1.000000
    7       -5.717735   1.000000
    8       -0.413750   0.000000
    9        2.936861   0.000000
   10        4.201199   0.000000
   11        4.760670   0.000000
   12        4.916188   0.000000
   13        5.575568   0.000000
   14        5.974012   0.000000
   15        7.415278   0.000000
   16        8.777382   0.000000
 
  0.2857143E+00  0.1000000E+00  0.3747003E-15  0.2857143E-02
    1      -10.984669   1.000000
    2       -9.352945   1.000000
    3       -8.476513   1.000000
    4       -7.441376   1.000000
    5       -6.841381   1.000000
    6       -6.421814   1.000000
    7       -5.979406   1.000000
    8       -2.183390   0.771393
    9        3.423277   0.000000
   10        4.113574   0.000000
   11        4.586511   0.000000
   12        4.941103   0.000000
   13        5.270374   0.000000
   14        5.903936   0.000000
   15        7.616008   0.000000
   16        8.729476   0.000000
 
  0.3571429E+00  0.1000000E+00  0.3677614E-15  0.2857143E-02
    1      -10.278174   1.000000
    2       -8.751775   1.000000
    3       -8.176055   1.000000
    4       -7.107302   1.000000
    5       -6.913193   1.000000
    6       -6.702863   1.000000
    7       -6.193311   1.000000
    8       -3.703046   1.000000
    9        3.433052   0.000000
   10        3.944314   0.000000
   11        4.322213   0.000000
   12        4.739145   0.000000
   13        5.761145   0.000000
   14        6.241699   0.000000
   15        7.909722   0.000000
   16        8.336661   0.000000
 
  0.4285714E+00  0.1000000E+00  0.3747003E-15  0.2857143E-02
    1       -9.481369   1.000000
    2       -8.202256   1.000000
    3       -8.062625   1.000000
    4       -7.380764   1.000000
    5       -6.834541   1.000000
    6       -6.555805   1.000000
    7       -6.412368   1.000000
    8       -4.905097   1.000000
    9        3.027187   0.000000
   10        3.609196   0.000000
   11        4.518996   0.000000
   12        5.032915   0.000000
   13        6.145621   0.000000
   14        6.667882   0.000000
   15        7.548964   0.000000
   16        8.080671   0.000000
 
  0.5000000E+00  0.1000000E+00  0.3816392E-15  0.2857143E-02
    1       -8.812703   1.000000
    2       -8.639241   1.000000
    3       -7.711174   1.000000
    4       -7.481376   1.000000
    5       -6.823755   1.000000
    6       -6.621098   1.000000
    7       -6.024859   1.000000
    8       -5.681302   1.000000
    9        2.902305   0.000000
   10        3.393771   0.000000
   11        4.605727   0.000000
   12        5.333084   0.000000
   13        6.487372   0.000000
   14        6.745480   0.000000
   15        7.002677   0.000000
   16        7.666922   0.000000
 
 -0.4285714E+00  0.1000000E+00  0.3712308E-15  0.2857143E-02
    1       -9.582085   1.000000
    2       -8.200985   1.000000
    3       -8.129809   1.000000
    4       -7.292979   1.000000
    5       -6.737182   1.000000
    6       -6.441700   1.000000
    7       -6.320215   1.000000
    8       -5.035888   1.000000
    9        3.085230   0.000000
   10        3.489411   0.000000
   11        4.476545   0.000000
   12        5.340260   0.000000
   13        6.055573   0.000000
   14        6.331330   0.000000
   15        7.405271   0.000000
   16        7.842378   0.000000
 
 -0.3571429E+00  0.1000000E+00  0.3720982E-15  0.2857143E-02
    1      -10.367610   1.000000
    2       -8.818062   1.000000
    3       -8.248544   1.000000
    4       -6.969762   1.000000
    5       -6.726154   1.000000
    6       -6.622037   1.000000
    7       -6.159053   1.000000
    8       -3.779250   1.000000
    9        3.515902   0.000000
   10        3.782856   0.000000
   11        4.183159   0.000000
   12        5.058287   0.000000
   13        5.536392   0.000000
   14        6.124020   0.000000
   15        7.630699   0.000000
   16        8.114611   0.000000
 
 -0.2857143E+00  0.1000000E+00  0.3776276E-15  0.2857143E-02
    1      -11.054744   1.000000
    2       -9.399498   1.000000
    3       -8.549389   1.000000
    4       -7.332317   1.000000
    5       -6.708840   1.000000
    6       -6.259962   1.000000
    7       -5.994822   1.000000
    8       -2.214988   0.982089
    9        3.436668   0.000000
   10        4.076426   0.000000
   11        4.352066   0.000000
   12        4.856089   0.000000
   13        5.291112   0.000000
   14        6.000825   0.000000
   15        7.581930   0.000000
   16        8.436602   0.000000
 
 -0.2142857E+00  0.1000000E+00  0.3738329E-15  0.2857143E-02
    1      -11.611227   1.000000
    2       -9.876376   1.000000
    3       -8.849313   1.000000
    4       -7.682501   1.000000
    5       -6.803884   1.000000
    6       -6.130839   1.000000
    7       -5.711573   1.000000
    8       -0.408111   0.000000
    9        2.935105   0.000000
   10        4.094998   0.000000
   11        4.510072   0.000000
   12        4.738746   0.000000
   13        5.704568   0.000000
   14        6.218937   0.000000
   15        7.332926   0.000000
   16        8.599468   0.000000
 
 -0.1428571E+00  0.1000000E+00  0.3781697E-15  0.2857143E-02
    1      -12.013582   1.000000
    2      -10.223032   1.000000
    3       -9.088234   1.000000
    4       -7.952686   1.000000
    5       -6.914456   1.000000
    6       -6.145122   1.000000
    7       -5.473955   1.000000
    8        1.592423   0.000000
    9        2.547149   0.000000
   10        3.785449   0.000000
   11        4.438613   0.000000
   12        4.795936   0.000000
   13        5.893302   0.000000
   14        6.931080   0.000000
   15        7.378927   0.000000
   16        8.965595   0.000000
 
 -0.7142857E-01  0.1000000E+00  0.3781697E-15  0.2857143E-02
    1      -12.253260   1.000000
    2      -10.430248   1.000000
    3       -9.233425   1.000000
    4       -8.125770   1.000000
    5       -7.003813   1.000000
    6       -6.177153   1.000000
    7       -5.340621   1.000000
    8        2.303440   0.000000
    9        3.557113   0.000000
   10        3.754764   0.000000
   11        4.360249   0.000000
   12        4.816326   0.000000
   13        5.875605   0.000000
   14        7.217513   0.000000
   15        7.891193   0.000000
   16        8.862384   0.000000
 
  0.3756151E-15  0.2000000E+00  0.3747003E-15  0.2857143E-02
    1      -12.167578   1.000000
    2      -10.404325   1.000000
    3       -9.130974   1.000000
    4       -8.470530   1.000000
    5       -7.413035   1.000000
    6       -6.369463   1.000000
    7       -5.298479   1.000000
    8        2.247516   0.000000
    9        3.859672   0.000000
   10        4.469922   0.000000
   11        4.939710   0.000000
   12        5.630375   0.000000
   13        6.184684   0.000000
   14        6.324312   0.000000
   15        7.551943   0.000000
   16        8.516450   0.000000
 
  0.7142857E-01  0.2000000E+00  0.3747003E-15  0.2857143E-02
    1      -12.070448   1.000000
    2      -10.326050   1.000000
    3       -9.064125   1.000000
    4       -8.436976   1.000000
    5       -7.415737   1.000000
    6       -6.388743   1.000000
    7       -5.344554   1.000000
    8        2.330191   0.000000
    9        3.622072   0.000000
   10        4.080199   0.000000
   11        4.597257   0.000000
   12        5.060971   0.000000
   13        5.679531   0.000000
   14        7.203512   0.000000
   15        8.343880   0.000000
   16        8.970944   0.000000
 
  0.1428571E+00  0.2000000E+00  0.3677614E-15  0.2857143E-02
    1      -11.798490   1.000000
    2      -10.098460   1.000000
    3       -8.892020   1.000000
    4       -8.291276   1.000000
    5       -7.352527   1.000000
    6       -6.390629   1.000000
    7       -5.465976   1.000000
    8        1.577878   0.000000
    9        2.579978   0.000000
   10        4.095439   0.000000
   11        4.738694   0.000000
   12        5.209269   0.000000
   13        5.505662   0.000000
   14        6.684104   0.000000
   15        8.030131   0.000000
   16        9.735709   0.000000
 
  0.2142857E+00  0.2000000E+00  0.3747003E-15  0.2857143E-02
    1      -11.368766   1.000000
    2       -9.737461   1.000000
    3       -8.634999   1.000000
    4       -8.051292   1.000000
    5       -7.244638   1.000000
    6       -6.415668   1.000000
    7       -5.682535   1.000000
    8       -0.402049   0.000000
    9        2.951312   0.000000
   10        4.212825   0.000000
   11        4.636498   0.000000
   12        5.175006   0.000000
   13        5.447858   0.000000
   14        6.063822   0.000000
   15        7.919657   0.000000
   16        9.095166   0.000000
 
  0.2857143E+00  0.2000000E+00  0.3608225E-15  0.2857143E-02
    1      -10.782258   1.000000
    2       -9.247189   1.000000
    3       -8.327089   1.000000
    4       -7.743451   1.000000
    5       -7.123015   1.000000
    6       -6.549305   1.000000
    7       -5.956559   1.000000
    8       -2.193035   0.851112
    9        3.375574   0.000000
   10        3.994786   0.000000
   11        4.323073   0.000000
   12        4.684942   0.000000
   13        5.677809   0.000000
   14        6.025080   0.000000
   15        8.109074   0.000000
   16        8.567448   0.000000
 
  0.3571429E+00  0.2000000E+00  0.3608225E-15  0.2857143E-02
    1      -10.063225   1.000000
    2       -8.642172   1.000000
    3       -8.033639   1.000000
    4       -7.428109   1.000000
    5       -7.034583   1.000000
    6       -6.846062   1.000000
    7       -6.208833   1.000000
    8       -3.749932   1.000000
    9        3.184475   0.000000
   10        3.744693   0.000000
   11        4.208943   0.000000
   12        4.497260   0.000000
   13        5.827310   0.000000
   14        6.409075   0.000000
   15        7.781330   0.000000
   16        8.492081   0.000000
 
  0.4285714E+00  0.2000000E+00  0.3885781E-15  0.2857143E-02
    1       -9.261441   1.000000
    2       -8.103909   1.000000
    3       -7.917617   1.000000
    4       -7.425687   1.000000
    5       -7.002903   1.000000
    6       -6.773114   1.000000
    7       -6.442815   1.000000
    8       -5.010726   1.000000
    9        2.781208   0.000000
   10        3.288652   0.000000
   11        4.327132   0.000000
   12        4.822459   0.000000
   13        5.996032   0.000000
   14        6.723128   0.000000
   15        7.297129   0.000000
   16        7.896608   0.000000
 
  0.5000000E+00  0.2000000E+00  0.3608225E-15  0.2857143E-02
    1       -8.692819   1.000000
    2       -8.452640   1.000000
    3       -7.652879   1.000000
    4       -7.458464   1.000000
    5       -6.830430   1.000000
    6       -6.613854   1.000000
    7       -6.284739   1.000000
    8       -5.885238   1.000000
    9        2.674925   0.000000
   10        3.028652   0.000000
   11        4.367970   0.000000
   12        5.069706   0.000000
   13        6.315506   0.000000
   14        6.532186   0.000000
   15        6.886106   0.000000
   16        7.495192   0.000000
 
 -0.4285714E+00  0.2000000E+00  0.3799044E-15  0.2857143E-02
    1       -9.465375   1.000000
    2       -8.163490   1.000000
    3       -7.996254   1.000000
    4       -7.238385   1.000000
    5       -6.809911   1.000000
    6       -6.574335   1.000000
    7       -6.361558   1.000000
    8       -5.232780   1.000000
    9        2.871076   0.000000
   10        3.106888   0.000000
   11        4.265744   0.000000
   12        5.238139   0.000000
   13        5.763363   0.000000
   14        6.312789   0.000000
   15        6.960009   0.000000
   16        8.040837   0.000000
 
 -0.3571429E+00  0.2000000E+00  0.3833739E-15  0.2857143E-02
    1      -10.240821   1.000000
    2       -8.756985   1.000000
    3       -8.164604   1.000000
    4       -7.193816   1.000000
    5       -6.802472   1.000000
    6       -6.586785   1.000000
    7       -6.196977   1.000000
    8       -3.874103   1.000000
    9        3.263866   0.000000
   10        3.511215   0.000000
   11        4.044878   0.000000
   12        4.909714   0.000000
   13        5.600683   0.000000
   14        6.150367   0.000000
   15        7.296322   0.000000
   16        8.050993   0.000000
 
 -0.2857143E+00  0.2000000E+00  0.3747003E-15  0.2857143E-02
    1      -10.918681   1.000000
    2       -9.327856   1.000000
    3       -8.452195   1.000000
    4       -7.581144   1.000000
    5       -6.909216   1.000000
    6       -6.248125   1.000000
    7       -5.992383   1.000000
    8       -2.245685   1.050102
    9        3.374060   0.000000
   10        3.916583   0.000000
   11        4.094809   0.000000
   12        4.845500   0.000000
   13        5.365819   0.000000
   14        6.120722   0.000000
   15        7.712278   0.000000
   16        8.014497   0.000000
 
 -0.2142857E+00  0.2000000E+00  0.3851086E-15  0.2857143E-02
    1      -11.468023   1.000000
    2       -9.794184   1.000000
    3       -8.737064   1.000000
    4       -7.934781   1.000000
    5       -7.063512   1.000000
    6       -6.221948   1.000000
    7       -5.670433   1.000000
    8       -0.399828   0.000000
    9        2.932064   0.000000
   10        4.163052   0.000000
   11        4.363999   0.000000
   12        4.997579   0.000000
   13        5.393852   0.000000
   14        6.278920   0.000000
   15        7.550704   0.000000
   16        8.770761   0.000000
 
 -0.1428571E+00  0.2000000E+00  0.3781697E-15  0.2857143E-02
    1      -11.863791   1.000000
    2      -10.137985   1.000000
    3       -8.959031   1.000000
    4       -8.213297   1.000000
    5       -7.219934   1.000000
    6       -6.269904   1.000000
    7       -5.444284   1.000000
    8        1.637316   0.000000
    9        2.556905   0.000000
   10        4.055080   0.000000
   11        4.457561   0.000000
   12        4.997078   0.000000
   13        5.625820   0.000000
   14        6.766872   0.000000
   15        7.758201   0.000000
   16        9.620990   0.000000
 
 -0.7142857E-01  0.2000000E+00  0.3747003E-15  0.2857143E-02
    1      -12.099504   1.000000
    2      -10.342940   1.000000
    3       -9.096509   1.000000
    4       -8.397458   1.000000
    5       -7.343390   1.000000
    6       -6.328654   1.000000
    7       -5.326738   1.000000
    8        2.323533   0.000000
    9        3.748577   0.000000
   10        4.011833   0.000000
   11        4.465121   0.000000
   12        4.967972   0.000000
   13        5.713938   0.000000
   14        7.129696   0.000000
   15        8.226003   0.000000
   16        8.915246   0.000000
 
  0.3763198E-15  0.3000000E+00  0.3677614E-15  0.2857143E-02
    1      -11.921966   1.000000
    2      -10.314180   1.000000
    3       -9.005934   1.000000
    4       -8.673908   1.000000
    5       -7.866936   1.000000
    6       -6.658909   1.000000
    7       -5.284356   1.000000
    8        2.354634   0.000000
    9        3.795791   0.000000
   10        4.485778   0.000000
   11        5.746620   0.000000
   12        5.832032   0.000000
   13        6.223894   0.000000
   14        6.387463   0.000000
   15        7.455677   0.000000
   16        9.107456   0.000000
 
  0.7142857E-01  0.3000000E+00  0.3608225E-15  0.2857143E-02
    1      -11.817615   1.000000
    2      -10.237216   1.000000
    3       -8.951941   1.000000
    4       -8.609812   1.000000
    5       -7.865293   1.000000
    6       -6.677327   1.000000
    7       -5.323033   1.000000
    8        2.439226   0.000000
    9        3.688140   0.000000
   10        3.970208   0.000000
   11        4.554035   0.000000
   12        5.771536   0.000000
   13        5.952044   0.000000
   14        7.129241   0.000000
   15        8.949294   0.000000
   16        9.111520   0.000000
 
  0.1428571E+00  0.3000000E+00  0.3747003E-15  0.2857143E-02
    1      -11.539441   1.000000
    2      -10.019827   1.000000
    3       -8.800056   1.000000
    4       -8.445000   1.000000
    5       -7.787744   1.000000
    6       -6.670004   1.000000
    7       -5.438895   1.000000
    8        1.613229   0.000000
    9        2.680326   0.000000
   10        3.978129   0.000000
   11        4.598491   0.000000
   12        5.407435   0.000000
   13        6.112259   0.000000
   14        6.555913   0.000000
   15        8.925457   0.000000
   16        9.740368   0.000000
 
  0.2142857E+00  0.3000000E+00  0.3608225E-15  0.2857143E-02
    1      -11.094837   1.000000
    2       -9.665618   1.000000
    3       -8.559475   1.000000
    4       -8.195793   1.000000
    5       -7.641498   1.000000
    6       -6.661380   1.000000
    7       -5.643938   1.000000
    8       -0.393195   0.000000
    9        3.033356   0.000000
   10        4.099511   0.000000
   11        4.507435   0.000000
   12        4.830784   0.000000
   13        5.767193   0.000000
   14        6.387510   0.000000
   15        8.674575   0.000000
   16        8.957421   0.000000
 
  0.2857143E+00  0.3000000E+00  0.3885781E-15  0.2857143E-02
    1      -10.492586   1.000000
    2       -9.182482   1.000000
    3       -8.263233   1.000000
    4       -7.897273   1.000000
    5       -7.459704   1.000000
    6       -6.715355   1.000000
    7       -5.929996   1.000000
    8       -2.217060   0.990634
    9        3.354158   0.000000
   10        3.884418   0.000000
   11        4.181580   0.000000
   12        4.360160   0.000000
   13        5.505500   0.000000
   14        6.473472   0.000000
   15        8.078600   0.000000
   16        8.463876   0.000000
 
  0.3571429E+00  0.3000000E+00  0.3885781E-15  0.2857143E-02
    1       -9.756719   1.000000
    2       -8.574902   1.000000
    3       -7.967985   1.000000
    4       -7.616756   1.000000
    5       -7.267546   1.000000
    6       -6.933014   1.000000
    7       -6.230215   1.000000
    8       -3.832639   1.000000
    9        2.996064   0.000000
   10        3.409512   0.000000
   11        4.051761   0.000000
   12        4.425541   0.000000
   13        5.585939   0.000000
   14        6.546671   0.000000
   15        7.357677   0.000000
   16        8.347700   0.000000
 
  0.4285714E+00  0.3000000E+00  0.3608225E-15  0.2857143E-02
    1       -8.946818   1.000000
    2       -7.937366   1.000000
    3       -7.853462   1.000000
    4       -7.482937   1.000000
    5       -7.206156   1.000000
    6       -6.986483   1.000000
    7       -6.461759   1.000000
    8       -5.186561   1.000000
    9        2.569108   0.000000
   10        2.894841   0.000000
   11        4.017440   0.000000
   12        4.716869   0.000000
   13        5.774025   0.000000
   14        6.701802   0.000000
   15        6.913885   0.000000
   16        7.940293   0.000000
 
  0.5000000E+00  0.3000000E+00  0.3747003E-15  0.2857143E-02
    1       -8.489870   1.000000
    2       -8.181483   1.000000
    3       -7.576670   1.000000
    4       -7.435478   1.000000
    5       -6.905918   1.000000
    6       -6.618748   1.000000
    7       -6.581879   1.000000
    8       -6.175453   1.000000
    9        2.447852   0.000000
   10        2.639267   0.000000
   11        4.022148   0.000000
   12        4.789148   0.000000
   13        6.109372   0.000000
   14        6.375290   0.000000
   15        6.922188   0.000000
   16        7.380973   0.000000
 
 -0.4285714E+00  0.3000000E+00  0.3816392E-15  0.2857143E-02
    1       -9.238812   1.000000
    2       -8.061480   1.000000
    3       -7.826396   1.000000
    4       -7.230038   1.000000
    5       -6.946026   1.000000
    6       -6.804563   1.000000
    7       -6.434019   1.000000
    8       -5.406266   1.000000
    9        2.612591   0.000000
   10        2.777408   0.000000
   11        4.011222   0.000000
   12        4.921606   0.000000
   13        5.610173   0.000000
   14        6.333476   0.000000
   15        6.675324   0.000000
   16        8.024397   0.000000
 
 -0.3571429E+00  0.3000000E+00  0.3816392E-15  0.2857143E-02
    1      -10.003353   1.000000
    2       -8.652916   1.000000
    3       -8.034977   1.000000
    4       -7.513990   1.000000
    5       -7.021663   1.000000
    6       -6.497761   1.000000
    7       -6.311851   1.000000
    8       -3.953288   1.000000
    9        2.989806   0.000000
   10        3.285963   0.000000
   11        3.970790   0.000000
   12        4.732484   0.000000
   13        5.397082   0.000000
   14        6.144227   0.000000
   15        6.974018   0.000000
   16        7.925060   0.000000
 
 -0.2857143E+00  0.3000000E+00  0.3885781E-15  0.2857143E-02
    1      -10.678124   1.000000
    2       -9.228421   1.000000
    3       -8.311328   1.000000
    4       -7.890801   1.000000
    5       -7.216018   1.000000
    6       -6.375676   1.000000
    7       -5.954341   1.000000
    8       -2.269695   1.043443
    9        3.308066   0.000000
   10        3.848683   0.000000
   11        3.980553   0.000000
   12        4.562623   0.000000
   13        5.553131   0.000000
   14        5.951272   0.000000
   15        7.537254   0.000000
   16        8.219134   0.000000
 
 -0.2142857E+00  0.3000000E+00  0.3816392E-15  0.2857143E-02
    1      -11.224415   1.000000
    2       -9.695708   1.000000
    3       -8.583201   1.000000
    4       -8.219121   1.000000
    5       -7.431566   1.000000
    6       -6.425201   1.000000
    7       -5.622438   1.000000
    8       -0.386670   0.000000
    9        3.002050   0.000000
   10        4.115309   0.000000
   11        4.287255   0.000000
   12        4.949545   0.000000
   13        5.733769   0.000000
   14        5.970820   0.000000
   15        8.287333   0.000000
   16        8.513306   0.000000
 
 -0.1428571E+00  0.3000000E+00  0.3747003E-15  0.2857143E-02
    1      -11.621839   1.000000
    2      -10.040482   1.000000
    3       -8.807804   1.000000
    4       -8.471908   1.000000
    5       -7.636189   1.000000
    6       -6.518452   1.000000
    7       -5.418619   1.000000
    8        1.675406   0.000000
    9        2.649454   0.000000
   10        4.011132   0.000000
   11        4.448410   0.000000
   12        5.437268   0.000000
   13        5.788204   0.000000
   14        6.496486   0.000000
   15        8.520705   0.000000
   16        9.564851   0.000000
 
 -0.7142857E-01  0.3000000E+00  0.3608225E-15  0.2857143E-02
    1      -11.855843   1.000000
    2      -10.248416   1.000000
    3       -8.953326   1.000000
    4       -8.627326   1.000000
    5       -7.786115   1.000000
    6       -6.601945   1.000000
    7       -5.312851   1.000000
    8        2.425827   0.000000
    9        3.788882   0.000000
   10        3.999709   0.000000
   11        4.476096   0.000000
   12        5.734918   0.000000
   13        5.792340   0.000000
   14        7.016878   0.000000
   15        8.831784   0.000000
   16        8.951600   0.000000
 
  0.3762520E-15  0.4000000E+00  0.3469447E-15  0.2857143E-02
    1      -11.651174   1.000000
    2      -10.331013   1.000000
    3       -9.014573   1.000000
    4       -8.517259   1.000000
    5       -8.312715   1.000000