       N       E                     dE             d eps       ncg     rms          rms(c)
DAV:   1    -0.119697721431E+02   -0.11970E+02   -0.67583E+03  9728   0.431E+02
DAV:   2    -0.486501076017E+02   -0.36680E+02   -0.35486E+02 13104   0.816E+01
DAV:   3    -0.498017129991E+02   -0.11516E+01   -0.11506E+01 12192   0.121E+01
DAV:   4    -0.498033120155E+02   -0.15990E-02   -0.15992E-02 12496   0.559E-01
DAV:   5    -0.498033150671E+02   -0.30516E-05   -0.30520E-05  9856   0.251E-02    0.176E+01
RMM:   6    -0.547576666331E+02   -0.49544E+01   -0.14448E+00  9728   0.328E+00    0.699E+00
RMM:   7    -0.544840568625E+02    0.27361E+00   -0.87178E-01  9728   0.316E+00    0.333E+00
RMM:   8    -0.544495462612E+02    0.34511E-01   -0.27810E-01  9728   0.184E+00    0.870E-01
RMM:   9    -0.544642543205E+02   -0.14708E-01   -0.18148E-02  9728   0.546E-01    0.385E-01
RMM:  10    -0.544670773106E+02   -0.28230E-02   -0.85142E-04  8467   0.123E-01    0.171E-01
RMM:  11    -0.544689333214E+02   -0.18560E-02   -0.13202E-03  9251   0.150E-01    0.530E-02
RMM:  12    -0.544691393393E+02   -0.20602E-03   -0.15951E-04  6404   0.536E-02
   1 F= -.54469139E+02 E0= -.54469139E+02  d E =-.544691E+02  mag=    -0.0002
       N       E                     dE             d eps       ncg     rms          rms(c)
DAV:   1    -0.545918592313E+02   -0.12293E+00   -0.41198E-01 11968   0.242E+00    0.499E-01
RMM:   2    -0.545891464252E+02    0.27128E-02   -0.58918E-03  9716   0.286E-01    0.288E-01
RMM:   3    -0.545877321892E+02    0.14142E-02   -0.13752E-03  7606   0.109E-01    0.146E-02
RMM:   4    -0.545877366684E+02   -0.44793E-05   -0.15921E-05  4091   0.175E-02
   2 F= -.54587737E+02 E0= -.54587737E+02  d E =-.118597E+00  mag=     0.0000
       N       E                     dE             d eps       ncg     rms          rms(c)
DAV:   1    -0.548657916181E+02   -0.27806E+00   -0.35966E+00 10816   0.697E+00    0.146E+00
RMM:   2    -0.548414824241E+02    0.24309E-01   -0.55822E-02  9728   0.848E-01    0.841E-01
RMM:   3    -0.548287189173E+02    0.12764E-01   -0.13059E-02  9728   0.322E-01    0.455E-02
RMM:   4    -0.548287422791E+02   -0.23362E-04   -0.64575E-05  5564   0.347E-02
   3 F= -.54828742E+02 E0= -.54828742E+02  d E =-.359603E+00  mag=     0.0000
       N       E                     dE             d eps       ncg     rms          rms(c)
DAV:   1    -0.549971412240E+02   -0.16842E+00   -0.13595E+01 11232   0.129E+01    0.278E+00
RMM:   2    -0.549012795430E+02    0.95862E-01   -0.24957E-01  9728   0.166E+00    0.161E+00
RMM:   3    -0.548498762779E+02    0.51403E-01   -0.58629E-02  9728   0.648E-01    0.104E-01
RMM:   4    -0.548499863239E+02   -0.11005E-03   -0.29666E-04  6569   0.730E-02
   4 F= -.54849986E+02 E0= -.54849986E+02  d E =-.380847E+00  mag=     0.0000
       N       E                     dE             d eps       ncg     rms          rms(c)
DAV:   1    -0.550449914362E+02   -0.19512E+00   -0.21019E+00 11968   0.530E+00    0.684E-01
RMM:   2    -0.550473686508E+02   -0.23772E-02   -0.94849E-02  9722   0.112E+00    0.475E-01
RMM:   3    -0.550437697831E+02    0.35989E-02   -0.46901E-03  9495   0.173E-01    0.750E-02
RMM:   4    -0.550436285207E+02    0.14126E-03   -0.72764E-05  5941   0.308E-02
   5 F= -.55043629E+02 E0= -.55043629E+02  d E =-.193642E+00  mag=     0.0000
       N       E                     dE             d eps       ncg     rms          rms(c)
DAV:   1    -0.550472154882E+02   -0.34457E-02   -0.57601E-02 14176   0.882E-01    0.114E-01
RMM:   2    -0.550473349602E+02   -0.11947E-03   -0.29024E-03  7254   0.203E-01
   6 F= -.55047335E+02 E0= -.55047335E+02  d E =-.197349E+00  mag=     0.0000
       N       E                     dE             d eps       ncg     rms          rms(c)
DAV:   1    -0.550665123880E+02   -0.19297E-01   -0.89096E-02 13664   0.111E+00    0.120E-01
RMM:   2    -0.550665632109E+02   -0.50823E-04   -0.19419E-03  8789   0.172E-01
   7 F= -.55066563E+02 E0= -.55066563E+02  d E =-.192283E-01  mag=     0.0000
       N       E                     dE             d eps       ncg     rms          rms(c)
DAV:   1    -0.550779748142E+02   -0.11462E-01   -0.24988E-01 14096   0.186E+00    0.211E-01
RMM:   2    -0.550779849793E+02   -0.10165E-04   -0.44989E-03  9616   0.258E-01
   8 F= -.55077985E+02 E0= -.55077985E+02  d E =-.306500E-01  mag=     0.0000
       N       E                     dE             d eps       ncg     rms          rms(c)
DAV:   1    -0.550916912145E+02   -0.13716E-01   -0.40001E-02 14016   0.709E-01    0.805E-02
RMM:   2    -0.550918059755E+02   -0.11476E-03   -0.12839E-03  7640   0.139E-01
   9 F= -.55091806E+02 E0= -.55091806E+02  d E =-.138210E-01  mag=     0.0000
       N       E                     dE             d eps       ncg     rms          rms(c)
DAV:   1    -0.551264215839E+02   -0.34730E-01   -0.35886E-01 13408   0.208E+00    0.229E-01
RMM:   2    -0.551269755968E+02   -0.55401E-03   -0.79897E-03  9728   0.331E-01
  10 F= -.55126976E+02 E0= -.55126976E+02  d E =-.489906E-01  mag=     0.0000
       N       E                     dE             d eps       ncg     rms          rms(c)
DAV:   1    -0.551630174701E+02   -0.36596E-01   -0.14431E+00 13344   0.417E+00    0.425E-01
RMM:   2    -0.551650736762E+02   -0.20562E-02   -0.28573E-02  9728   0.618E-01    0.282E-01
RMM:   3    -0.551647679083E+02    0.30577E-03   -0.15602E-03  9340   0.130E-01
  11 F= -.55164768E+02 E0= -.55164768E+02  d E =-.867829E-01  mag=     0.0000
       N       E                     dE             d eps       ncg     rms          rms(c)
DAV:   1    -0.551917934293E+02   -0.26720E-01   -0.22875E-01 13968   0.175E+00    0.183E-01
RMM:   2    -0.551921761382E+02   -0.38271E-03   -0.74588E-03  9663   0.327E-01
  12 F= -.55192176E+02 E0= -.55192176E+02  d E =-.274082E-01  mag=     0.0000
       N       E                     dE             d eps       ncg     rms          rms(c)
DAV:   1    -0.552033020687E+02   -0.11509E-01   -0.30425E-01 13152   0.200E+00    0.210E-01
RMM:   2    -0.552034879581E+02   -0.18589E-03   -0.64786E-03  9724   0.307E-01
  13 F= -.55203488E+02 E0= -.55203488E+02  d E =-.387200E-01  mag=     0.0000
       N       E                     dE             d eps       ncg     rms          rms(c)
DAV:   1    -0.552079782623E+02   -0.46762E-02   -0.34160E-02 14048   0.653E-01    0.910E-02
RMM:   2    -0.552079920726E+02   -0.13810E-04   -0.74905E-04  6894   0.108E-01
  14 F= -.55207992E+02 E0= -.55207992E+02  d E =-.450411E-02  mag=     0.0000
       N       E                     dE             d eps       ncg     rms          rms(c)
DAV:   1    -0.552161949766E+02   -0.82167E-02   -0.30907E-01 12656   0.192E+00    0.243E-01
RMM:   2    -0.552161364072E+02    0.58569E-04   -0.55123E-03  9728   0.271E-01
  15 F= -.55216136E+02 E0= -.55216136E+02  d E =-.126484E-01  mag=     0.0000
       N       E                     dE             d eps       ncg     rms          rms(c)
DAV:   1    -0.552219626307E+02   -0.57677E-02   -0.70153E-02 13008   0.100E+00    0.126E-01
RMM:   2    -0.552222032452E+02   -0.24061E-03   -0.44966E-03  8945   0.251E-01
  16 F= -.55222203E+02 E0= -.55222203E+02  d E =-.606684E-02  mag=     0.0000
       N       E                     dE             d eps       ncg     rms          rms(c)
DAV:   1    -0.552222121949E+02   -0.24956E-03   -0.19892E-03 12592   0.170E-01    0.678E-02
RMM:   2    -0.552221682857E+02    0.43909E-04   -0.39484E-05  4875   0.252E-02
  17 F= -.55222168E+02 E0= -.55222168E+02  d E =-.603188E-02  mag=     0.0000
