unknown system                          
           1
     6.204760    0.235572    0.097772
    -0.362913    6.091283   -0.585809
    -3.163441   -2.915253    4.326116
   Sr   Nb   H 
   2   1  15
Direct configuration=     1
   0.99492100  0.96630400  0.54849300
   0.47878200  0.43474400  0.53444100
   0.22737300  0.69892900  0.02807200
   0.91514900  0.40078700  0.79479800
   0.92133600  0.68183200  0.69838200
   0.98669300  0.12716100  0.02556500
   0.99278800  0.25106200  0.02258800
   0.13443400  0.41906100  0.62185000
   0.20595100  0.67938700  0.30664100
   0.54237600  0.98240900  0.45876400
   0.65437200  0.41809800  0.07212300
   0.77427600  0.40101600  0.06951900
   0.35995900  0.44193400  0.07699300
   0.58995900  0.95073700  0.91596200
   0.53242300  0.72881000  0.04752500
   0.58283700  0.94717000  0.78590500
   0.32786600  0.99350500  0.03490000
   0.09765500  0.95202300  0.20619000
unknown system                          
           1
     6.264486    0.238928    0.100791
    -0.365466    6.148029   -0.591234
    -3.192924   -2.942962    4.364934
   Sr   Nb   H 
   2   1  15
Direct configuration=     2
   0.99488428  0.96646928  0.54866731
   0.47851739  0.43447199  0.53406216
   0.22731464  0.69870238  0.02798626
   0.91560513  0.40114822  0.79504702
   0.92159869  0.68169405  0.69866462
   0.98677227  0.12783544  0.02567629
   0.99277032  0.25038067  0.02258911
   0.13446290  0.41931645  0.62213821
   0.20611290  0.67941040  0.30629608
   0.54189678  0.98192044  0.45815256
   0.65532081  0.41832676  0.07213633
   0.77378059  0.40154670  0.06976949
   0.35977299  0.44198078  0.07675387
   0.59023605  0.95105893  0.91628414
   0.53182693  0.72872745  0.04733881
   0.58303150  0.94746251  0.78650962
   0.32746082  0.99293194  0.03463437
   0.09778500  0.95158460  0.20600476
unknown system                          
           1
     6.431683    0.248322    0.109241
    -0.372612    6.306883   -0.606421
    -3.275457   -3.020530    4.473599
   Sr   Nb   H 
   2   1  15
Direct configuration=     3
   0.99478254  0.96692786  0.54915098
   0.47778382  0.43371759  0.53301142
   0.22715292  0.69807386  0.02774844
   0.91686947  0.40214975  0.79573729
   0.92232705  0.68131133  0.69944839
   0.98699179  0.12970603  0.02598495
   0.99272158  0.24849098  0.02259221
   0.13454310  0.42002514  0.62293783
   0.20656145  0.67947487  0.30533883
   0.54056827  0.98056550  0.45645678
   0.65795070  0.41896014  0.07217192
   0.77240733  0.40301939  0.07046519
   0.35925726  0.44211057  0.07609066
   0.59100408  0.95195175  0.91717755
   0.53017463  0.72849904  0.04682308
   0.58357085  0.94827402  0.78818688
   0.32633776  0.99134280  0.03389797
   0.09814541  0.95036840  0.20549062
unknown system                          
           1
     6.354267    0.243972    0.105328
    -0.369303    6.233329   -0.599389
    -3.237242   -2.984614    4.423284
   Sr   Nb   H 
   2   1  15
Direct configuration=     4
   0.99482834  0.96672067  0.54893239
   0.47811454  0.43405806  0.53348569
   0.22722576  0.69835755  0.02785578
   0.91629971  0.40169812  0.79542623
   0.92199857  0.68148420  0.69909474
   0.98689309  0.12886172  0.02584564
   0.99274323  0.24934390  0.02259077
   0.13450687  0.41970505  0.62257660
   0.20635957  0.67944630  0.30577162
   0.54116714  0.98117693  0.45722210
   0.65676568  0.41867558  0.07215753
   0.77302623  0.40235375  0.07014999
   0.35948985  0.44205193  0.07638998
   0.59065790  0.95154887  0.91677439
   0.53091930  0.72860146  0.04705504
   0.58332751  0.94790747  0.78742941
   0.32684377  0.99205974  0.03422996
   0.09798293  0.95091770  0.20572314
unknown system                          
           1
     6.338593    0.243720    0.110065
    -0.368323    6.213011   -0.598406
    -3.225919   -2.975587    4.407051
   Sr   Nb   H 
   2   1  15
Direct configuration=     5
   0.99454590  0.96737777  0.54933957
   0.47792898  0.43327788  0.53268440
   0.22682850  0.69849639  0.02762773
   0.91874494  0.40420708  0.79721209
   0.92451022  0.68163429  0.70194030
   0.98711315  0.12899459  0.02604256
   0.99285989  0.24930347  0.02260763
   0.13576825  0.42190823  0.62602896
   0.20670144  0.67965353  0.30362171
   0.53829860  0.97843494  0.45306520
   0.65572338  0.41935143  0.07230979
   0.77466015  0.40265067  0.07037100
   0.35803708  0.44357540  0.07567365
   0.59059921  0.95148875  0.91315286
   0.52861447  0.72824587  0.04692050
   0.58367966  0.94811057  0.79160273
   0.32532574  0.98954015  0.03383739
   0.09921042  0.94871799  0.20467294
unknown system                          
           1
     6.346079    0.243840    0.107803
    -0.368791    6.222715   -0.598876
    -3.231327   -2.979898    4.414804
   Sr   Nb   H 
   2   1  15
Direct configuration=     6
   0.99468096  0.96706274  0.54914414
   0.47801787  0.43365182  0.53306849
   0.22701858  0.69842978  0.02773681
   0.91757469  0.40300521  0.79635713
   0.92330830  0.68156265  0.70057765
   0.98700784  0.12893095  0.02594827
   0.99280408  0.24932288  0.02259962
   0.13516435  0.42085229  0.62437449
   0.20653798  0.67955466  0.30465248
   0.53967155  0.97974872  0.45505654
   0.65622202  0.41902723  0.07223612
   0.77387835  0.40250882  0.07026596
   0.35873211  0.44284504  0.07601603
   0.59062752  0.95151811  0.91488888
   0.52971728  0.72841562  0.04698371
   0.58351090  0.94801270  0.78960235
   0.32605228  0.99074716  0.03402498
   0.09862335  0.94977261  0.20517732
unknown system                          
           1
     6.339416    0.247124    0.110037
    -0.365026    6.214781   -0.602670
    -3.227852   -2.980746    4.412663
   Sr   Nb   H 
   2   1  15
Direct configuration=     7
   0.99419021  0.96782056  0.54951130
   0.47781852  0.43260167  0.53206313
   0.22687131  0.69839066  0.02747354
   0.92012605  0.40570795  0.79823136
   0.92601209  0.68173927  0.70367795
   0.98727688  0.12870949  0.02621084
   0.99295322  0.24965164  0.02263909
   0.13665584  0.42325931  0.62815542
   0.20698756  0.67983956  0.30243623
   0.53641306  0.97664921  0.45031955
   0.65679942  0.41968466  0.07240266
   0.77406499  0.40322547  0.07060720
   0.35702268  0.44444980  0.07513095
   0.59099638  0.95169405  0.91700565
   0.52714494  0.72800070  0.04682508
   0.58366001  0.94815317  0.78839532
   0.32419353  0.98797841  0.03345878
   0.09996330  0.94741343  0.20416694
unknown system                          
           1
     6.340483    0.246598    0.109679
    -0.365629    6.216052   -0.602062
    -3.228409   -2.980610    4.413006
   Sr   Nb   H 
   2   1  15
Direct configuration=     8
   0.99426888  0.96769886  0.54945228
   0.47785045  0.43277022  0.53222442
   0.22689491  0.69839693  0.02751572
   0.91971716  0.40527449  0.79793078
   0.92557884  0.68171110  0.70318133
   0.98723377  0.12874505  0.02616883
   0.99292931  0.24959890  0.02263272
   0.13641690  0.42287303  0.62754921
   0.20691541  0.67979405  0.30279140
   0.53693519  0.97714643  0.45107892
   0.65670687  0.41957923  0.07237591
   0.77403508  0.40311048  0.07055240
   0.35729662  0.44419211  0.07527233
   0.59093734  0.95166573  0.91666642
   0.52755724  0.72806693  0.04685031
   0.58363606  0.94813073  0.78858875
   0.32449147  0.98842247  0.03354982
   0.09974852  0.94779224  0.20432942
unknown system                          
           1
     6.353794    0.248897    0.113123
    -0.364905    6.227879   -0.603492
    -3.233771   -2.987129    4.421873
   Sr   Nb   H 
   2   1  15
Direct configuration=     9
   0.99377096  0.96811724  0.54950840
   0.47778901  0.43201944  0.53154475
   0.22707345  0.69799030  0.02737384
   0.92033696  0.40610093  0.79840086
   0.92648458  0.68181131  0.70429935
   0.98743778  0.12899646  0.02631952
   0.99304832  0.24944829  0.02277935
   0.13722392  0.42367589  0.62888925
   0.20722579  0.68001352  0.30214275
   0.53568086  0.97594258  0.44920484
   0.65713772  0.42016579  0.07251705
   0.77423032  0.40374250  0.07087561
   0.35643849  0.44455640  0.07472121
   0.59108105  0.95173508  0.91652259
   0.52672776  0.72786445  0.04680108
   0.58383127  0.94828699  0.78942861
   0.32340509  0.98741124  0.03307447
   0.10022665  0.94709058  0.20430746
unknown system                          
           1
     6.374513    0.252476    0.118482
    -0.363778    6.246287   -0.605716
    -3.242116   -2.997275    4.435674
   Sr   Nb   H 
   2   1  15
Direct configuration=    10
   0.99299779  0.96876776  0.54959626
   0.47769400  0.43085298  0.53048894
   0.22735079  0.69735834  0.02715317
   0.92129888  0.40738434  0.79913041
   0.92789048  0.68196624  0.70603497
   0.98775442  0.12938688  0.02655338
   0.99323309  0.24921420  0.02300695
   0.13847629  0.42492262  0.63096997
   0.20770778  0.68035408  0.30113475
   0.53373427  0.97407324  0.44629506
   0.65780644  0.42107666  0.07273583
   0.77453318  0.40472427  0.07137750
   0.35510625  0.44512316  0.07386620
   0.59130418  0.95184264  0.91629899
   0.52544003  0.72755070  0.04672562
   0.58413409  0.94852970  0.79073303
   0.32171885  0.98584121  0.03233730
   0.10096919  0.94599999  0.20427267
