unknown system                          
           1
     3.285333   -0.148587    0.367306
    -0.190341    4.925901   -0.259264
     0.063606   -1.445011    6.148757
   H    Nb   H    Sr
   3   2   5   1
Direct configuration=     1
   0.25915766  0.06759089  0.98557259
   0.23151655  0.62795359  0.87714035
   0.85292366  0.23461392  0.84462389
   0.74376726  0.85071545  0.86037663
   0.42146504  0.24890760  0.66658917
   0.51257219  0.23461626  0.36966510
   0.68489495  0.57141323  0.60411250
   0.57607238  0.88165064  0.54916076
   0.96617167  0.21159338  0.50316041
   0.69689676  0.79646516  0.13685612
   0.12438788  0.58402888  0.28737047
unknown system                          
           1
     3.286841   -0.150922    0.371819
    -0.193862    4.929140   -0.261748
     0.072377   -1.448498    6.153902
   H    Nb   H    Sr
   3   2   5   1
Direct configuration=     2
   0.25916002  0.06760857  0.98559895
   0.23181169  0.62799903  0.87708737
   0.85332823  0.23473949  0.84470675
   0.74283619  0.85066092  0.86030286
   0.42201149  0.24913225  0.66674240
   0.51281133  0.23471695  0.36964125
   0.68529420  0.57126727  0.60410807
   0.57598769  0.88158620  0.54910219
   0.96523060  0.21129522  0.50290809
   0.69648024  0.79663944  0.13699709
   0.12487433  0.58390367  0.28743298
unknown system                          
           1
     3.287900   -0.152562    0.374990
    -0.196335    4.931415   -0.263494
     0.078538   -1.450948    6.157516
   H    Nb   H    Sr
   3   2   5   1
Direct configuration=     3
   0.25916164  0.06762099  0.98561746
   0.23201904  0.62803097  0.87705006
   0.85361222  0.23482773  0.84476475
   0.74218259  0.85062245  0.86025152
   0.42239502  0.24929010  0.66684974
   0.51297934  0.23478767  0.36962441
   0.68557441  0.57116488  0.60410474
   0.57592829  0.88154092  0.54906110
   0.96457014  0.21108567  0.50273137
   0.69618768  0.79676175  0.13709628
   0.12521565  0.58381587  0.28747658
unknown system                          
           1
     3.286738   -0.153651    0.377805
    -0.197973    4.932017   -0.264563
     0.084413   -1.452354    6.155627
   H    Nb   H    Sr
   3   2   5   1
Direct configuration=     4
   0.25889456  0.06768027  0.98562033
   0.23196546  0.62805272  0.87700193
   0.85371460  0.23494622  0.84475934
   0.74185110  0.85091194  0.86055786
   0.42206494  0.24890331  0.66650625
   0.51344069  0.23503586  0.36973885
   0.68626315  0.57107927  0.60410987
   0.57573740  0.88158801  0.54908930
   0.96452878  0.21075172  0.50266067
   0.69582488  0.79695650  0.13711810
   0.12554044  0.58364319  0.28746551
unknown system                          
           1
     3.285879   -0.154455    0.379886
    -0.199184    4.932462   -0.265354
     0.088756   -1.453393    6.154231
   H    Nb   H    Sr
   3   2   5   1
Direct configuration=     5
   0.25869710  0.06772405  0.98562255
   0.23192591  0.62806878  0.87696636
   0.85379035  0.23503379  0.84475532
   0.74160571  0.85112595  0.86078451
   0.42182121  0.24861735  0.66625235
   0.51378173  0.23521934  0.36982334
   0.68677235  0.57101605  0.60411341
   0.57559624  0.88162281  0.54911022
   0.96449818  0.21050489  0.50260837
   0.69555667  0.79710041  0.13713439
   0.12578054  0.58351558  0.28745719
