 running on   32 total cores
 distrk:  each k-point on   32 cores,    1 groups
 distr:  one band on    8 cores,    4 groups
 using from now: INCAR     
 vasp.5.4.4.18Apr17-6-g9f103f2a35 (build Nov 01 2019 12:17:22) complex          
  
 POSCAR found type information on POSCAR  H  Sr H  Nb H 
 POSCAR found :  5 types and       8 ions
 LDA part: xc-table for Pade appr. of Perdew
 generate k-points for:   14   11    7
 POSCAR, INCAR and KPOINTS ok, starting setup
 FFT: planning ...
 WAVECAR not read
 entering main loop
       N       E                     dE             d eps       ncg     rms          rms(c)
DAV:   1     0.114674492918E+03    0.11467E+03   -0.90969E+03 21784   0.736E+02
DAV:   2    -0.280991988239E+02   -0.14277E+03   -0.13921E+03 27548   0.297E+02
DAV:   3    -0.359473928698E+02   -0.78482E+01   -0.77994E+01 38692   0.541E+01
DAV:   4    -0.361419505442E+02   -0.19456E+00   -0.19431E+00 30572   0.660E+00
DAV:   5    -0.361491272605E+02   -0.71767E-02   -0.71745E-02 35084   0.117E+00    0.341E+01
DAV:   6    -0.336922743675E+02    0.24569E+01   -0.72724E+00 31792   0.197E+01    0.135E+01
DAV:   7    -0.333801397535E+02    0.31213E+00   -0.78662E-01 31476   0.481E+00    0.731E+00
DAV:   8    -0.333623478908E+02    0.17792E-01   -0.26169E-01 31144   0.280E+00    0.152E+00
DAV:   9    -0.333578592883E+02    0.44886E-02   -0.48046E-02 28992   0.128E+00    0.318E-01
DAV:  10    -0.333581661676E+02   -0.30688E-03   -0.22264E-03 28472   0.327E-01    0.125E-01
DAV:  11    -0.333581932990E+02   -0.27131E-04   -0.15571E-04 23296   0.878E-02
   1 F= -.33358193E+02 E0= -.33358284E+02  d E =-.333582E+02
 curvature:   0.00 expect dE= 0.000E+00 dE for cont linesearch  0.000E+00
 trial: gam= 0.00000 g(F)=  0.414E-03 g(S)=  0.434E-03 ort = 0.000E+00 (trialstep = 0.100E+01)
 search vector abs. value=  0.848E-03
 bond charge predicted
       N       E                     dE             d eps       ncg     rms          rms(c)
DAV:   1    -0.333588356352E+02   -0.66947E-03   -0.44634E-02 27336   0.202E+00    0.132E-01
DAV:   2    -0.333589897064E+02   -0.15407E-03   -0.46912E-03 24832   0.457E-01    0.669E-02
DAV:   3    -0.333589138740E+02    0.75832E-04   -0.16417E-04 24944   0.933E-02
   2 F= -.33358914E+02 E0= -.33359000E+02  d E =-.720575E-03
 trial-energy change:   -0.000721  1 .order   -0.000706   -0.000848   -0.000565
 step:   2.9986(harm=  2.9986)  dis= 0.00423  next Energy=   -33.359464 (dE=-0.127E-02)
 bond charge predicted
       N       E                     dE             d eps       ncg     rms          rms(c)
DAV:   1    -0.333586807984E+02    0.30891E-03   -0.17589E-01 26184   0.400E+00    0.249E-01
DAV:   2    -0.333592448049E+02   -0.56401E-03   -0.18595E-02 23616   0.911E-01    0.125E-01
DAV:   3    -0.333589313381E+02    0.31347E-03   -0.69988E-04 33340   0.186E-01    0.543E-02
DAV:   4    -0.333588825034E+02    0.48835E-04   -0.13539E-04 17332   0.840E-02
   3 F= -.33358883E+02 E0= -.33358959E+02  d E =-.689204E-03
 curvature:  -1.50 expect dE=-0.517E-02 dE for cont linesearch -0.284E-03
 trial: gam= 0.00000 g(F)=  0.322E-02 g(S)=  0.232E-03 ort =-0.401E-03 (trialstep = 0.344E+00)
 search vector abs. value=  0.345E-02
 reached required accuracy - stopping structural energy minimisation
