   8   8   1   0
  0.8273453E+01  0.3440685E-09  0.6540479E-09  0.3433245E-09  0.5000000E-15
  1.000000000000000E-004
  CAR 
 unknown system                          
     23.31050539    -34.98480615  301      3.45336353      1.00000000
    -34.985  0.0000E+00  0.0000E+00  0.0000E+00  0.0000E+00
    -34.790  0.0000E+00  0.0000E+00  0.0000E+00  0.0000E+00
    -34.596  0.0000E+00  0.0000E+00  0.0000E+00  0.0000E+00
    -34.402  0.0000E+00  0.0000E+00  0.0000E+00  0.0000E+00
    -34.208  0.0000E+00  0.0000E+00  0.0000E+00  0.0000E+00
    -34.013  0.0000E+00  0.0000E+00  0.0000E+00  0.0000E+00
    -33.819  0.0000E+00  0.0000E+00  0.0000E+00  0.0000E+00
    -33.625  0.0000E+00  0.0000E+00  0.0000E+00  0.0000E+00
    -33.430  0.0000E+00  0.0000E+00  0.0000E+00  0.0000E+00
    -33.236  0.0000E+00  0.0000E+00  0.0000E+00  0.0000E+00
    -33.042  0.0000E+00  0.0000E+00  0.0000E+00  0.0000E+00
    -32.847  0.0000E+00  0.0000E+00  0.0000E+00  0.0000E+00
    -32.653  0.0000E+00  0.0000E+00  0.0000E+00  0.0000E+00
    -32.459  0.0000E+00  0.0000E+00  0.0000E+00  0.0000E+00
    -32.264  0.1048E+00  0.1048E+00  0.6750E-02  0.6750E-02
    -32.070  0.0000E+00  0.0000E+00  0.1010E-01  0.1010E-01
    -31.876  0.0000E+00  0.0000E+00  0.1010E-01  0.1010E-01
    -31.681  0.0000E+00  0.0000E+00  0.1010E-01  0.1010E-01
    -31.487  0.0000E+00  0.0000E+00  0.1010E-01  0.1010E-01
    -31.293  0.0000E+00  0.0000E+00  0.1010E-01  0.1010E-01
    -31.098  0.0000E+00  0.0000E+00  0.1010E-01  0.1010E-01
    -30.904  0.0000E+00  0.0000E+00  0.1010E-01  0.1010E-01
    -30.710  0.0000E+00  0.0000E+00  0.1010E-01  0.1010E-01
    -30.515  0.0000E+00  0.0000E+00  0.1010E-01  0.1010E-01
    -30.321  0.0000E+00  0.0000E+00  0.1010E-01  0.1010E-01
    -30.127  0.0000E+00  0.0000E+00  0.1010E-01  0.1010E-01
    -29.933  0.0000E+00  0.0000E+00  0.1010E-01  0.1010E-01
    -29.738  0.0000E+00  0.0000E+00  0.1010E-01  0.1010E-01
    -29.544  0.0000E+00  0.0000E+00  0.1010E-01  0.1010E-01
    -29.350  0.0000E+00  0.0000E+00  0.1010E-01  0.1010E-01
    -29.155  0.0000E+00  0.0000E+00  0.1010E-01  0.1010E-01
    -28.961  0.0000E+00  0.0000E+00  0.1010E-01  0.1010E-01
    -28.767  0.0000E+00  0.0000E+00  0.1010E-01  0.1010E-01
    -28.572  0.0000E+00  0.0000E+00  0.1010E-01  0.1010E-01
    -28.378  0.0000E+00  0.0000E+00  0.1010E-01  0.1010E-01
    -28.184  0.0000E+00  0.0000E+00  0.1010E-01  0.1010E-01
    -27.989  0.9592E-01  0.9592E-01  0.1726E-01  0.1726E-01
    -27.795  0.0000E+00  0.0000E+00  0.4040E-01  0.4040E-01
    -27.601  0.0000E+00  0.0000E+00  0.4040E-01  0.4040E-01
    -27.406  0.0000E+00  0.0000E+00  0.4040E-01  0.4040E-01
    -27.212  0.0000E+00  0.0000E+00  0.4040E-01  0.4040E-01
    -27.018  0.0000E+00  0.0000E+00  0.4040E-01  0.4040E-01
    -26.823  0.0000E+00  0.0000E+00  0.4040E-01  0.4040E-01
    -26.629  0.0000E+00  0.0000E+00  0.4040E-01  0.4040E-01
    -26.435  0.0000E+00  0.0000E+00  0.4040E-01  0.4040E-01
    -26.241  0.0000E+00  0.0000E+00  0.4040E-01  0.4040E-01
    -26.046  0.0000E+00  0.0000E+00  0.4040E-01  0.4040E-01
    -25.852  0.0000E+00  0.0000E+00  0.4040E-01  0.4040E-01
    -25.658  0.0000E+00  0.0000E+00  0.4040E-01  0.4040E-01
    -25.463  0.0000E+00  0.0000E+00  0.4040E-01  0.4040E-01
    -25.269  0.0000E+00  0.0000E+00  0.4040E-01  0.4040E-01
    -25.075  0.0000E+00  0.0000E+00  0.4040E-01  0.4040E-01
    -24.880  0.0000E+00  0.0000E+00  0.4040E-01  0.4040E-01
    -24.686  0.0000E+00  0.0000E+00  0.4040E-01  0.4040E-01
    -24.492  0.0000E+00  0.0000E+00  0.4040E-01  0.4040E-01
    -24.297  0.0000E+00  0.0000E+00  0.4040E-01  0.4040E-01
    -24.103  0.0000E+00  0.0000E+00  0.4040E-01  0.4040E-01
    -23.909  0.0000E+00  0.0000E+00  0.4040E-01  0.4040E-01
    -23.714  0.0000E+00  0.0000E+00  0.4040E-01  0.4040E-01
    -23.520  0.0000E+00  0.0000E+00  0.4040E-01  0.4040E-01
    -23.326  0.0000E+00  0.0000E+00  0.4040E-01  0.4040E-01
    -23.131  0.0000E+00  0.0000E+00  0.4040E-01  0.4040E-01
    -22.937  0.0000E+00  0.0000E+00  0.4040E-01  0.4040E-01
    -22.743  0.0000E+00  0.0000E+00  0.4040E-01  0.4040E-01
    -22.548  0.0000E+00  0.0000E+00  0.4040E-01  0.4040E-01
    -22.354  0.0000E+00  0.0000E+00  0.4040E-01  0.4040E-01
    -22.160  0.0000E+00  0.0000E+00  0.4040E-01  0.4040E-01
    -21.966  0.0000E+00  0.0000E+00  0.4040E-01  0.4040E-01
    -21.771  0.0000E+00  0.0000E+00  0.4040E-01  0.4040E-01
    -21.577  0.0000E+00  0.0000E+00  0.4040E-01  0.4040E-01
    -21.383  0.0000E+00  0.0000E+00  0.4040E-01  0.4040E-01
    -21.188  0.0000E+00  0.0000E+00  0.4040E-01  0.4040E-01
    -20.994  0.0000E+00  0.0000E+00  0.4040E-01  0.4040E-01
    -20.800  0.0000E+00  0.0000E+00  0.4040E-01  0.4040E-01
    -20.605  0.0000E+00  0.0000E+00  0.4040E-01  0.4040E-01
    -20.411  0.0000E+00  0.0000E+00  0.4040E-01  0.4040E-01
    -20.217  0.0000E+00  0.0000E+00  0.4040E-01  0.4040E-01
    -20.022  0.0000E+00  0.0000E+00  0.4040E-01  0.4040E-01
    -19.828  0.0000E+00  0.0000E+00  0.4040E-01  0.4040E-01
    -19.634  0.0000E+00  0.0000E+00  0.4040E-01  0.4040E-01
    -19.439  0.0000E+00  0.0000E+00  0.4040E-01  0.4040E-01
    -19.245  0.0000E+00  0.0000E+00  0.4040E-01  0.4040E-01
    -19.051  0.0000E+00  0.0000E+00  0.4040E-01  0.4040E-01
    -18.856  0.0000E+00  0.0000E+00  0.4040E-01  0.4040E-01
    -18.662  0.0000E+00  0.0000E+00  0.4040E-01  0.4040E-01
    -18.468  0.0000E+00  0.0000E+00  0.4040E-01  0.4040E-01
    -18.273  0.0000E+00  0.0000E+00  0.4040E-01  0.4040E-01
    -18.079  0.0000E+00  0.0000E+00  0.4040E-01  0.4040E-01
    -17.885  0.0000E+00  0.0000E+00  0.4040E-01  0.4040E-01
    -17.691  0.0000E+00  0.0000E+00  0.4040E-01  0.4040E-01
    -17.496  0.0000E+00  0.0000E+00  0.4040E-01  0.4040E-01
    -17.302  0.0000E+00  0.0000E+00  0.4040E-01  0.4040E-01
    -17.108  0.0000E+00  0.0000E+00  0.4040E-01  0.4040E-01
    -16.913  0.0000E+00  0.0000E+00  0.4040E-01  0.4040E-01
    -16.719  0.0000E+00  0.0000E+00  0.4040E-01  0.4040E-01
    -16.525  0.0000E+00  0.0000E+00  0.4040E-01  0.4040E-01
    -16.330  0.0000E+00  0.0000E+00  0.4040E-01  0.4040E-01
    -16.136  0.0000E+00  0.0000E+00  0.4040E-01  0.4040E-01
    -15.942  0.0000E+00  0.0000E+00  0.4040E-01  0.4040E-01
    -15.747  0.0000E+00  0.0000E+00  0.4040E-01  0.4040E-01
    -15.553  0.0000E+00  0.0000E+00  0.4040E-01  0.4040E-01
    -15.359  0.0000E+00  0.0000E+00  0.4040E-01  0.4040E-01
    -15.164  0.0000E+00  0.0000E+00  0.4040E-01  0.4040E-01
    -14.970  0.0000E+00  0.0000E+00  0.4040E-01  0.4040E-01
    -14.776  0.2475E-01  0.2475E-01  0.4225E-01  0.4225E-01
    -14.581  0.3386E-01  0.3386E-01  0.4807E-01  0.4807E-01
    -14.387  0.2617E-01  0.2617E-01  0.5253E-01  0.5253E-01
    -14.193  0.1226E+00  0.1226E+00  0.6498E-01  0.6498E-01
    -13.998  0.0000E+00  0.0000E+00  0.7071E-01  0.7071E-01
    -13.804  0.0000E+00  0.0000E+00  0.7071E-01  0.7071E-01
    -13.610  0.0000E+00  0.0000E+00  0.7071E-01  0.7071E-01
    -13.416  0.0000E+00  0.0000E+00  0.7071E-01  0.7071E-01
    -13.221  0.0000E+00  0.0000E+00  0.7071E-01  0.7071E-01
    -13.027  0.0000E+00  0.0000E+00  0.7071E-01  0.7071E-01
    -12.833  0.0000E+00  0.0000E+00  0.7071E-01  0.7071E-01
    -12.638  0.0000E+00  0.0000E+00  0.7071E-01  0.7071E-01
    -12.444  0.0000E+00  0.0000E+00  0.7071E-01  0.7071E-01
    -12.250  0.0000E+00  0.0000E+00  0.7071E-01  0.7071E-01
    -12.055  0.0000E+00  0.0000E+00  0.7071E-01  0.7071E-01
    -11.861  0.0000E+00  0.0000E+00  0.7071E-01  0.7071E-01
    -11.667  0.0000E+00  0.0000E+00  0.7071E-01  0.7071E-01
    -11.472  0.0000E+00  0.0000E+00  0.7071E-01  0.7071E-01
    -11.278  0.0000E+00  0.0000E+00  0.7071E-01  0.7071E-01
    -11.084  0.0000E+00  0.0000E+00  0.7071E-01  0.7071E-01
    -10.889  0.0000E+00  0.0000E+00  0.7071E-01  0.7071E-01
    -10.695  0.0000E+00  0.0000E+00  0.7071E-01  0.7071E-01
    -10.501  0.0000E+00  0.0000E+00  0.7071E-01  0.7071E-01
    -10.306  0.0000E+00  0.0000E+00  0.7071E-01  0.7071E-01
    -10.112  0.0000E+00  0.0000E+00  0.7071E-01  0.7071E-01
     -9.918  0.0000E+00  0.0000E+00  0.7071E-01  0.7071E-01
     -9.724  0.0000E+00  0.0000E+00  0.7071E-01  0.7071E-01
     -9.529  0.0000E+00  0.0000E+00  0.7071E-01  0.7071E-01
     -9.335  0.0000E+00  0.0000E+00  0.7071E-01  0.7071E-01
     -9.141  0.0000E+00  0.0000E+00  0.7071E-01  0.7071E-01
     -8.946  0.0000E+00  0.0000E+00  0.7071E-01  0.7071E-01
     -8.752  0.0000E+00  0.0000E+00  0.7071E-01  0.7071E-01
     -8.558  0.0000E+00  0.0000E+00  0.7071E-01  0.7071E-01
     -8.363  0.0000E+00  0.0000E+00  0.7071E-01  0.7071E-01
     -8.169  0.0000E+00  0.0000E+00  0.7071E-01  0.7071E-01
     -7.975  0.0000E+00  0.0000E+00  0.7071E-01  0.7071E-01
     -7.780  0.0000E+00  0.0000E+00  0.7071E-01  0.7071E-01
     -7.586  0.0000E+00  0.0000E+00  0.7071E-01  0.7071E-01
     -7.392  0.0000E+00  0.0000E+00  0.7071E-01  0.7071E-01
     -7.197  0.0000E+00  0.0000E+00  0.7071E-01  0.7071E-01
     -7.003  0.0000E+00  0.0000E+00  0.7071E-01  0.7071E-01
     -6.809  0.0000E+00  0.0000E+00  0.7071E-01  0.7071E-01
     -6.614  0.0000E+00  0.0000E+00  0.7071E-01  0.7071E-01
     -6.420  0.0000E+00  0.0000E+00  0.7071E-01  0.7071E-01
     -6.226  0.0000E+00  0.0000E+00  0.7071E-01  0.7071E-01
     -6.031  0.0000E+00  0.0000E+00  0.7071E-01  0.7071E-01
     -5.837  0.3588E-04  0.3588E-04  0.7071E-01  0.7071E-01
     -5.643  0.5023E-03  0.5023E-03  0.7075E-01  0.7075E-01
     -5.449  0.1236E-02  0.1236E-02  0.7093E-01  0.7093E-01
     -5.254  0.1501E-02  0.1501E-02  0.7120E-01  0.7120E-01
     -5.060  0.1981E-02  0.1981E-02  0.7153E-01  0.7153E-01
     -4.866  0.2611E-02  0.2611E-02  0.7197E-01  0.7197E-01
     -4.671  0.3521E-02  0.3521E-02  0.7260E-01  0.7260E-01
     -4.477  0.3779E-02  0.3779E-02  0.7329E-01  0.7329E-01
     -4.283  0.4322E-02  0.4322E-02  0.7408E-01  0.7408E-01
     -4.088  0.5093E-02  0.5093E-02  0.7499E-01  0.7499E-01
     -3.894  0.7459E-02  0.7459E-02  0.7635E-01  0.7635E-01
     -3.700  0.4574E-02  0.4574E-02  0.7756E-01  0.7756E-01
     -3.505  0.4417E-02  0.4417E-02  0.7843E-01  0.7843E-01
     -3.311  0.5310E-02  0.5310E-02  0.7934E-01  0.7934E-01
     -3.117  0.5691E-02  0.5691E-02  0.8041E-01  0.8041E-01
     -2.922  0.4681E-02  0.4681E-02  0.8137E-01  0.8137E-01
     -2.728  0.4813E-02  0.4813E-02  0.8228E-01  0.8228E-01
     -2.534  0.5724E-02  0.5724E-02  0.8329E-01  0.8329E-01
     -2.339  0.9984E-02  0.9984E-02  0.8481E-01  0.8481E-01
     -2.145  0.1165E-01  0.1165E-01  0.8682E-01  0.8682E-01
     -1.951  0.1878E-01  0.1878E-01  0.9021E-01  0.9021E-01
     -1.756  0.1272E-01  0.1272E-01  0.9363E-01  0.9363E-01
     -1.562  0.2156E-01  0.2156E-01  0.9736E-01  0.9736E-01
     -1.368  0.3620E-02  0.3620E-02  0.1011E+00  0.1011E+00
     -1.174  0.1855E-01  0.1855E-01  0.1055E+00  0.1055E+00
     -0.979  0.1435E-01  0.1435E-01  0.1085E+00  0.1085E+00
     -0.785  0.1142E-01  0.1142E-01  0.1112E+00  0.1112E+00
     -0.591  0.1018E-01  0.1018E-01  0.1133E+00  0.1133E+00
     -0.396  0.9550E-02  0.9550E-02  0.1152E+00  0.1152E+00
     -0.202  0.9455E-02  0.9455E-02  0.1170E+00  0.1170E+00
     -0.008  0.4091E-02  0.4091E-02  0.1186E+00  0.1186E+00
      0.187  0.3636E-02  0.3636E-02  0.1193E+00  0.1193E+00
      0.381  0.3589E-02  0.3589E-02  0.1200E+00  0.1200E+00
      0.575  0.3526E-02  0.3526E-02  0.1207E+00  0.1207E+00
      0.770  0.3893E-02  0.3893E-02  0.1214E+00  0.1214E+00
      0.964  0.3909E-02  0.3909E-02  0.1222E+00  0.1222E+00
      1.158  0.4265E-02  0.4265E-02  0.1230E+00  0.1230E+00
      1.353  0.5204E-02  0.5204E-02  0.1239E+00  0.1239E+00
      1.547  0.6017E-02  0.6017E-02  0.1249E+00  0.1249E+00
      1.741  0.7261E-02  0.7261E-02  0.1264E+00  0.1264E+00
      1.936  0.7252E-02  0.7252E-02  0.1278E+00  0.1278E+00
      2.130  0.7626E-02  0.7626E-02  0.1292E+00  0.1292E+00
      2.324  0.7594E-02  0.7594E-02  0.1307E+00  0.1307E+00
      2.519  0.6782E-02  0.6782E-02  0.1321E+00  0.1321E+00
      2.713  0.5740E-02  0.5740E-02  0.1334E+00  0.1334E+00
      2.907  0.3858E-02  0.3858E-02  0.1343E+00  0.1343E+00
      3.101  0.3125E-02  0.3125E-02  0.1350E+00  0.1350E+00
      3.296  0.4197E-02  0.4197E-02  0.1357E+00  0.1357E+00
      3.490  0.4966E-02  0.4966E-02  0.1365E+00  0.1365E+00
      3.684  0.6026E-02  0.6026E-02  0.1376E+00  0.1376E+00
      3.879  0.5075E-02  0.5075E-02  0.1387E+00  0.1387E+00
      4.073  0.6905E-02  0.6905E-02  0.1398E+00  0.1398E+00
      4.267  0.4524E-02  0.4524E-02  0.1410E+00  0.1410E+00
      4.462  0.4504E-02  0.4504E-02  0.1417E+00  0.1417E+00
      4.656  0.8145E-02  0.8145E-02  0.1430E+00  0.1430E+00
      4.850  0.8954E-02  0.8954E-02  0.1449E+00  0.1449E+00
      5.045  0.1091E-01  0.1091E-01  0.1473E+00  0.1473E+00
      5.239  0.1329E-01  0.1329E-01  0.1495E+00  0.1495E+00
      5.433  0.2432E-01  0.2432E-01  0.1536E+00  0.1536E+00
      5.628  0.1097E-01  0.1097E-01  0.1560E+00  0.1560E+00
      5.822  0.8448E-02  0.8448E-02  0.1584E+00  0.1584E+00
      6.016  0.8971E-02  0.8971E-02  0.1600E+00  0.1600E+00
      6.211  0.1010E-01  0.1010E-01  0.1622E+00  0.1622E+00
      6.405  0.1341E-01  0.1341E-01  0.1643E+00  0.1643E+00
      6.599  0.1317E-01  0.1317E-01  0.1671E+00  0.1671E+00
      6.794  0.9381E-02  0.9381E-02  0.1691E+00  0.1691E+00
      6.988  0.1313E-01  0.1313E-01  0.1711E+00  0.1711E+00
      7.182  0.2037E-01  0.2037E-01  0.1746E+00  0.1746E+00
      7.376  0.1281E-01  0.1281E-01  0.1777E+00  0.1777E+00
      7.571  0.1259E-01  0.1259E-01  0.1809E+00  0.1809E+00
      7.765  0.1873E-01  0.1873E-01  0.1835E+00  0.1835E+00
      7.959  0.2080E-01  0.2080E-01  0.1880E+00  0.1880E+00
      8.154  0.9477E-02  0.9477E-02  0.1911E+00  0.1911E+00
      8.348  0.1648E-01  0.1648E-01  0.1930E+00  0.1930E+00
      8.542  0.2359E-01  0.2359E-01  0.1975E+00  0.1975E+00
      8.737  0.1166E-01  0.1166E-01  0.2011E+00  0.2011E+00
      8.931  0.2095E-01  0.2095E-01  0.2036E+00  0.2036E+00
      9.125  0.2115E-01  0.2115E-01  0.2077E+00  0.2077E+00
      9.320  0.1094E-01  0.1094E-01  0.2111E+00  0.2111E+00
      9.514  0.1110E-01  0.1110E-01  0.2129E+00  0.2129E+00
      9.708  0.2130E-01  0.2130E-01  0.2164E+00  0.2164E+00
      9.903  0.1566E-01  0.1566E-01  0.2198E+00  0.2198E+00
     10.097  0.1465E-01  0.1465E-01  0.2229E+00  0.2229E+00
     10.291  0.1725E-01  0.1725E-01  0.2257E+00  0.2257E+00
     10.486  0.1730E-01  0.1730E-01  0.2293E+00  0.2293E+00
     10.680  0.1843E-01  0.1843E-01  0.2327E+00  0.2327E+00
     10.874  0.1330E-01  0.1330E-01  0.2358E+00  0.2358E+00
     11.068  0.1113E-01  0.1113E-01  0.2382E+00  0.2382E+00
     11.263  0.9567E-02  0.9567E-02  0.2402E+00  0.2402E+00
     11.457  0.5862E-02  0.5862E-02  0.2418E+00  0.2418E+00
     11.651  0.1186E-01  0.1186E-01  0.2431E+00  0.2431E+00
     11.846  0.9423E-02  0.9423E-02  0.2452E+00  0.2452E+00
     12.040  0.8866E-02  0.8866E-02  0.2469E+00  0.2469E+00
     12.234  0.1215E-01  0.1215E-01  0.2490E+00  0.2490E+00
     12.429  0.9153E-02  0.9153E-02  0.2512E+00  0.2512E+00
     12.623  0.6793E-02  0.6793E-02  0.2528E+00  0.2528E+00
     12.817  0.1232E-01  0.1232E-01  0.2546E+00  0.2546E+00
     13.012  0.1768E-01  0.1768E-01  0.2576E+00  0.2576E+00
     13.206  0.1625E-01  0.1625E-01  0.2610E+00  0.2610E+00
     13.400  0.4958E-02  0.4958E-02  0.2632E+00  0.2632E+00
     13.595  0.4753E-02  0.4753E-02  0.2640E+00  0.2640E+00
     13.789  0.8902E-02  0.8902E-02  0.2652E+00  0.2652E+00
     13.983  0.9064E-02  0.9064E-02  0.2670E+00  0.2670E+00
     14.178  0.9917E-02  0.9917E-02  0.2689E+00  0.2689E+00
     14.372  0.1006E-01  0.1006E-01  0.2709E+00  0.2709E+00
     14.566  0.8020E-02  0.8020E-02  0.2727E+00  0.2727E+00
     14.761  0.8959E-02  0.8959E-02  0.2743E+00  0.2743E+00
     14.955  0.1122E-01  0.1122E-01  0.2763E+00  0.2763E+00
     15.149  0.1029E-01  0.1029E-01  0.2785E+00  0.2785E+00
     15.343  0.7628E-02  0.7628E-02  0.2802E+00  0.2802E+00
     15.538  0.5631E-02  0.5631E-02  0.2815E+00  0.2815E+00
     15.732  0.5037E-02  0.5037E-02  0.2826E+00  0.2826E+00
     15.926  0.3127E-02  0.3127E-02  0.2834E+00  0.2834E+00
     16.121  0.6288E-02  0.6288E-02  0.2842E+00  0.2842E+00
     16.315  0.1285E-01  0.1285E-01  0.2861E+00  0.2861E+00
     16.509  0.8625E-02  0.8625E-02  0.2882E+00  0.2882E+00
     16.704  0.7799E-02  0.7799E-02  0.2898E+00  0.2898E+00
     16.898  0.1023E-01  0.1023E-01  0.2915E+00  0.2915E+00
     17.092  0.1257E-01  0.1257E-01  0.2937E+00  0.2937E+00
     17.287  0.1086E-01  0.1086E-01  0.2959E+00  0.2959E+00
     17.481  0.1343E-01  0.1343E-01  0.2982E+00  0.2982E+00
     17.675  0.9790E-02  0.9790E-02  0.3007E+00  0.3007E+00
     17.870  0.3811E-02  0.3811E-02  0.3020E+00  0.3020E+00
     18.064  0.3028E-02  0.3028E-02  0.3026E+00  0.3026E+00
     18.258  0.3837E-02  0.3837E-02  0.3033E+00  0.3033E+00
     18.453  0.8919E-02  0.8919E-02  0.3043E+00  0.3043E+00
     18.647  0.1343E-01  0.1343E-01  0.3068E+00  0.3068E+00
     18.841  0.1253E-01  0.1253E-01  0.3092E+00  0.3092E+00
     19.036  0.1176E-01  0.1176E-01  0.3117E+00  0.3117E+00
     19.230  0.1392E-01  0.1392E-01  0.3140E+00  0.3140E+00
     19.424  0.1293E-01  0.1293E-01  0.3166E+00  0.3166E+00
     19.618  0.1120E-01  0.1121E-01  0.3189E+00  0.3189E+00
     19.813  0.9386E-02  0.9389E-02  0.3208E+00  0.3208E+00
     20.007  0.5634E-02  0.5637E-02  0.3224E+00  0.3224E+00
     20.201  0.1346E-02  0.1343E-02  0.3231E+00  0.3231E+00
     20.396  0.3843E-03  0.3793E-03  0.3232E+00  0.3232E+00
     20.590  0.3845E-05  0.1905E-05  0.3232E+00  0.3232E+00
     20.784  0.0000E+00  0.0000E+00  0.3232E+00  0.3232E+00
     20.979  0.0000E+00  0.0000E+00  0.3232E+00  0.3232E+00
     21.173  0.0000E+00  0.0000E+00  0.3232E+00  0.3232E+00
     21.367  0.0000E+00  0.0000E+00  0.3232E+00  0.3232E+00
     21.562  0.0000E+00  0.0000E+00  0.3232E+00  0.3232E+00
     21.756  0.0000E+00  0.0000E+00  0.3232E+00  0.3232E+00
     21.950  0.0000E+00  0.0000E+00  0.3232E+00  0.3232E+00
     22.145  0.0000E+00  0.0000E+00  0.3232E+00  0.3232E+00
     22.339  0.0000E+00  0.0000E+00  0.3232E+00  0.3232E+00
     22.533  0.0000E+00  0.0000E+00  0.3232E+00  0.3232E+00
     22.728  0.0000E+00  0.0000E+00  0.3232E+00  0.3232E+00
     22.922  0.0000E+00  0.0000E+00  0.3232E+00  0.3232E+00
     23.116  0.0000E+00  0.0000E+00  0.3232E+00  0.3232E+00
     23.311  0.0000E+00  0.0000E+00  0.3232E+00  0.3232E+00
     23.31050539    -34.98480615  301      3.45336353      1.00000000
    -34.985  0.0000E+00  0.0000E+00  0.0000E+00  0.0000E+00  0.0000E+00  0.0000E+00  0.0000E+00  0.0000E+00  0.0000E+00  0.0000E+00  0.0000E+00  0.0000E+00  0.0000E+00  0.0000E+00  0.0000E+00  0.0000E+00  0.0000E+00  0.0000E+00
    -34.790  0.0000E+00  0.0000E+00  0.0000E+00  0.0000E+00  0.0000E+00  0.0000E+00  0.0000E+00  0.0000E+00  0.0000E+00  0.0000E+00  0.0000E+00  0.0000E+00  0.0000E+00  0.0000E+00  0.0000E+00  0.0000E+00  0.0000E+00  0.0000E+00
    -34.596  0.0000E+00  0.0000E+00  0.0000E+00  0.0000E+00  0.0000E+00  0.0000E+00  0.0000E+00  0.0000E+00  0.0000E+00  0.0000E+00  0.0000E+00  0.0000E+00  0.0000E+00  0.0000E+00  0.0000E+00  0.0000E+00  0.0000E+00  0.0000E+00
    -34.402  0.0000E+00  0.0000E+00  0.0000E+00  0.0000E+00  0.0000E+00  0.0000E+00  0.0000E+00  0.0000E+00  0.0000E+00  0.0000E+00  0.0000E+00  0.0000E+00  0.0000E+00  0.0000E+00  0.0000E+00  0.0000E+00  0.0000E+00  0.0000E+00
    -34.208  0.0000E+00  0.0000E+00  0.0000E+00  0.0000E+00  0.0000E+00  0.0000E+00  0.0000E+00  0.0000E+00  0.0000E+00  0.0000E+00  0.0000E+00  0.0000E+00  0.0000E+00  0.0000E+00  0.0000E+00  0.0000E+00  0.0000E+00  0.0000E+00
    -34.013  0.0000E+00  0.0000E+00  0.0000E+00  0.0000E+00  0.0000E+00  0.0000E+00  0.0000E+00  0.0000E+00  0.0000E+00  0.0000E+00  0.0000E+00  0.0000E+00  0.0000E+00  0.0000E+00  0.0000E+00  0.0000E+00  0.0000E+00  0.0000E+00
    -33.819  0.0000E+00  0.0000E+00  0.0000E+00  0.0000E+00  0.0000E+00  0.0000E+00  0.0000E+00  0.0000E+00  0.0000E+00  0.0000E+00  0.0000E+00  0.0000E+00  0.0000E+00  0.0000E+00  0.0000E+00  0.0000E+00  0.0000E+00  0.0000E+00
    -33.625  0.0000E+00  0.0000E+00  0.0000E+00  0.0000E+00  0.0000E+00  0.0000E+00  0.0000E+00  0.0000E+00  0.0000E+00  0.0000E+00  0.0000E+00  0.0000E+00  0.0000E+00  0.0000E+00  0.0000E+00  0.0000E+00  0.0000E+00  0.0000E+00
    -33.430  0.0000E+00  0.0000E+00  0.0000E+00  0.0000E+00  0.0000E+00  0.0000E+00  0.0000E+00  0.0000E+00  0.0000E+00  0.0000E+00  0.0000E+00  0.0000E+00  0.0000E+00  0.0000E+00  0.0000E+00  0.0000E+00  0.0000E+00  0.0000E+00
    -33.236  0.0000E+00  0.0000E+00  0.0000E+00  0.0000E+00  0.0000E+00  0.0000E+00  0.0000E+00  0.0000E+00  0.0000E+00  0.0000E+00  0.0000E+00  0.0000E+00  0.0000E+00  0.0000E+00  0.0000E+00  0.0000E+00  0.0000E+00  0.0000E+00
    -33.042  0.0000E+00  0.0000E+00  0.0000E+00  0.0000E+00  0.0000E+00  0.0000E+00  0.0000E+00  0.0000E+00  0.0000E+00  0.0000E+00  0.0000E+00  0.0000E+00  0.0000E+00  0.0000E+00  0.0000E+00  0.0000E+00  0.0000E+00  0.0000E+00
    -32.847  0.0000E+00  0.0000E+00  0.0000E+00  0.0000E+00  0.0000E+00  0.0000E+00  0.0000E+00  0.0000E+00  0.0000E+00  0.0000E+00  0.0000E+00  0.0000E+00  0.0000E+00  0.0000E+00  0.0000E+00  0.0000E+00  0.0000E+00  0.0000E+00
    -32.653  0.0000E+00  0.0000E+00  0.0000E+00  0.0000E+00  0.0000E+00  0.0000E+00  0.0000E+00  0.0000E+00  0.0000E+00  0.0000E+00  0.0000E+00  0.0000E+00  0.0000E+00  0.0000E+00  0.0000E+00  0.0000E+00  0.0000E+00  0.0000E+00
    -32.459  0.0000E+00  0.0000E+00  0.0000E+00  0.0000E+00  0.0000E+00  0.0000E+00  0.0000E+00  0.0000E+00  0.0000E+00  0.0000E+00  0.0000E+00  0.0000E+00  0.0000E+00  0.0000E+00  0.0000E+00  0.0000E+00  0.0000E+00  0.0000E+00
    -32.264  0.1015E+02  0.1015E+02  0.7512E-05  0.7512E-05  0.6814E-04  0.6814E-04  0.6174E-04  0.6174E-04  0.1887E-04  0.1887E-04  0.5937E-05  0.5937E-05  0.4099E-04  0.4099E-04  0.6260E-05  0.6260E-05  0.4652E-04  0.4652E-04
    -32.070  0.0000E+00  0.0000E+00  0.0000E+00  0.0000E+00  0.0000E+00  0.0000E+00  0.0000E+00  0.0000E+00  0.0000E+00  0.0000E+00  0.0000E+00  0.0000E+00  0.0000E+00  0.0000E+00  0.0000E+00  0.0000E+00  0.0000E+00  0.0000E+00
    -31.876  0.0000E+00  0.0000E+00  0.0000E+00  0.0000E+00  0.0000E+00  0.0000E+00  0.0000E+00  0.0000E+00  0.0000E+00  0.0000E+00  0.0000E+00  0.0000E+00  0.0000E+00  0.0000E+00  0.0000E+00  0.0000E+00  0.0000E+00  0.0000E+00
    -31.681  0.0000E+00  0.0000E+00  0.0000E+00  0.0000E+00  0.0000E+00  0.0000E+00  0.0000E+00  0.0000E+00  0.0000E+00  0.0000E+00  0.0000E+00  0.0000E+00  0.0000E+00  0.0000E+00  0.0000E+00  0.0000E+00  0.0000E+00  0.0000E+00
    -31.487  0.0000E+00  0.0000E+00  0.0000E+00  0.0000E+00  0.0000E+00  0.0000E+00  0.0000E+00  0.0000E+00  0.0000E+00  0.0000E+00  0.0000E+00  0.0000E+00  0.0000E+00  0.0000E+00  0.0000E+00  0.0000E+00  0.0000E+00  0.0000E+00
    -31.293  0.0000E+00  0.0000E+00  0.0000E+00  0.0000E+00  0.0000E+00  0.0000E+00  0.0000E+00  0.0000E+00  0.0000E+00  0.0000E+00  0.0000E+00  0.0000E+00  0.0000E+00  0.0000E+00  0.0000E+00  0.0000E+00  0.0000E+00  0.0000E+00
    -31.098  0.0000E+00  0.0000E+00  0.0000E+00  0.0000E+00  0.0000E+00  0.0000E+00  0.0000E+00  0.0000E+00  0.0000E+00  0.0000E+00  0.0000E+00  0.0000E+00  0.0000E+00  0.0000E+00  0.0000E+00  0.0000E+00  0.0000E+00  0.0000E+00
    -30.904  0.0000E+00  0.0000E+00  0.0000E+00  0.0000E+00  0.0000E+00  0.0000E+00  0.0000E+00  0.0000E+00  0.0000E+00  0.0000E+00  0.0000E+00  0.0000E+00  0.0000E+00  0.0000E+00  0.0000E+00  0.0000E+00  0.0000E+00  0.0000E+00
    -30.710  0.0000E+00  0.0000E+00  0.0000E+00  0.0000E+00  0.0000E+00  0.0000E+00  0.0000E+00  0.0000E+00  0.0000E+00  0.0000E+00  0.0000E+00  0.0000E+00  0.0000E+00  0.0000E+00  0.0000E+00  0.0000E+00  0.0000E+00  0.0000E+00
    -30.515  0.0000E+00  0.0000E+00  0.0000E+00  0.0000E+00  0.0000E+00  0.0000E+00  0.0000E+00  0.0000E+00  0.0000E+00  0.0000E+00  0.0000E+00  0.0000E+00  0.0000E+00  0.0000E+00  0.0000E+00  0.0000E+00  0.0000E+00  0.0000E+00
    -30.321  0.0000E+00  0.0000E+00  0.0000E+00  0.0000E+00  0.0000E+00  0.0000E+00  0.0000E+00  0.0000E+00  0.0000E+00  0.0000E+00  0.0000E+00  0.0000E+00  0.0000E+00  0.0000E+00  0.0000E+00  0.0000E+00  0.0000E+00  0.0000E+00
    -30.127  0.0000E+00  0.0000E+00  0.0000E+00  0.0000E+00  0.0000E+00  0.0000E+00  0.0000E+00  0.0000E+00  0.0000E+00  0.0000E+00  0.0000E+00  0.0000E+00  0.0000E+00  0.0000E+00  0.0000E+00  0.0000E+00  0.0000E+00  0.0000E+00
    -29.933  0.0000E+00  0.0000E+00  0.0000E+00  0.0000E+00  0.0000E+00  0.0000E+00  0.0000E+00  0.0000E+00  0.0000E+00  0.0000E+00  0.0000E+00  0.0000E+00  0.0000E+00  0.0000E+00  0.0000E+00  0.0000E+00  0.0000E+00  0.0000E+00
    -29.738  0.0000E+00  0.0000E+00  0.0000E+00  0.0000E+00  0.0000E+00  0.0000E+00  0.0000E+00  0.0000E+00  0.0000E+00  0.0000E+00  0.0000E+00  0.0000E+00  0.0000E+00  0.0000E+00  0.0000E+00  0.0000E+00  0.0000E+00  0.0000E+00
    -29.544  0.0000E+00  0.0000E+00  0.0000E+00  0.0000E+00  0.0000E+00  0.0000E+00  0.0000E+00  0.0000E+00  0.0000E+00  0.0000E+00  0.0000E+00  0.0000E+00  0.0000E+00  0.0000E+00  0.0000E+00  0.0000E+00  0.0000E+00  0.0000E+00
    -29.350  0.0000E+00  0.0000E+00  0.0000E+00  0.0000E+00  0.0000E+00  0.0000E+00  0.0000E+00  0.0000E+00  0.0000E+00  0.0000E+00  0.0000E+00  0.0000E+00  0.0000E+00  0.0000E+00  0.0000E+00  0.0000E+00  0.0000E+00  0.0000E+00
    -29.155  0.0000E+00  0.0000E+00  0.0000E+00  0.0000E+00  0.0000E+00  0.0000E+00  0.0000E+00  0.0000E+00  0.0000E+00  0.0000E+00  0.0000E+00  0.0000E+00  0.0000E+00  0.0000E+00  0.0000E+00  0.0000E+00  0.0000E+00  0.0000E+00
    -28.961  0.0000E+00  0.0000E+00  0.0000E+00  0.0000E+00  0.0000E+00  0.0000E+00  0.0000E+00  0.0000E+00  0.0000E+00  0.0000E+00  0.0000E+00  0.0000E+00  0.0000E+00  0.0000E+00  0.0000E+00  0.0000E+00  0.0000E+00  0.0000E+00
    -28.767  0.0000E+00  0.0000E+00  0.0000E+00  0.0000E+00  0.0000E+00  0.0000E+00  0.0000E+00  0.0000E+00  0.0000E+00  0.0000E+00  0.0000E+00  0.0000E+00  0.0000E+00  0.0000E+00  0.0000E+00  0.0000E+00  0.0000E+00  0.0000E+00
    -28.572  0.0000E+00  0.0000E+00  0.0000E+00  0.0000E+00  0.0000E+00  0.0000E+00  0.0000E+00  0.0000E+00  0.0000E+00  0.0000E+00  0.0000E+00  0.0000E+00  0.0000E+00  0.0000E+00  0.0000E+00  0.0000E+00  0.0000E+00  0.0000E+00
    -28.378  0.0000E+00  0.0000E+00  0.0000E+00  0.0000E+00  0.0000E+00  0.0000E+00  0.0000E+00  0.0000E+00  0.0000E+00  0.0000E+00  0.0000E+00  0.0000E+00  0.0000E+00  0.0000E+00  0.0000E+00  0.0000E+00  0.0000E+00  0.0000E+00
    -28.184  0.0000E+00  0.0000E+00  0.0000E+00  0.0000E+00  0.0000E+00  0.0000E+00  0.0000E+00  0.0000E+00  0.0000E+00  0.0000E+00  0.0000E+00  0.0000E+00  0.0000E+00  0.0000E+00  0.0000E+00  0.0000E+00  0.0000E+00  0.0000E+00
    -27.989  0.2652E-03  0.2652E-03  0.6085E-04  0.6085E-04  0.1886E-04  0.1886E-04  0.1727E-04  0.1727E-04  0.6293E-05  0.6293E-05  0.8400E-05  0.8400E-05  0.2847E-05  0.2847E-05  0.1673E-05  0.1673E-05  0.6450E-05  0.6450E-05
    -27.795  0.0000E+00  0.0000E+00  0.0000E+00  0.0000E+00  0.0000E+00  0.0000E+00  0.0000E+00  0.0000E+00  0.0000E+00  0.0000E+00  0.0000E+00  0.0000E+00  0.0000E+00  0.0000E+00  0.0000E+00  0.0000E+00  0.0000E+00  0.0000E+00
    -27.601  0.0000E+00  0.0000E+00  0.0000E+00  0.0000E+00  0.0000E+00  0.0000E+00  0.0000E+00  0.0000E+00  0.0000E+00  0.0000E+00  0.0000E+00  0.0000E+00  0.0000E+00  0.0000E+00  0.0000E+00  0.0000E+00  0.0000E+00  0.0000E+00
    -27.406  0.0000E+00  0.0000E+00  0.0000E+00  0.0000E+00  0.0000E+00  0.0000E+00  0.0000E+00  0.0000E+00  0.0000E+00  0.0000E+00  0.0000E+00  0.0000E+00  0.0000E+00  0.0000E+00  0.0000E+00  0.0000E+00  0.0000E+00  0.0000E+00
    -27.212  0.0000E+00  0.0000E+00  0.0000E+00  0.0000E+00  0.0000E+00  0.0000E+00  0.0000E+00  0.0000E+00  0.0000E+00  0.0000E+00  0.0000E+00  0.0000E+00  0.0000E+00  0.0000E+00  0.0000E+00  0.0000E+00  0.0000E+00  0.0000E+00
    -27.018  0.0000E+00  0.0000E+00  0.0000E+00  0.0000E+00  0.0000E+00  0.0000E+00  0.0000E+00  0.0000E+00  0.0000E+00  0.0000E+00  0.0000E+00  0.0000E+00  0.0000E+00  0.0000E+00  0.0000E+00  0.0000E+00  0.0000E+00  0.0000E+00
    -26.823  0.0000E+00  0.0000E+00  0.0000E+00  0.0000E+00  0.0000E+00  0.0000E+00  0.0000E+00  0.0000E+00  0.0000E+00  0.0000E+00  0.0000E+00  0.0000E+00  0.0000E+00  0.0000E+00  0.0000E+00  0.0000E+00  0.0000E+00  0.0000E+00
    -26.629  0.0000E+00  0.0000E+00  0.0000E+00  0.0000E+00  0.0000E+00  0.0000E+00  0.0000E+00  0.0000E+00  0.0000E+00  0.0000E+00  0.0000E+00  0.0000E+00  0.0000E+00  0.0000E+00  0.0000E+00  0.0000E+00  0.0000E+00  0.0000E+00
    -26.435  0.0000E+00  0.0000E+00  0.0000E+00  0.0000E+00  0.0000E+00  0.0000E+00  0.0000E+00  0.0000E+00  0.0000E+00  0.0000E+00  0.0000E+00  0.0000E+00  0.0000E+00  0.0000E+00  0.0000E+00  0.0000E+00  0.0000E+00  0.0000E+00
    -26.241  0.0000E+00  0.0000E+00  0.0000E+00  0.0000E+00  0.0000E+00  0.0000E+00  0.0000E+00  0.0000E+00  0.0000E+00  0.0000E+00  0.0000E+00  0.0000E+00  0.0000E+00  0.0000E+00  0.0000E+00  0.0000E+00  0.0000E+00  0.0000E+00
    -26.046  0.0000E+00  0.0000E+00  0.0000E+00  0.0000E+00  0.0000E+00  0.0000E+00  0.0000E+00  0.0000E+00  0.0000E+00  0.0000E+00  0.0000E+00  0.0000E+00  0.0000E+00  0.0000E+00  0.0000E+00  0.0000E+00  0.0000E+00  0.0000E+00
    -25.852  0.0000E+00  0.0000E+00  0.0000E+00  0.0000E+00  0.0000E+00  0.0000E+00  0.0000E+00  0.0000E+00  0.0000E+00  0.0000E+00  0.0000E+00  0.0000E+00  0.0000E+00  0.0000E+00  0.0000E+00  0.0000E+00  0.0000E+00  0.0000E+00
    -25.658  0.0000E+00  0.0000E+00  0.0000E+00  0.0000E+00  0.0000E+00  0.0000E+00  0.0000E+00  0.0000E+00  0.0000E+00  0.0000E+00  0.0000E+00  0.0000E+00  0.0000E+00  0.0000E+00  0.0000E+00  0.0000E+00  0.0000E+00  0.0000E+00
    -25.463  0.0000E+00  0.0000E+00  0.0000E+00  0.0000E+00  0.0000E+00  0.0000E+00  0.0000E+00  0.0000E+00  0.0000E+00  0.0000E+00  0.0000E+00  0.0000E+00  0.0000E+00  0.0000E+00  0.0000E+00  0.0000E+00  0.0000E+00  0.0000E+00
    -25.269  0.0000E+00  0.0000E+00  0.0000E+00  0.0000E+00  0.0000E+00  0.0000E+00  0.0000E+00  0.0000E+00  0.0000E+00  0.0000E+00  0.0000E+00  0.0000E+00  0.0000E+00  0.0000E+00  0.0000E+00  0.0000E+00  0.0000E+00  0.0000E+00