 running on   32 total cores
 distrk:  each k-point on   32 cores,    1 groups
 distr:  one band on    8 cores,    4 groups
 using from now: INCAR     
 vasp.5.4.4.18Apr17-6-g9f103f2a35 (build Nov 01 2019 12:17:22) complex          
  
 POSCAR found type information on POSCAR  H  Sr H  Nb
 POSCAR found :  4 types and       8 ions
 LDA part: xc-table for Pade appr. of Perdew
 generate k-points for:   14   11    7
 POSCAR, INCAR and KPOINTS ok, starting setup
 FFT: planning ...
 WAVECAR not read
 entering main loop
       N       E                     dE             d eps       ncg     rms          rms(c)
DAV:   1     0.114804407892E+03    0.11480E+03   -0.90765E+03 21808   0.749E+02
DAV:   2    -0.282938813227E+02   -0.14310E+03   -0.13962E+03 27232   0.297E+02
DAV:   3    -0.359271140297E+02   -0.76332E+01   -0.75696E+01 39572   0.536E+01
DAV:   4    -0.360813978986E+02   -0.15428E+00   -0.15361E+00 29968   0.598E+00
DAV:   5    -0.360864768374E+02   -0.50789E-02   -0.50766E-02 35048   0.103E+00    0.358E+01
DAV:   6    -0.334907321630E+02    0.25957E+01   -0.89607E+00 31716   0.216E+01    0.138E+01
DAV:   7    -0.332612014644E+02    0.22953E+00   -0.97418E-01 33024   0.538E+00    0.841E+00
DAV:   8    -0.332448752428E+02    0.16326E-01   -0.26233E-01 32748   0.320E+00    0.164E+00
DAV:   9    -0.332380055889E+02    0.68697E-02   -0.52119E-02 30184   0.169E+00    0.437E-01
DAV:  10    -0.332375886673E+02    0.41692E-03   -0.54241E-03 33144   0.584E-01    0.117E-01
DAV:  11    -0.332375720356E+02    0.16632E-04   -0.62004E-04 30600   0.183E-01
   1 F= -.33237572E+02 E0= -.33237525E+02  d E =-.332376E+02
 curvature:   0.00 expect dE= 0.000E+00 dE for cont linesearch  0.000E+00
 trial: gam= 0.00000 g(F)=  0.370E-03 g(S)=  0.228E-04 ort = 0.000E+00 (trialstep = 0.100E+01)
 search vector abs. value=  0.393E-03
 bond charge predicted
       N       E                     dE             d eps       ncg     rms          rms(c)
DAV:   1    -0.332375009998E+02    0.87668E-04   -0.30872E-02 26940   0.178E+00    0.623E-02
DAV:   2    -0.332378221858E+02   -0.32119E-03   -0.36169E-03 23968   0.390E-01    0.398E-02
DAV:   3    -0.332378193810E+02    0.28048E-05   -0.45160E-05 22052   0.504E-02
   2 F= -.33237819E+02 E0= -.33237770E+02  d E =-.247345E-03
 trial-energy change:   -0.000247  1 .order   -0.000261   -0.000393   -0.000129
 step:   1.4902(harm=  1.4902)  dis= 0.00298  next Energy=   -33.237865 (dE=-0.293E-03)
 bond charge predicted
       N       E                     dE             d eps       ncg     rms          rms(c)
DAV:   1    -0.332377703566E+02    0.51829E-04   -0.72204E-03 26736   0.852E-01    0.304E-02
DAV:   2    -0.332378438060E+02   -0.73449E-04   -0.85849E-04 23664   0.188E-01
   3 F= -.33237844E+02 E0= -.33237794E+02  d E =-.271770E-03
 curvature:  -0.75 expect dE=-0.210E-03 dE for cont linesearch -0.107E-05
 trial: gam= 0.77874 g(F)=  0.208E-03 g(S)=  0.740E-04 ort =-0.237E-04 (trialstep = 0.892E+00)
 search vector abs. value=  0.483E-03
 reached required accuracy - stopping structural energy minimisation
