Automatically generated mesh
     101
Reciprocal lattice
    0.00000000000000    0.00000000000000    0.00000000000000             1
    0.20000000000000    0.00000000000000    0.00000000000000             2
    0.40000000000000    0.00000000000000    0.00000000000000             2
    0.00000000000000    0.12500000000000    0.00000000000000             2
    0.20000000000000    0.12500000000000    0.00000000000000             2
    0.40000000000000    0.12500000000000    0.00000000000000             2
   -0.40000000000000    0.12500000000000    0.00000000000000             2
   -0.20000000000000    0.12500000000000    0.00000000000000             2
    0.00000000000000    0.25000000000000    0.00000000000000             2
    0.20000000000000    0.25000000000000    0.00000000000000             2
    0.40000000000000    0.25000000000000    0.00000000000000             2
   -0.40000000000000    0.25000000000000    0.00000000000000             2
   -0.20000000000000    0.25000000000000    0.00000000000000             2
    0.00000000000000    0.37500000000000    0.00000000000000             2
    0.20000000000000    0.37500000000000    0.00000000000000             2
    0.40000000000000    0.37500000000000    0.00000000000000             2
   -0.40000000000000    0.37500000000000    0.00000000000000             2
   -0.20000000000000    0.37500000000000    0.00000000000000             2
    0.00000000000000    0.50000000000000    0.00000000000000             1
    0.20000000000000    0.50000000000000    0.00000000000000             2
    0.40000000000000    0.50000000000000    0.00000000000000             2
    0.00000000000000    0.00000000000000    0.20000000000000             2
    0.20000000000000    0.00000000000000    0.20000000000000             2
    0.40000000000000    0.00000000000000    0.20000000000000             2
   -0.40000000000000    0.00000000000000    0.20000000000000             2
   -0.20000000000000    0.00000000000000    0.20000000000000             2
    0.00000000000000    0.12500000000000    0.20000000000000             2
    0.20000000000000    0.12500000000000    0.20000000000000             2
    0.40000000000000    0.12500000000000    0.20000000000000             2
   -0.40000000000000    0.12500000000000    0.20000000000000             2
   -0.20000000000000    0.12500000000000    0.20000000000000             2
    0.00000000000000    0.25000000000000    0.20000000000000             2
    0.20000000000000    0.25000000000000    0.20000000000000             2
    0.40000000000000    0.25000000000000    0.20000000000000             2
   -0.40000000000000    0.25000000000000    0.20000000000000             2
   -0.20000000000000    0.25000000000000    0.20000000000000             2
    0.00000000000000    0.37500000000000    0.20000000000000             2
    0.20000000000000    0.37500000000000    0.20000000000000             2
    0.40000000000000    0.37500000000000    0.20000000000000             2
   -0.40000000000000    0.37500000000000    0.20000000000000             2
   -0.20000000000000    0.37500000000000    0.20000000000000             2
    0.00000000000000    0.50000000000000    0.20000000000000             2
    0.20000000000000    0.50000000000000    0.20000000000000             2
    0.40000000000000    0.50000000000000    0.20000000000000             2
   -0.40000000000000    0.50000000000000    0.20000000000000             2
   -0.20000000000000    0.50000000000000    0.20000000000000             2
    0.00000000000000   -0.37500000000000    0.20000000000000             2
    0.20000000000000   -0.37500000000000    0.20000000000000             2
    0.40000000000000   -0.37500000000000    0.20000000000000             2
   -0.40000000000000   -0.37500000000000    0.20000000000000             2
   -0.20000000000000   -0.37500000000000    0.20000000000000             2
    0.00000000000000   -0.25000000000000    0.20000000000000             2
    0.20000000000000   -0.25000000000000    0.20000000000000             2
    0.40000000000000   -0.25000000000000    0.20000000000000             2
   -0.40000000000000   -0.25000000000000    0.20000000000000             2
   -0.20000000000000   -0.25000000000000    0.20000000000000             2
    0.00000000000000   -0.12500000000000    0.20000000000000             2
    0.20000000000000   -0.12500000000000    0.20000000000000             2
    0.40000000000000   -0.12500000000000    0.20000000000000             2
   -0.40000000000000   -0.12500000000000    0.20000000000000             2
   -0.20000000000000   -0.12500000000000    0.20000000000000             2
    0.00000000000000    0.00000000000000    0.40000000000000             2
    0.20000000000000    0.00000000000000    0.40000000000000             2
    0.40000000000000    0.00000000000000    0.40000000000000             2
   -0.40000000000000    0.00000000000000    0.40000000000000             2
   -0.20000000000000    0.00000000000000    0.40000000000000             2
    0.00000000000000    0.12500000000000    0.40000000000000             2
    0.20000000000000    0.12500000000000    0.40000000000000             2
    0.40000000000000    0.12500000000000    0.40000000000000             2
   -0.40000000000000    0.12500000000000    0.40000000000000             2
   -0.20000000000000    0.12500000000000    0.40000000000000             2
    0.00000000000000    0.25000000000000    0.40000000000000             2
    0.20000000000000    0.25000000000000    0.40000000000000             2
    0.40000000000000    0.25000000000000    0.40000000000000             2
   -0.40000000000000    0.25000000000000    0.40000000000000             2
   -0.20000000000000    0.25000000000000    0.40000000000000             2
    0.00000000000000    0.37500000000000    0.40000000000000             2
    0.20000000000000    0.37500000000000    0.40000000000000             2
    0.40000000000000    0.37500000000000    0.40000000000000             2
   -0.40000000000000    0.37500000000000    0.40000000000000             2
   -0.20000000000000    0.37500000000000    0.40000000000000             2
    0.00000000000000    0.50000000000000    0.40000000000000             2
    0.20000000000000    0.50000000000000    0.40000000000000             2
    0.40000000000000    0.50000000000000    0.40000000000000             2
   -0.40000000000000    0.50000000000000    0.40000000000000             2
   -0.20000000000000    0.50000000000000    0.40000000000000             2
    0.00000000000000   -0.37500000000000    0.40000000000000             2
    0.20000000000000   -0.37500000000000    0.40000000000000             2
    0.40000000000000   -0.37500000000000    0.40000000000000             2
   -0.40000000000000   -0.37500000000000    0.40000000000000             2
   -0.20000000000000   -0.37500000000000    0.40000000000000             2
    0.00000000000000   -0.25000000000000    0.40000000000000             2
    0.20000000000000   -0.25000000000000    0.40000000000000             2
    0.40000000000000   -0.25000000000000    0.40000000000000             2
   -0.40000000000000   -0.25000000000000    0.40000000000000             2
   -0.20000000000000   -0.25000000000000    0.40000000000000             2
    0.00000000000000   -0.12500000000000    0.40000000000000             2
    0.20000000000000   -0.12500000000000    0.40000000000000             2
    0.40000000000000   -0.12500000000000    0.40000000000000             2
   -0.40000000000000   -0.12500000000000    0.40000000000000             2
   -0.20000000000000   -0.12500000000000    0.40000000000000             2
Tetrahedra
       598    0.00083333333333
         2         2         4         5        27
         2         1         2         4        27
         2         1         2        22        27
         2         2         5        27        28
         2         2        23        27        28
         2         2        22        23        27
         2         3         5         6        28
         2         2         3         5        28
         2         2         3        23        28
         2         3         6        28        29
         2         3        24        28        29
         2         3        23        24        28
         2         3         6         7        29
         2         3         3         6        29
         2         3         3        24        29
         2         3         7        29        30
         2         3        25        29        30
         2         3        24        25        29
         2         2         7         8        30
         2         2         3         7        30
         2         2         3        25        30
         2         2         8        30        31
         2         2        26        30        31
         2         2        25        26        30
         2         1         4         8        31
         2         1         2         8        31
         2         1         2        26        31
         2         1         4        27        31
         2         1        22        27        31
         2         1        22        26        31
         2         5         9        10        32
         2         4         5         9        32
         2         4         5        27        32
         2         5        10        32        33
         2         5        28        32        33
         2         5        27        28        32
         2         6        10        11        33
         2         5         6        10        33
         2         5         6        28        33
         2         6        11        33        34
         2         6        29        33        34
         2         6        28        29        33
         2         7        11        12        34
         2         6         7        11        34
         2         6         7        29        34
         2         7        12        34        35
         2         7        30        34        35
         2         7        29        30        34
         2         8        12        13        35
         2         7         8        12        35
         2         7         8        30        35
         2         8        13        35        36
         2         8        31        35        36
         2         8        30        31        35
         2         4         9        13        36
         2         4         8        13        36
         2         4         8        31        36
         2         4         9        32        36
         2         4        27        32        36
         2         4        27        31        36
         2        10        14        15        37
         2         9        10        14        37
         2         9        10        32        37
         2        10        15        37        38
         2        10        33        37        38
         2        10        32        33        37
         2        11        15        16        38
         2        10        11        15        38
         2        10        11        33        38
         2        11        16        38        39
         2        11        34        38        39
         2        11        33        34        38
         2        12        16        17        39
         2        11        12        16        39
         2        11        12        34        39
         2        12        17        39        40
         2        12        35        39        40
         2        12        34        35        39
         2        13        17        18        40
         2        12        13        17        40
         2        12        13        35        40
         2        13        18        40        41
         2        13        36        40        41
         2        13        35        36        40
         2         9        14        18        41
         2         9        13        18        41
         2         9        13        36        41
         2         9        14        37        41
         2         9        32        37        41
         2         9        32        36        41
         2        15        19        20        42
         2        14        15        19        42
         2        14        15        37        42
         2        15        20        42        43
         2        15        38        42        43
         2        15        37        38        42
         2        16        20        21        43
         2        15        16        20        43
         2        15        16        38        43
         2        16        21        43        44
         2        16        39        43        44
         2        16        38        39        43
         2        17        21        21        44
         2        16        17        21        44
         2        16        17        39        44
         2        17        21        44        45
         2        17        40        44        45
         2        17        39        40        44
         2        18        20        21        45
         2        17        18        21        45
         2        17        18        40        45
         2        18        20        45        46
         2        18        41        45        46
         2        18        40        41        45
         2        14        19        20        46
         2        14        18        20        46
         2        14        18        41        46
         2        14        19        42        46
         2        14        37        42        46
         2        14        37        41        46
         2        14        18        20        47
         2        14        19        20        47
         2        19        20        42        47
         2        18        20        47        48
         2        20        43        47        48
         2        20        42        43        47
         2        17        18        21        48
         2        18        20        21        48
         2        20        21        43        48
         2        17        21        48        49
         2        21        44        48        49
         2        21        43        44        48
         2        16        17        21        49
         2        17        21        21        49
         2        21        21        44        49
         2        16        21        49        50
         2        21        45        49        50
         2        21        44        45        49
         2        15        16        20        50
         2        16        20        21        50
         2        20        21        45        50
         2        15        20        50        51
         2        20        46        50        51
         2        20        45        46        50
         2        14        15        19        51
         2        15        19        20        51
         2        19        20        46        51
         2        14        19        47        51
         2        19        42        47        51
         2        19        42        46        51
         2         9        13        18        52
         2         9        14        18        52
         2        14        18        47        52
         2        13        18        52        53
         2        18        48        52        53
         2        18        47        48        52
         2        12        13        17        53
         2        13        17        18        53
         2        17        18        48        53
         2        12        17        53        54
         2        17        49        53        54
         2        17        48        49        53
         2        11        12        16        54
         2        12        16        17        54
         2        16        17        49        54
         2        11        16        54        55
         2        16        50        54        55
         2        16        49        50        54
         2        10        11        15        55
         2        11        15        16        55
         2        15        16        50        55
         2        10        15        55        56
         2        15        51        55        56
         2        15        50        51        55
         2         9        10        14        56
         2        10        14        15        56
         2        14        15        51        56
         2         9        14        52        56
         2        14        47        52        56
         2        14        47        51        56
         2         4         8        13        57
         2         4         9        13        57
         2         9        13        52        57
         2         8        13        57        58
         2        13        53        57        58
         2        13        52        53        57
         2         7         8        12        58
         2         8        12        13        58
         2        12        13        53        58
         2         7        12        58        59
         2        12        54        58        59
         2        12        53        54        58
         2         6         7        11        59
         2         7        11        12        59
         2        11        12        54        59
         2         6        11        59        60
         2        11        55        59        60
         2        11        54        55        59
         2         5         6        10        60
         2         6        10        11        60
         2        10        11        55        60
         2         5        10        60        61
         2        10        56        60        61
         2        10        55        56        60
         2         4         5         9        61
         2         5         9        10        61
         2         9        10        56        61
         2         4         9        57        61
         2         9        52        57        61
         2         9        52        56        61
         2         1         2         8        22
         2         1         4         8        22
         2         4         8        22        57
         2         2         8        22        23
         2         8        22        23        58
         2         8        22        57        58
         2         2         3         7        23
         2         2         7         8        23
         2         7         8        23        58
         2         3         7        23        24
         2         7        23        24        59
         2         7        23        58        59
         2         3         3         6        24
         2         3         6         7        24
         2         6         7        24        59
         2         3         6        24        25
         2         6        24        25        60
         2         6        24        59        60
         2         2         3         5        25
         2         3         5         6        25
         2         5         6        25        60
         2         2         5        25        26
         2         5        25        26        61
         2         5        25        60        61
         2         1         2         4        26
         2         2         4         5        26
         2         4         5        26        61
         2         1         4        22        26
         2         4        22        26        57
         2         4        26        57        61
         2        23        27        28        67
         2        22        23        27        67
         2        22        23        62        67
         2        23        28        67        68
         2        23        63        67        68
         2        23        62        63        67
         2        24        28        29        68
         2        23        24        28        68
         2        23        24        63        68
         2        24        29        68        69
         2        24        64        68        69
         2        24        63        64        68
         2        25        29        30        69
         2        24        25        29        69
         2        24        25        64        69
         2        25        30        69        70
         2        25        65        69        70
         2        25        64        65        69
         2        26        30        31        70
         2        25        26        30        70
         2        25        26        65        70
         2        26        31        70        71
         2        26        66        70        71
         2        26        65        66        70
         2        22        27        31        71
         2        22        26        31        71
         2        22        26        66        71
         2        22        27        67        71
         2        22        62        67        71
         2        22        62        66        71
         2        28        32        33        72
         2        27        28        32        72
         2        27        28        67        72
         2        28        33        72        73
         2        28        68        72        73
         2        28        67        68        72
         2        29        33        34        73
         2        28        29        33        73
         2        28        29        68        73
         2        29        34        73        74
         2        29        69        73        74
         2        29        68        69        73
         2        30        34        35        74
         2        29        30        34        74
         2        29        30        69        74
         2        30        35        74        75
         2        30        70        74        75
         2        30        69        70        74
         2        31        35        36        75
         2        30        31        35        75
         2        30        31        70        75
         2        31        36        75        76
         2        31        71        75        76
         2        31        70        71        75
         2        27        32        36        76
         2        27        31        36        76
         2        27        31        71        76
         2        27        32        72        76
         2        27        67        72        76
         2        27        67        71        76
         2        33        37        38        77
         2        32        33        37        77
         2        32        33        72        77
         2        33        38        77        78
         2        33        73        77        78
         2        33        72        73        77
         2        34        38        39        78
         2        33        34        38        78
         2        33        34        73        78
         2        34        39        78        79
         2        34        74        78        79
         2        34        73        74        78
         2        35        39        40        79
         2        34        35        39        79
         2        34        35        74        79
         2        35        40        79        80
         2        35        75        79        80
         2        35        74        75        79
         2        36        40        41        80
         2        35        36        40        80
         2        35        36        75        80
         2        36        41        80        81
         2        36        76        80        81
         2        36        75        76        80
         2        32        37        41        81
         2        32        36        41        81
         2        32        36        76        81
         2        32        37        77        81
         2        32        72        77        81
         2        32        72        76        81
         2        38        42        43        82
         2        37        38        42        82
         2        37        38        77        82
         2        38        43        82        83
         2        38        78        82        83
         2        38        77        78        82
         2        39        43        44        83
         2        38        39        43        83
         2        38        39        78        83
         2        39        44        83        84
         2        39        79        83        84
         2        39        78        79        83
         2        40        44        45        84
         2        39        40        44        84
         2        39        40        79        84
         2        40        45        84        85
         2        40        80        84        85
         2        40        79        80        84
         2        41        45        46        85
         2        40        41        45        85
         2        40        41        80        85
         2        41        46        85        86
         2        41        81        85        86
         2        41        80        81        85
         2        37        42        46        86
         2        37        41        46        86
         2        37        41        81        86
         2        37        42        82        86
         2        37        77        82        86
         2        37        77        81        86
         2        43        47        48        87
         2        42        43        47        87
         2        42        43        82        87
         2        43        48        87        88
         2        43        83        87        88
         2        43        82        83        87
         2        44        48        49        88
         2        43        44        48        88
         2        43        44        83        88
         2        44        49        88        89
         2        44        84        88        89
         2        44        83        84        88
         2        45        49        50        89
         2        44        45        49        89
         2        44        45        84        89
         2        45        50        89        90
         2        45        85        89        90
         2        45        84        85        89
         2        46        50        51        90
         2        45        46        50        90
         2        45        46        85        90
         2        46        51        90        91
         2        46        86        90        91
         2        46        85        86        90
         2        42        47        51        91
         2        42        46        51        91
         2        42        46        86        91
         2        42        47        87        91
         2        42        82        87        91
         2        42        82        86        91
         2        48        52        53        92
         2        47        48        52        92
         2        47        48        87        92
         2        48        53        92        93
         2        48        88        92        93
         2        48        87        88        92
         2        49        53        54        93
         2        48        49        53        93
         2        48        49        88        93
         2        49        54        93        94
         2        49        89        93        94
         2        49        88        89        93
         2        50        54        55        94
         2        49        50        54        94
         2        49        50        89        94
         2        50        55        94        95
         2        50        90        94        95
         2        50        89        90        94
         2        51        55        56        95
         2        50        51        55        95
         2        50        51        90        95
         2        51        56        95        96
         2        51        91        95        96
         2        51        90        91        95
         2        47        52        56        96
         2        47        51        56        96
         2        47        51        91        96
         2        47        52        92        96
         2        47        87        92        96
         2        47        87        91        96
         2        53        57        58        97
         2        52        53        57        97
         2        52        53        92        97
         2        53        58        97        98
         2        53        93        97        98
         2        53        92        93        97
         2        54        58        59        98
         2        53        54        58        98
         2        53        54        93        98
         2        54        59        98        99
         2        54        94        98        99
         2        54        93        94        98
         2        55        59        60        99
         2        54        55        59        99
         2        54        55        94        99
         2        55        60        99       100
         2        55        95        99       100