 running on   16 total cores
 distrk:  each k-point on   16 cores,    1 groups
 distr:  one band on    1 cores,   16 groups
 using from now: INCAR     
 vasp.5.4.4.18Apr17-6-g9f103f2a35 (build Nov 01 2019 12:17:22) complex          
  
 POSCAR found type information on POSCAR  Sr Nb H 
 POSCAR found :  3 types and       8 ions

 ----------------------------------------------------------------------------- 
|                                                                             |
|           W    W    AA    RRRRR   N    N  II  N    N   GGGG   !!!           |
|           W    W   A  A   R    R  NN   N  II  NN   N  G    G  !!!           |
|           W    W  A    A  R    R  N N  N  II  N N  N  G       !!!           |
|           W WW W  AAAAAA  RRRRR   N  N N  II  N  N N  G  GGG   !            |
|           WW  WW  A    A  R   R   N   NN  II  N   NN  G    G                |
|           W    W  A    A  R    R  N    N  II  N    N   GGGG   !!!           |
|                                                                             |
|      For optimal performance we recommend to set                            |
|        NCORE= 4 - approx SQRT( number of cores)                             |
|      NCORE specifies how many cores store one orbital (NPAR=cpu/NCORE).     |
|      This setting can  greatly improve the performance of VASP for DFT.     |
|      The default,   NCORE=1            might be grossly inefficient         |
|      on modern multi-core architectures or massively parallel machines.     |
|      Do your own testing !!!!                                               |
|      Unfortunately you need to use the default for GW and RPA calculations. |
|      (for HF NCORE is supported but not extensively tested yet)             |
|                                                                             |
 ----------------------------------------------------------------------------- 


 ----------------------------------------------------------------------------- 
|                                                                             |
|  ADVICE TO THIS USER RUNNING 'VASP/VAMP'   (HEAR YOUR MASTER'S VOICE ...):  |
|                                                                             |
|      You have a (more or less) 'small supercell' and for smaller cells      |
|      it is recommended  to use the reciprocal-space projection scheme!      |
|      The real space optimization is not  efficient for small cells and it   |
|      is also less accurate ...                                              |
|      Therefore set LREAL=.FALSE. in the  INCAR file                         |
|                                                                             |
 ----------------------------------------------------------------------------- 

 LDA part: xc-table for Pade appr. of Perdew
 POSCAR, INCAR and KPOINTS ok, starting setup
 FFT: planning ...
 WAVECAR not read
 entering main loop
       N       E                     dE             d eps       ncg     rms          rms(c)
DAV:   1     0.137123208941E+03    0.13712E+03   -0.12631E+04 12928   0.790E+02
DAV:   2    -0.269772346095E+02   -0.16410E+03   -0.15413E+03 15264   0.232E+02
DAV:   3    -0.340877855346E+02   -0.71106E+01   -0.70545E+01 22576   0.444E+01
DAV:   4    -0.341520742295E+02   -0.64289E-01   -0.64279E-01 14144   0.293E+00
DAV:   5    -0.341538402948E+02   -0.17661E-02   -0.17657E-02 19728   0.381E-01    0.332E+01
RMM:   6    -0.337989138721E+02    0.35493E+00   -0.29155E+00 13715   0.732E+00    0.140E+01
RMM:   7    -0.334965177670E+02    0.30240E+00   -0.44413E-01 13887   0.417E+00    0.667E+00
RMM:   8    -0.334809527011E+02    0.15565E-01   -0.78045E-02 13934   0.188E+00    0.388E+00
RMM:   9    -0.334823994180E+02   -0.14467E-02   -0.20846E-02 13763   0.909E-01    0.166E+00
RMM:  10    -0.334836937639E+02   -0.12943E-02   -0.64273E-03 13219   0.549E-01    0.643E-01
RMM:  11    -0.334837743814E+02   -0.80617E-04   -0.12944E-03 11862   0.251E-01
   1 F= -.33483774E+02 E0= -.33483774E+02  d E =-.334838E+02  mag=     0.0009
 curvature:   0.00 expect dE= 0.000E+00 dE for cont linesearch  0.000E+00
 trial: gam= 0.00000 g(F)=  0.305E-02 g(S)=  0.391E-01 ort = 0.000E+00 (trialstep = 0.100E+01)
 search vector abs. value=  0.422E-01
 bond charge predicted
       N       E                     dE             d eps       ncg     rms          rms(c)
DAV:   1    -0.336346843678E+02   -0.15099E+00   -0.22272E+00 19232   0.987E+00    0.386E+00
RMM:   2    -0.335243694010E+02    0.11031E+00   -0.19011E-01 13340   0.241E+00    0.843E-01
RMM:   3    -0.335096130289E+02    0.14756E-01   -0.18832E-02 14074   0.117E+00    0.799E-01
RMM:   4    -0.335071780545E+02    0.24350E-02   -0.85351E-03 13836   0.470E-01    0.783E-01
RMM:   5    -0.335076301789E+02   -0.45212E-03   -0.55697E-03 13379   0.410E-01    0.146E-01
RMM:   6    -0.335079307579E+02   -0.30058E-03   -0.35842E-03 12765   0.250E-01
   2 F= -.33507931E+02 E0= -.33507931E+02  d E =-.241564E-01  mag=    -0.0000
 trial-energy change:   -0.024156  1 .order   -0.027403   -0.042179   -0.012627
 step:   1.4273(harm=  1.4273)  dis= 0.01108  next Energy=   -33.513875 (dE=-0.301E-01)
 bond charge predicted
       N       E                     dE             d eps       ncg     rms          rms(c)
DAV:   1    -0.335318697887E+02   -0.24240E-01   -0.39036E-01 12960   0.415E+00    0.160E+00
RMM:   2    -0.335117329774E+02    0.20137E-01   -0.31805E-02 13228   0.101E+00    0.333E-01
RMM:   3    -0.335096636614E+02    0.20693E-02   -0.31971E-03 13090   0.495E-01    0.305E-01
RMM:   4    -0.335093461877E+02    0.31747E-03   -0.17356E-03 11886   0.251E-01
   3 F= -.33509346E+02 E0= -.33509346E+02  d E =-.255718E-01  mag=    -0.0000
 curvature:  -0.71 expect dE=-0.558E-02 dE for cont linesearch -0.731E-03
 trial: gam= 0.02961 g(F)=  0.576E-02 g(S)=  0.206E-02 ort = 0.658E-02 (trialstep = 0.109E+01)
 search vector abs. value=  0.825E-02
 bond charge predicted
       N       E                     dE             d eps       ncg     rms          rms(c)
DAV:   1    -0.335225270552E+02   -0.12863E-01   -0.39886E-01 16480   0.428E+00    0.779E-01
RMM:   2    -0.335150172926E+02    0.75098E-02   -0.20602E-02 13959   0.711E-01    0.253E-01
RMM:   3    -0.335139156588E+02    0.11016E-02   -0.16510E-03 12134   0.323E-01    0.269E-01
RMM:   4    -0.335137918082E+02    0.12385E-03   -0.12516E-03 11508   0.162E-01
   4 F= -.33513792E+02 E0= -.33513792E+02  d E =-.444562E-02  mag=     0.0000
 trial-energy change:   -0.004446  1 .order   -0.006329   -0.008704   -0.003954
 step:   1.9891(harm=  1.9891)  dis= 0.01901  next Energy=   -33.517321 (dE=-0.798E-02)
 bond charge predicted
       N       E                     dE             d eps       ncg     rms          rms(c)
DAV:   1    -0.335198237049E+02   -0.59080E-02   -0.27568E-01 17424   0.355E+00    0.570E-01
RMM:   2    -0.335147582569E+02    0.50654E-02   -0.14077E-02 13922   0.581E-01    0.223E-01
RMM:   3    -0.335140385716E+02    0.71969E-03   -0.82964E-04 10955   0.257E-01    0.234E-01
RMM:   4    -0.335137315973E+02    0.30697E-03   -0.70363E-04 10141   0.140E-01
   5 F= -.33513732E+02 E0= -.33513732E+02  d E =-.438541E-02  mag=    -0.0000
 curvature:  -1.02 expect dE=-0.927E-02 dE for cont linesearch -0.318E-05
 trial: gam= 1.14490 g(F)=  0.817E-02 g(S)=  0.896E-03 ort = 0.160E-03 (trialstep = 0.516E+00)
 search vector abs. value=  0.202E-01
 bond charge predicted
       N       E                     dE             d eps       ncg     rms          rms(c)
DAV:   1    -0.335187548259E+02   -0.47163E-02   -0.22451E-01 17360   0.314E+00    0.303E-01
RMM:   2    -0.335156839659E+02    0.30709E-02   -0.91071E-03 13222   0.451E-01    0.142E-01
RMM:   3    -0.335151863565E+02    0.49761E-03   -0.53857E-04 10275   0.255E-01    0.228E-01
RMM:   4    -0.335151321943E+02    0.54162E-04   -0.15589E-04  7868   0.898E-02
   6 F= -.33515132E+02 E0= -.33515132E+02  d E =-.140060E-02  mag=     0.0000
 trial-energy change:   -0.001401  1 .order   -0.003796   -0.004771   -0.002822
 step:   1.2631(harm=  1.2631)  dis= 0.01246  next Energy=   -33.519570 (dE=-0.584E-02)
 bond charge predicted
       N       E                     dE             d eps       ncg     rms          rms(c)
DAV:   1    -0.335191752161E+02   -0.39889E-02   -0.47189E-01 17088   0.456E+00    0.420E-01
RMM:   2    -0.335167203136E+02    0.24549E-02   -0.19033E-02 13514   0.653E-01    0.187E-01
RMM:   3    -0.335159534233E+02    0.76689E-03   -0.11214E-03 11333   0.378E-01    0.297E-01
RMM:   4    -0.335159006565E+02    0.52767E-04   -0.28968E-04  9500   0.116E-01
   7 F= -.33515901E+02 E0= -.33515901E+02  d E =-.216906E-02  mag=     0.0000
 curvature:  -1.38 expect dE=-0.365E-02 dE for cont linesearch -0.795E-05
 trial: gam= 0.28056 g(F)=  0.157E-02 g(S)=  0.107E-02 ort = 0.341E-03 (trialstep = 0.665E+00)
 search vector abs. value=  0.442E-02
 reached required accuracy - stopping structural energy minimisation
