       N       E                     dE             d eps       ncg     rms          rms(c)
DAV:   1     0.170112306307E+03    0.17011E+03   -0.12991E+04 24968   0.732E+02
DAV:   2    -0.309310278245E+02   -0.20104E+03   -0.19658E+03 29780   0.291E+02
DAV:   3    -0.451144417311E+02   -0.14183E+02   -0.14098E+02 38432   0.583E+01
DAV:   4    -0.459394354243E+02   -0.82499E+00   -0.82259E+00 38444   0.120E+01
DAV:   5    -0.459582339710E+02   -0.18799E-01   -0.18794E-01 37672   0.169E+00    0.374E+01
DAV:   6    -0.431744341682E+02    0.27838E+01   -0.70132E+00 34296   0.152E+01    0.169E+01
DAV:   7    -0.425392028256E+02    0.63523E+00   -0.21481E+00 34048   0.618E+00    0.904E+00
DAV:   8    -0.425154559280E+02    0.23747E-01   -0.65624E-01 34232   0.413E+00    0.280E+00
DAV:   9    -0.425137807763E+02    0.16752E-02   -0.76096E-02 36056   0.137E+00    0.567E-01
DAV:  10    -0.425139112097E+02   -0.13043E-03   -0.94825E-03 32816   0.520E-01    0.240E-01
DAV:  11    -0.425149881874E+02   -0.10770E-02   -0.10290E-03 28008   0.184E-01    0.858E-02
DAV:  12    -0.425152595283E+02   -0.27134E-03   -0.26487E-04 26528   0.838E-02    0.361E-02
DAV:  13    -0.425153165079E+02   -0.56980E-04   -0.80616E-05 21404   0.525E-02
   1 F= -.42515317E+02 E0= -.42515027E+02  d E =-.425153E+02
       N       E                     dE             d eps       ncg     rms          rms(c)
DAV:   1    -0.425141964401E+02    0.10631E-02   -0.55249E+00 25620   0.186E+01    0.201E+00
DAV:   2    -0.425570667436E+02   -0.42870E-01   -0.85322E-01 27164   0.516E+00    0.730E-01
DAV:   3    -0.425530177317E+02    0.40490E-02   -0.26270E-02 33448   0.940E-01    0.414E-01
DAV:   4    -0.425510269335E+02    0.19908E-02   -0.83737E-03 39612   0.542E-01    0.361E-01
DAV:   5    -0.425512311758E+02   -0.20424E-03   -0.98634E-04 32720   0.169E-01    0.248E-01
DAV:   6    -0.425513334240E+02   -0.10225E-03   -0.46784E-04 31660   0.962E-02    0.401E-02
DAV:   7    -0.425513400209E+02   -0.65969E-05   -0.13548E-04 21604   0.730E-02
   2 F= -.42551340E+02 E0= -.42551041E+02  d E =-.360235E-01
       N       E                     dE             d eps       ncg     rms          rms(c)
DAV:   1    -0.425512959169E+02    0.37507E-04   -0.32988E-02 27208   0.145E+00    0.138E-01
DAV:   2    -0.425515274347E+02   -0.23152E-03   -0.47814E-03 27224   0.392E-01    0.562E-02
DAV:   3    -0.425515046714E+02    0.22763E-04   -0.13074E-04 22092   0.709E-02
   3 F= -.42551505E+02 E0= -.42551205E+02  d E =-.361882E-01
       N       E                     dE             d eps       ncg     rms          rms(c)
DAV:   1    -0.426152887134E+02   -0.63761E-01   -0.26628E+00 23640   0.108E+01    0.179E+00
DAV:   2    -0.425890938175E+02    0.26195E-01   -0.24389E-01 33344   0.362E+00    0.710E-01
DAV:   3    -0.425827799853E+02    0.63138E-02   -0.17780E-02 33544   0.815E-01    0.355E-01
DAV:   4    -0.425804344799E+02    0.23455E-02   -0.75820E-03 36760   0.457E-01    0.355E-01
DAV:   5    -0.425806723659E+02   -0.23789E-03   -0.10078E-03 33960   0.134E-01    0.200E-01
DAV:   6    -0.425807094257E+02   -0.37060E-04   -0.57341E-04 36912   0.119E-01
   4 F= -.42580709E+02 E0= -.42580426E+02  d E =-.292048E-01
       N       E                     dE             d eps       ncg     rms          rms(c)
DAV:   1    -0.426406672486E+02   -0.59995E-01   -0.37534E+00 23632   0.129E+01    0.215E+00
DAV:   2    -0.426041443518E+02    0.36523E-01   -0.34076E-01 33360   0.432E+00    0.838E-01
DAV:   3    -0.425953213893E+02    0.88230E-02   -0.24359E-02 33528   0.964E-01    0.419E-01
DAV:   4    -0.425920646061E+02    0.32568E-02   -0.10741E-02 36760   0.547E-01    0.416E-01
DAV:   5    -0.425924004502E+02   -0.33584E-03   -0.14524E-03 36384   0.161E-01    0.238E-01
DAV:   6    -0.425924629062E+02   -0.62456E-04   -0.75129E-04 39976   0.134E-01
   5 F= -.42592463E+02 E0= -.42592203E+02  d E =-.409582E-01
       N       E                     dE             d eps       ncg     rms          rms(c)
DAV:   1    -0.426086354183E+02   -0.16235E-01   -0.17561E+00 25900   0.959E+00    0.730E-01
DAV:   2    -0.426135012011E+02   -0.48658E-02   -0.14215E-01 28480   0.232E+00    0.620E-01
DAV:   3    -0.426122637476E+02    0.12375E-02   -0.44697E-03 32864   0.411E-01    0.349E-01
DAV:   4    -0.426116100153E+02    0.65373E-03   -0.20320E-03 31768   0.298E-01    0.612E-02
DAV:   5    -0.426116164154E+02   -0.64001E-05   -0.23421E-04 21148   0.102E-01
   6 F= -.42611616E+02 E0= -.42611371E+02  d E =-.191535E-01
       N       E                     dE             d eps       ncg     rms          rms(c)
DAV:   1    -0.426138465164E+02   -0.22365E-02   -0.73130E-01 25600   0.619E+00    0.467E-01
DAV:   2    -0.426160326307E+02   -0.21861E-02   -0.60148E-02 28552   0.151E+00    0.387E-01
DAV:   3    -0.426155303848E+02    0.50225E-03   -0.19111E-03 33296   0.269E-01    0.214E-01
DAV:   4    -0.426152627567E+02    0.26763E-03   -0.82612E-04 31024   0.189E-01    0.398E-02
DAV:   5    -0.426152651885E+02   -0.24318E-05   -0.90562E-05 17228   0.658E-02
   7 F= -.42615265E+02 E0= -.42615031E+02  d E =-.228023E-01
       N       E                     dE             d eps       ncg     rms          rms(c)
DAV:   1    -0.426270108550E+02   -0.11748E-01   -0.65634E-01 27016   0.600E+00    0.533E-01
DAV:   2    -0.426291117363E+02   -0.21009E-02   -0.54839E-02 26692   0.136E+00    0.249E-01
DAV:   3    -0.426285933746E+02    0.51836E-03   -0.24828E-03 39140   0.284E-01    0.144E-01
DAV:   4    -0.426284831768E+02    0.11020E-03   -0.36448E-04 27288   0.126E-01    0.101E-01
DAV:   5    -0.426284851751E+02   -0.19983E-05   -0.60402E-05 16788   0.535E-02
   8 F= -.42628485E+02 E0= -.42628251E+02  d E =-.132200E-01
       N       E                     dE             d eps       ncg     rms          rms(c)
DAV:   1    -0.426323661527E+02   -0.38830E-02   -0.58838E+00 25128   0.179E+01    0.151E+00
DAV:   2    -0.426537901060E+02   -0.21424E-01   -0.52248E-01 26580   0.422E+00    0.743E-01
DAV:   3    -0.426493381653E+02    0.44519E-02   -0.20597E-02 35888   0.850E-01    0.446E-01
DAV:   4    -0.426481825180E+02    0.11556E-02   -0.43569E-03 42184   0.397E-01    0.295E-01
DAV:   5    -0.426482371966E+02   -0.54679E-04   -0.41121E-04 32476   0.108E-01
   9 F= -.42648237E+02 E0= -.42647992E+02  d E =-.329720E-01
       N       E                     dE             d eps       ncg     rms          rms(c)
DAV:   1    -0.426637202523E+02   -0.15538E-01   -0.11021E+00 27008   0.748E+00    0.551E-01
DAV:   2    -0.426671776349E+02   -0.34574E-02   -0.75360E-02 26900   0.158E+00    0.268E-01
DAV:   3    -0.426664392755E+02    0.73836E-03   -0.27486E-03 35380   0.313E-01    0.144E-01
DAV:   4    -0.426662393774E+02    0.19990E-03   -0.63302E-04 31616   0.172E-01    0.685E-02
DAV:   5    -0.426662483500E+02   -0.89726E-05   -0.65257E-05 16808   0.557E-02
  10 F= -.42666248E+02 E0= -.42665994E+02  d E =-.180112E-01
       N       E                     dE             d eps       ncg     rms          rms(c)
DAV:   1    -0.426737511189E+02   -0.75117E-02   -0.98920E+00 27008   0.224E+01    0.170E+00
DAV:   2    -0.427059146056E+02   -0.32163E-01   -0.67984E-01 26744   0.471E+00    0.788E-01
DAV:   3    -0.426994198784E+02    0.64947E-02   -0.24237E-02 35132   0.927E-01    0.416E-01
DAV:   4    -0.426977724328E+02    0.16474E-02   -0.60458E-03 38892   0.515E-01    0.220E-01
DAV:   5    -0.426978447818E+02   -0.72349E-04   -0.56882E-04 30692   0.149E-01
  11 F= -.42697845E+02 E0= -.42697629E+02  d E =-.496076E-01
       N       E                     dE             d eps       ncg     rms          rms(c)
DAV:   1    -0.426957175564E+02    0.20549E-02   -0.18602E+00 27016   0.977E+00    0.730E-01
DAV:   2    -0.427018386912E+02   -0.61211E-02   -0.12821E-01 26896   0.206E+00    0.350E-01
DAV:   3    -0.427006527895E+02    0.11859E-02   -0.46084E-03 35444   0.407E-01    0.187E-01
DAV:   4    -0.427003554770E+02    0.29731E-03   -0.10985E-03 36548   0.222E-01    0.973E-02
DAV:   5    -0.427003709169E+02   -0.15440E-04   -0.92058E-05 17004   0.666E-02
  12 F= -.42700371E+02 E0= -.42700210E+02  d E =-.521337E-01
       N       E                     dE             d eps       ncg     rms          rms(c)
DAV:   1    -0.427068437669E+02   -0.64883E-02   -0.20104E-01 27520   0.308E+00    0.203E-01
DAV:   2    -0.427073377349E+02   -0.49397E-03   -0.10989E-02 26984   0.614E-01    0.102E-01
DAV:   3    -0.427072386834E+02    0.99051E-04   -0.37715E-04 33188   0.117E-01
  13 F= -.42707239E+02 E0= -.42707108E+02  d E =-.686777E-02
       N       E                     dE             d eps       ncg     rms          rms(c)
DAV:   1    -0.427220506344E+02   -0.14713E-01   -0.18063E+00 27024   0.920E+00    0.618E-01
DAV:   2    -0.427263293673E+02   -0.42787E-02   -0.98444E-02 26940   0.184E+00    0.311E-01
DAV:   3    -0.427253943332E+02    0.93503E-03   -0.34473E-03 34488   0.352E-01    0.175E-01
DAV:   4    -0.427250849117E+02    0.30942E-03   -0.89995E-04 31712   0.217E-01    0.571E-02
DAV:   5    -0.427250941843E+02   -0.92726E-05   -0.88859E-05 16808   0.658E-02
  14 F= -.42725094E+02 E0= -.42725054E+02  d E =-.247233E-01
       N       E                     dE             d eps       ncg     rms          rms(c)
DAV:   1    -0.427347605921E+02   -0.96757E-02   -0.72326E+00 26992   0.184E+01    0.124E+00
DAV:   2    -0.427529324935E+02   -0.18172E-01   -0.39660E-01 26892   0.367E+00    0.618E-01
DAV:   3    -0.427492786406E+02    0.36539E-02   -0.13467E-02 34740   0.697E-01    0.352E-01
DAV:   4    -0.427480419492E+02    0.12367E-02   -0.36665E-03 33612   0.428E-01    0.118E-01
DAV:   5    -0.427480775798E+02   -0.35631E-04   -0.38281E-04 27048   0.127E-01
  15 F= -.42748078E+02 E0= -.42748102E+02  d E =-.477067E-01
       N       E                     dE             d eps       ncg     rms          rms(c)
DAV:   1    -0.426674591855E+02    0.80583E-01   -0.28571E+01 23960   0.367E+01    0.251E+00
DAV:   2    -0.427532423204E+02   -0.85783E-01   -0.17141E+00 26868   0.773E+00    0.130E+00
DAV:   3    -0.427394340532E+02    0.13808E-01   -0.56293E-02 33968   0.140E+00    0.770E-01
DAV:   4    -0.427338648984E+02    0.55692E-02   -0.16802E-02 32680   0.913E-01    0.245E-01
DAV:   5    -0.427340382679E+02   -0.17337E-03   -0.18718E-03 30288   0.272E-01    0.137E-01
DAV:   6    -0.427340674934E+02   -0.29226E-04   -0.23933E-04 21896   0.117E-01
  16 F= -.42734067E+02 E0= -.42734001E+02  d E =-.336966E-01
       N       E                     dE             d eps       ncg     rms          rms(c)
DAV:   1    -0.427277956495E+02    0.62426E-02   -0.13602E+01 27008   0.254E+01    0.170E+00
DAV:   2    -0.427626193414E+02   -0.34824E-01   -0.74792E-01 26928   0.514E+00    0.886E-01
DAV:   3    -0.427556720631E+02    0.69473E-02   -0.24514E-02 35352   0.940E-01    0.501E-01
DAV:   4    -0.427531888808E+02    0.24832E-02   -0.72019E-03 32996   0.604E-01    0.150E-01
DAV:   5    -0.427532535032E+02   -0.64622E-04   -0.80806E-04 29716   0.183E-01
  17 F= -.42753254E+02 E0= -.42753257E+02  d E =-.528826E-01
       N       E                     dE             d eps       ncg     rms          rms(c)
DAV:   1    -0.427664881135E+02   -0.13299E-01   -0.43122E-01 27024   0.506E+00    0.368E-01
DAV:   2    -0.427691484626E+02   -0.26603E-02   -0.39828E-02 26020   0.116E+00    0.173E-01
DAV:   3    -0.427690477183E+02    0.10074E-03   -0.11708E-03 37600   0.195E-01    0.101E-01
DAV:   4    -0.427690073804E+02    0.40338E-04   -0.13697E-04 17592   0.902E-02
  18 F= -.42769007E+02 E0= -.42769003E+02  d E =-.157539E-01
       N       E                     dE             d eps       ncg     rms          rms(c)
DAV:   1    -0.427756636486E+02   -0.66159E-02   -0.38888E+00 27008   0.152E+01    0.106E+00
DAV:   2    -0.427997675752E+02   -0.24104E-01   -0.36006E-01 26224   0.350E+00    0.541E-01
DAV:   3    -0.427987899236E+02    0.97765E-03   -0.10588E-02 39640   0.579E-01    0.329E-01
DAV:   4    -0.427984504384E+02    0.33949E-03   -0.18875E-03 40224   0.266E-01    0.205E-01
DAV:   5    -0.427985106789E+02   -0.60241E-04   -0.29190E-04 27240   0.999E-02
  19 F= -.42798511E+02 E0= -.42798472E+02  d E =-.452572E-01
       N       E                     dE             d eps       ncg     rms          rms(c)
DAV:   1    -0.426757527415E+02    0.12270E+00   -0.15404E+01 23648   0.304E+01    0.194E+00
DAV:   2    -0.427861477208E+02   -0.11039E+00   -0.15738E+00 26240   0.734E+00    0.111E+00
DAV:   3    -0.427824938961E+02    0.36538E-02   -0.38381E-02 36084   0.120E+00    0.702E-01
DAV:   4    -0.427802243910E+02    0.22695E-02   -0.94311E-03 39496   0.575E-01    0.385E-01
DAV:   5    -0.427804220719E+02   -0.19768E-03   -0.13602E-03 37888   0.188E-01    0.194E-01
DAV:   6    -0.427804824130E+02   -0.60341E-04   -0.38486E-04 31044   0.904E-02
  20 F= -.42780482E+02 E0= -.42780362E+02  d E =-.272289E-01
       N       E                     dE             d eps       ncg     rms          rms(c)
DAV:   1    -0.427606412591E+02    0.19781E-01   -0.69060E+00 26784   0.202E+01    0.161E+00
DAV:   2    -0.428062752619E+02   -0.45634E-01   -0.65650E-01 25784   0.463E+00    0.640E-01
DAV:   3    -0.428041703093E+02    0.21050E-02   -0.19123E-02 38852   0.792E-01    0.347E-01
DAV:   4    -0.428036172880E+02    0.55302E-03   -0.31132E-03 39220   0.337E-01    0.250E-01
DAV:   5    -0.428037494252E+02   -0.13214E-03   -0.62601E-04 35064   0.141E-01    0.106E-01
DAV:   6    -0.428037807559E+02   -0.31331E-04   -0.79855E-05 16884   0.542E-02
  21 F= -.42803781E+02 E0= -.42803711E+02  d E =-.505273E-01
       N       E                     dE             d eps       ncg     rms          rms(c)
DAV:   1    -0.428177069410E+02   -0.13958E-01   -0.29743E-01 23632   0.336E+00    0.226E-01
DAV:   2    -0.428182820235E+02   -0.57508E-03   -0.10479E-02 30944   0.735E-01    0.127E-01
DAV:   3    -0.428182146294E+02    0.67394E-04   -0.43842E-04 29388   0.115E-01
  22 F= -.42818215E+02 E0= -.42818134E+02  d E =-.144339E-01
       N       E                     dE             d eps       ncg     rms          rms(c)
DAV:   1    -0.428500168599E+02   -0.31735E-01   -0.26532E+00 23632   0.101E+01    0.667E-01
DAV:   2    -0.428551439561E+02   -0.51271E-02   -0.93402E-02 30744   0.219E+00    0.368E-01
DAV:   3    -0.428546182473E+02    0.52571E-03   -0.43180E-03 38660   0.341E-01    0.196E-01
DAV:   4    -0.428544545996E+02    0.16365E-03   -0.51469E-04 30248   0.147E-01    0.717E-02
DAV:   5    -0.428544581855E+02   -0.35859E-05   -0.60653E-05 16844   0.529E-02
  23 F= -.42854458E+02 E0= -.42854348E+02  d E =-.506774E-01
       N       E                     dE             d eps       ncg     rms          rms(c)
DAV:   1    -0.428778060546E+02   -0.23351E-01   -0.10610E+01 23632   0.201E+01    0.129E+00
DAV:   2    -0.428991215916E+02   -0.21316E-01   -0.37659E-01 30520   0.438E+00    0.726E-01
DAV:   3    -0.428971898633E+02    0.19317E-02   -0.16855E-02 38736   0.677E-01    0.385E-01
DAV:   4    -0.428964772782E+02    0.71259E-03   -0.20269E-03 30832   0.292E-01    0.139E-01
DAV:   5    -0.428964972431E+02   -0.19965E-04   -0.34730E-04 30392   0.106E-01
  24 F= -.42896497E+02 E0= -.42896328E+02  d E =-.927165E-01
       N       E                     dE             d eps       ncg     rms          rms(c)
DAV:   1    -0.427843609911E+02    0.11212E+00   -0.41859E+01 23632   0.398E+01    0.252E+00
DAV:   2    -0.428729800227E+02   -0.88619E-01   -0.15383E+00 29904   0.877E+00    0.148E+00
DAV:   3    -0.428662120672E+02    0.67680E-02   -0.69565E-02 38620   0.137E+00    0.794E-01
DAV:   4    -0.428628164514E+02    0.33956E-02   -0.85076E-03 30952   0.598E-01    0.281E-01
DAV:   5    -0.428628661196E+02   -0.49668E-04   -0.17105E-03 40588   0.226E-01    0.141E-01
DAV:   6    -0.428628716537E+02   -0.55341E-05   -0.16494E-04 19424   0.831E-02
  25 F= -.42862872E+02 E0= -.42862590E+02  d E =-.590909E-01
       N       E                     dE             d eps       ncg     rms          rms(c)
DAV:   1    -0.428658991122E+02   -0.30330E-02   -0.22075E+01 23632   0.289E+01    0.196E+00
DAV:   2    -0.429085747104E+02   -0.42676E-01   -0.78945E-01 30000   0.628E+00    0.102E+00
DAV:   3    -0.429043559498E+02    0.42188E-02   -0.34549E-02 38784   0.994E-01    0.546E-01
DAV:   4    -0.429030336878E+02    0.13223E-02   -0.38887E-03 31264   0.391E-01    0.218E-01
DAV:   5    -0.429030864960E+02   -0.52808E-04   -0.87286E-04 40380   0.171E-01
  26 F= -.42903086E+02 E0= -.42902878E+02  d E =-.993057E-01
       N       E                     dE             d eps       ncg     rms          rms(c)
DAV:   1    -0.429626434273E+02   -0.59610E-01   -0.25575E+00 26944   0.104E+01    0.138E+00
DAV:   2    -0.429537024882E+02    0.89409E-02   -0.13285E-01 31376   0.248E+00    0.453E-01
DAV:   3    -0.429505497862E+02    0.31527E-02   -0.11552E-02 39912   0.583E-01    0.275E-01
DAV:   4    -0.429500560870E+02    0.49370E-03   -0.24473E-03 42452   0.270E-01    0.291E-01
DAV:   5    -0.429501883333E+02   -0.13225E-03   -0.18991E-04 25972   0.618E-02    0.135E-01
DAV:   6    -0.429502247918E+02   -0.36459E-04   -0.38795E-04 28720   0.105E-01
  27 F= -.42950225E+02 E0= -.42949991E+02  d E =-.471383E-01
       N       E                     dE             d eps       ncg     rms          rms(c)
DAV:   1    -0.431507241621E+02   -0.20054E+00   -0.22966E+01 27008   0.313E+01    0.444E+00
DAV:   2    -0.430655467777E+02    0.85177E-01   -0.12071E+00 32464   0.755E+00    0.136E+00
DAV:   3    -0.430370831509E+02    0.28464E-01   -0.10140E-01 39652   0.171E+00    0.793E-01
DAV:   4    -0.430326914324E+02    0.43917E-02   -0.23568E-02 43264   0.817E-01    0.840E-01
DAV:   5    -0.430338894093E+02   -0.11980E-02   -0.18985E-03 33488   0.195E-01    0.379E-01
DAV:   6    -0.430342365486E+02   -0.34714E-03   -0.33818E-03 45196   0.293E-01    0.126E-01
DAV:   7    -0.430342493455E+02   -0.12797E-04   -0.19251E-04 23464   0.639E-02
  28 F= -.43034249E+02 E0= -.43034006E+02  d E =-.131163E+00
       N       E                     dE             d eps       ncg     rms          rms(c)
DAV:   1    -0.430668724923E+02   -0.32636E-01   -0.47464E+00 27016   0.143E+01    0.201E+00
DAV:   2    -0.430482741647E+02    0.18598E-01   -0.25327E-01 32232   0.353E+00    0.627E-01
DAV:   3    -0.430423859368E+02    0.58882E-02   -0.20739E-02 39760   0.795E-01    0.372E-01
DAV:   4    -0.430413375517E+02    0.10484E-02   -0.49302E-03 42528   0.375E-01    0.396E-01
DAV:   5    -0.430415882898E+02   -0.25074E-03   -0.41219E-04 29800   0.914E-02    0.175E-01
DAV:   6    -0.430416554542E+02   -0.67164E-04   -0.74130E-04 39256   0.135E-01
  29 F= -.43041655E+02 E0= -.43041424E+02  d E =-.138569E+00
       N       E                     dE             d eps       ncg     rms          rms(c)
DAV:   1    -0.430746982550E+02   -0.33110E-01   -0.38105E+00 27008   0.136E+01    0.792E-01
DAV:   2    -0.430916829137E+02   -0.16985E-01   -0.23902E-01 26856   0.272E+00    0.444E-01
DAV:   3    -0.430906237950E+02    0.10591E-02   -0.62948E-03 36448   0.450E-01    0.247E-01
DAV:   4    -0.430901404119E+02    0.48338E-03   -0.15777E-03 33960   0.287E-01    0.528E-02
DAV:   5    -0.430901486423E+02   -0.82304E-05   -0.14085E-04 19048   0.856E-02
  30 F= -.43090149E+02 E0= -.43089919E+02  d E =-.484932E-01
       N       E                     dE             d eps       ncg     rms          rms(c)
DAV:   1    -0.430468251229E+02    0.43315E-01   -0.20013E+01 26608   0.312E+01    0.180E+00
DAV:   2    -0.431397742348E+02   -0.92949E-01   -0.12803E+00 26976   0.632E+00    0.102E+00
DAV:   3    -0.431342966152E+02    0.54776E-02   -0.32404E-02 36368   0.100E+00    0.600E-01
DAV:   4    -0.431314541244E+02    0.28425E-02   -0.93537E-03 33768   0.684E-01    0.125E-01
DAV:   5    -0.431315149702E+02   -0.60846E-04   -0.95659E-04 29192   0.206E-01
  31 F= -.43131515E+02 E0= -.43131274E+02  d E =-.898595E-01
       N       E                     dE             d eps       ncg     rms          rms(c)
DAV:   1    -0.431842191179E+02   -0.52765E-01   -0.37031E+00 24548   0.129E+01    0.124E+00
DAV:   2    -0.431880118133E+02   -0.37927E-02   -0.19758E-01 29704   0.308E+00    0.523E-01
DAV:   3    -0.431855481498E+02    0.24637E-02   -0.10212E-02 35524   0.591E-01    0.370E-01
DAV:   4    -0.431850546080E+02    0.49354E-03   -0.27720E-03 42112   0.288E-01    0.295E-01
DAV:   5    -0.431851387243E+02   -0.84116E-04   -0.20161E-04 25024   0.777E-02
  32 F= -.43185139E+02 E0= -.43184891E+02  d E =-.536238E-01
       N       E                     dE             d eps       ncg     rms          rms(c)
DAV:   1    -0.432172690142E+02   -0.32214E-01   -0.13984E+01 23632   0.250E+01    0.223E+00
DAV:   2    -0.432335745547E+02   -0.16306E-01   -0.76461E-01 29560   0.604E+00    0.100E+00
DAV:   3    -0.432242022500E+02    0.93723E-02   -0.37909E-02 34336   0.117E+00    0.725E-01
DAV:   4    -0.432219441117E+02    0.22581E-02   -0.10685E-02 41604   0.564E-01    0.574E-01
DAV:   5    -0.432222611867E+02   -0.31708E-03   -0.79261E-04 29300   0.145E-01    0.271E-01
DAV:   6    -0.432221955660E+02    0.65621E-04   -0.12105E-03 41120   0.175E-01    0.762E-02
DAV:   7    -0.432221995897E+02   -0.40237E-05   -0.68000E-05 17692   0.430E-02
  33 F= -.43222200E+02 E0= -.43221952E+02  d E =-.906846E-01
       N       E                     dE             d eps       ncg     rms          rms(c)
DAV:   1    -0.432567538669E+02   -0.34558E-01   -0.65613E+00 25776   0.188E+01    0.135E+00
DAV:   2    -0.432903420129E+02   -0.33588E-01   -0.52694E-01 26936   0.430E+00    0.615E-01
DAV:   3    -0.432876844481E+02    0.26576E-02   -0.15196E-02 35780   0.716E-01    0.336E-01
DAV:   4    -0.432868343433E+02    0.85010E-03   -0.35479E-03 39560   0.376E-01    0.190E-01
DAV:   5    -0.432868973203E+02   -0.62977E-04   -0.38973E-04 28684   0.110E-01
  34 F= -.43286897E+02 E0= -.43286628E+02  d E =-.646977E-01
       N       E                     dE             d eps       ncg     rms          rms(c)
DAV:   1    -0.432545269327E+02    0.32307E-01   -0.14881E+01 26904   0.284E+01    0.214E+00
DAV:   2    -0.433269009469E+02   -0.72374E-01   -0.11621E+00 26960   0.637E+00    0.910E-01
DAV:   3    -0.433207570097E+02    0.61439E-02   -0.35103E-02 36788   0.108E+00    0.499E-01
DAV:   4    -0.433190511534E+02    0.17059E-02   -0.75163E-03 40168   0.549E-01    0.298E-01
DAV:   5    -0.433191900377E+02   -0.13888E-03   -0.84449E-04 33948   0.164E-01    0.114E-01
DAV:   6    -0.433192195599E+02   -0.29522E-04   -0.98063E-05 17080   0.653E-02
  35 F= -.43319220E+02 E0= -.43318939E+02  d E =-.970200E-01
       N       E                     dE             d eps       ncg     rms          rms(c)
DAV:   1    -0.433594751314E+02   -0.40285E-01   -0.57735E+00 26008   0.162E+01    0.121E+00
DAV:   2    -0.433688278541E+02   -0.93527E-02   -0.29023E-01 29984   0.348E+00    0.627E-01
DAV:   3    -0.433638678950E+02    0.49600E-02   -0.11340E-02 34092   0.635E-01    0.339E-01
DAV:   4    -0.433626908600E+02    0.11770E-02   -0.40782E-03 35680   0.410E-01    0.166E-01
DAV:   5    -0.433627343313E+02   -0.43471E-04   -0.42134E-04 27128   0.135E-01
  36 F= -.43362734E+02 E0= -.43362465E+02  d E =-.435148E-01
       N       E                     dE             d eps       ncg     rms          rms(c)
DAV:   1    -0.433668539827E+02   -0.41631E-02   -0.13533E+00 26764   0.786E+00    0.597E-01
DAV:   2    -0.433689527735E+02   -0.20988E-02   -0.67459E-02 30032   0.168E+00    0.308E-01
DAV:   3    -0.433677965584E+02    0.11562E-02   -0.27020E-03 34520   0.309E-01    0.166E-01
DAV:   4    -0.433675327905E+02    0.26377E-03   -0.94507E-04 34696   0.197E-01    0.809E-02
DAV:   5    -0.433675435002E+02   -0.10710E-04   -0.84047E-05 16832   0.666E-02
  37 F= -.43367544E+02 E0= -.43367281E+02  d E =-.483239E-01
       N       E                     dE             d eps       ncg     rms          rms(c)
DAV:   1    -0.433544142491E+02    0.13119E-01   -0.93079E+00 27008   0.235E+01    0.153E+00
DAV:   2    -0.434108407376E+02   -0.56426E-01   -0.88427E-01 26248   0.518E+00    0.759E-01
DAV:   3    -0.434062883793E+02    0.45524E-02   -0.19557E-02 37236   0.876E-01    0.421E-01
DAV:   4    -0.434041902799E+02    0.20981E-02   -0.54608E-03 33748   0.518E-01    0.121E-01
DAV:   5    -0.434042146543E+02   -0.24374E-04   -0.67144E-04 29408   0.165E-01
  38 F= -.43404215E+02 E0= -.43403973E+02  d E =-.366712E-01
       N       E                     dE             d eps       ncg     rms          rms(c)
DAV:   1    -0.434041463543E+02    0.43926E-04   -0.24401E-02 29620   0.122E+00    0.779E-02
DAV:   2    -0.434043186316E+02   -0.17228E-03   -0.24608E-03 27224   0.273E-01    0.422E-02
DAV:   3    -0.434043054532E+02    0.13178E-04   -0.42631E-05 18324   0.467E-02
  39 F= -.43404305E+02 E0= -.43404065E+02  d E =-.367620E-01
       N       E                     dE             d eps       ncg     rms          rms(c)
DAV:   1    -0.434400531306E+02   -0.35734E-01   -0.48143E+00 23632   0.137E+01    0.119E+00
DAV:   2    -0.434433064728E+02   -0.32533E-02   -0.19231E-01 30464   0.319E+00    0.588E-01
DAV:   3    -0.434397561037E+02    0.35504E-02   -0.99616E-03 37916   0.586E-01    0.304E-01
DAV:   4    -0.434388369579E+02    0.91915E-03   -0.25422E-03 34572   0.317E-01    0.186E-01
DAV:   5    -0.434388579930E+02   -0.21035E-04   -0.28673E-04 26768   0.100E-01
  40 F= -.43438858E+02 E0= -.43438616E+02  d E =-.345525E-01
       N       E                     dE             d eps       ncg     rms          rms(c)
DAV:   1    -0.434453323189E+02   -0.64954E-02   -0.31302E+00 23632   0.111E+01    0.941E-01
DAV:   2    -0.434474142351E+02   -0.20819E-02   -0.12381E-01 30432   0.256E+00    0.478E-01
DAV:   3    -0.434451266172E+02    0.22876E-02   -0.63660E-03 37744   0.465E-01    0.238E-01
DAV:   4    -0.434445465670E+02    0.58005E-03   -0.16288E-03 34904   0.254E-01    0.146E-01
DAV:   5    -0.434445571860E+02   -0.10619E-04   -0.16341E-04 21112   0.804E-02
  41 F= -.43444557E+02 E0= -.43444314E+02  d E =-.402517E-01
       N       E                     dE             d eps       ncg     rms          rms(c)
DAV:   1    -0.434350349654E+02    0.95116E-02   -0.76551E+00 26784   0.208E+01    0.137E+00
DAV:   2    -0.434724286253E+02   -0.37394E-01   -0.60042E-01 26412   0.462E+00    0.648E-01
DAV:   3    -0.434695189954E+02    0.29096E-02   -0.15432E-02 37300   0.761E-01    0.346E-01
DAV:   4    -0.434681611189E+02    0.13579E-02   -0.39527E-03 33864   0.437E-01    0.918E-02
DAV:   5    -0.434681893033E+02   -0.28184E-04   -0.48698E-04 29732   0.142E-01
  42 F= -.43468189E+02 E0= -.43467931E+02  d E =-.236321E-01
       N       E                     dE             d eps       ncg     rms          rms(c)
DAV:   1    -0.434646068480E+02    0.35543E-02   -0.13055E+00 26996   0.860E+00    0.555E-01
DAV:   2    -0.434710094611E+02   -0.64026E-02   -0.10252E-01 26680   0.191E+00    0.272E-01
DAV:   3    -0.434705155858E+02    0.49388E-03   -0.26575E-03 37300   0.316E-01    0.145E-01
DAV:   4    -0.434702881107E+02    0.22748E-03   -0.66869E-04 30520   0.184E-01    0.386E-02
DAV:   5    -0.434702946157E+02   -0.65050E-05   -0.82802E-05 16828   0.664E-02
  43 F= -.43470295E+02 E0= -.43470030E+02  d E =-.257374E-01
       N       E                     dE             d eps       ncg     rms          rms(c)
DAV:   1    -0.434746935674E+02   -0.44055E-02   -0.54384E+00 25664   0.166E+01    0.141E+00
DAV:   2    -0.434891820629E+02   -0.14488E-01   -0.37953E-01 28872   0.396E+00    0.606E-01
DAV:   3    -0.434845491818E+02    0.46329E-02   -0.14340E-02 36640   0.707E-01    0.319E-01
DAV:   4    -0.434833180586E+02    0.12311E-02   -0.37290E-03 34856   0.395E-01    0.166E-01
DAV:   5    -0.434833720747E+02   -0.54016E-04   -0.46177E-04 30532   0.131E-01
  44 F= -.43483372E+02 E0= -.43483049E+02  d E =-.130775E-01
       N       E                     dE             d eps       ncg     rms          rms(c)
DAV:   1    -0.434841667948E+02   -0.84874E-03   -0.24693E-01 25696   0.354E+00    0.297E-01
DAV:   2    -0.434848125485E+02   -0.64575E-03   -0.17121E-02 29020   0.848E-01    0.128E-01
DAV:   3    -0.434845948177E+02    0.21773E-03   -0.62425E-04 31884   0.154E-01    0.682E-02
DAV:   4    -0.434845333640E+02    0.61454E-04   -0.13445E-04 16356   0.887E-02
  45 F= -.43484533E+02 E0= -.43484224E+02  d E =-.142387E-01
       N       E                     dE             d eps       ncg     rms          rms(c)
DAV:   1    -0.434800729637E+02    0.45219E-02   -0.33841E+00 27008   0.141E+01    0.900E-01
DAV:   2    -0.434985665538E+02   -0.18494E-01   -0.29862E-01 24984   0.317E+00    0.424E-01
DAV:   3    -0.434970836946E+02    0.14829E-02   -0.75896E-03 37244   0.534E-01    0.224E-01
DAV:   4    -0.434964434351E+02    0.64026E-03   -0.19990E-03 33488   0.291E-01    0.600E-02
DAV:   5    -0.434964553515E+02   -0.11916E-04   -0.20704E-04 22420   0.918E-02
  46 F= -.43496455E+02 E0= -.43496106E+02  d E =-.119220E-01
       N       E                     dE             d eps       ncg     rms          rms(c)
DAV:   1    -0.434961036941E+02    0.33974E-03   -0.12763E-01 27224   0.275E+00    0.171E-01
DAV:   2    -0.434968167531E+02   -0.71306E-03   -0.11393E-02 26304   0.619E-01    0.853E-02
DAV:   3    -0.434967585161E+02    0.58237E-04   -0.26893E-04 29960   0.104E-01
  47 F= -.43496759E+02 E0= -.43496402E+02  d E =-.122252E-01
       N       E                     dE             d eps       ncg     rms          rms(c)
DAV:   1    -0.434993183141E+02   -0.25016E-02   -0.24518E+00 26296   0.116E+01    0.882E-01
DAV:   2    -0.435081539261E+02   -0.88356E-02   -0.19240E-01 26968   0.273E+00    0.429E-01
DAV:   3    -0.435066526589E+02    0.15013E-02   -0.67007E-03 36828   0.471E-01    0.230E-01
DAV:   4    -0.435061236029E+02    0.52906E-03   -0.16024E-03 36344   0.237E-01    0.123E-01
DAV:   5    -0.435061200018E+02    0.36011E-05   -0.17493E-04 21132   0.817E-02
  48 F= -.43506120E+02 E0= -.43505743E+02  d E =-.936149E-02
       N       E                     dE             d eps       ncg     rms          rms(c)
DAV:   1    -0.435057277135E+02    0.39589E-03   -0.21144E-01 27148   0.340E+00    0.263E-01
DAV:   2    -0.435064794162E+02   -0.75170E-03   -0.16329E-02 27008   0.790E-01    0.126E-01
DAV:   3    -0.435063504661E+02    0.12895E-03   -0.55207E-04 33200   0.137E-01    0.666E-02
DAV:   4    -0.435063048495E+02    0.45617E-04   -0.11035E-04 16872   0.754E-02
  49 F= -.43506305E+02 E0= -.43505922E+02  d E =-.954633E-02
       N       E                     dE             d eps       ncg     rms          rms(c)
DAV:   1    -0.435115098479E+02   -0.51594E-02   -0.15239E+00 27008   0.893E+00    0.796E-01
DAV:   2    -0.435133683291E+02   -0.18585E-02   -0.11147E-01 27860   0.218E+00    0.362E-01
DAV:   3    -0.435124099412E+02    0.95839E-03   -0.55242E-03 38980   0.407E-01    0.191E-01
DAV:   4    -0.435121236187E+02    0.28632E-03   -0.11594E-03 40928   0.188E-01    0.164E-01
DAV:   5    -0.435121459318E+02   -0.22313E-04   -0.11647E-04 20456   0.605E-02
  50 F= -.43512146E+02 E0= -.43511753E+02  d E =-.584108E-02
       N       E                     dE             d eps       ncg     rms          rms(c)
DAV:   1    -0.435122659523E+02   -0.14233E-03   -0.96815E-02 26816   0.225E+00    0.209E-01
DAV:   2    -0.435123661177E+02   -0.10017E-03   -0.70933E-03 27944   0.548E-01    0.925E-02
DAV:   3    -0.435123006849E+02    0.65433E-04   -0.32853E-04 29748   0.104E-01
  51 F= -.43512301E+02 E0= -.43511904E+02  d E =-.599584E-02
       N       E                     dE             d eps       ncg     rms          rms(c)
DAV:   1    -0.435151518813E+02   -0.27858E-02   -0.74589E-01 23632   0.616E+00    0.490E-01
DAV:   2    -0.435169692876E+02   -0.18174E-02   -0.55107E-02 29468   0.159E+00    0.233E-01
DAV:   3    -0.435165920580E+02    0.37723E-03   -0.22803E-03 38964   0.270E-01    0.137E-01
DAV:   4    -0.435164275576E+02    0.16450E-03   -0.47462E-04 29272   0.135E-01    0.943E-02
DAV:   5    -0.435164271158E+02    0.44183E-06   -0.76094E-05 16920   0.584E-02
  52 F= -.43516427E+02 E0= -.43516032E+02  d E =-.412643E-02
       N       E                     dE             d eps       ncg     rms          rms(c)
DAV:   1    -0.435165581907E+02   -0.13063E-03   -0.17046E-01 23668   0.294E+00    0.237E-01
DAV:   2    -0.435169948339E+02   -0.43664E-03   -0.12508E-02 29500   0.751E-01    0.109E-01
DAV:   3    -0.435169127955E+02    0.82038E-04   -0.48902E-04 32136   0.128E-01
  53 F= -.43516913E+02 E0= -.43516518E+02  d E =-.461211E-02
       N       E                     dE             d eps       ncg     rms          rms(c)
DAV:   1    -0.435179388922E+02   -0.94406E-03   -0.62238E-01 23632   0.551E+00    0.354E-01
DAV:   2    -0.435203744477E+02   -0.24356E-02   -0.43849E-02 27820   0.137E+00    0.206E-01
DAV:   3    -0.435202296705E+02    0.14478E-03   -0.16952E-03 40220   0.221E-01    0.123E-01
DAV:   4    -0.435201327303E+02    0.96940E-04   -0.25539E-04 21120   0.117E-01
  54 F= -.43520133E+02 E0= -.43519743E+02  d E =-.321993E-02
       N       E                     dE             d eps       ncg     rms          rms(c)
DAV:   1    -0.435193444276E+02    0.88524E-03   -0.41147E-01 23640   0.449E+00    0.284E-01
DAV:   2    -0.435209779364E+02   -0.16335E-02   -0.28800E-02 27868   0.111E+00    0.166E-01
DAV:   3    -0.435209026262E+02    0.75310E-04   -0.11024E-03 39228   0.178E-01    0.986E-02
DAV:   4    -0.435208440992E+02    0.58527E-04   -0.15085E-04 18016   0.927E-02
  55 F= -.43520844E+02 E0= -.43520459E+02  d E =-.393130E-02
       N       E                     dE             d eps       ncg     rms          rms(c)
DAV:   1    -0.435231066809E+02   -0.22041E-02   -0.63667E-01 23632   0.521E+00    0.387E-01
DAV:   2    -0.435242727520E+02   -0.11661E-02   -0.35747E-02 28600   0.128E+00    0.204E-01
DAV:   3    -0.435239075266E+02    0.36523E-03   -0.17413E-03 40968   0.223E-01    0.102E-01
DAV:   4    -0.435237900921E+02    0.11743E-03   -0.27248E-04 22048   0.110E-01    0.346E-02
DAV:   5    -0.435237913693E+02   -0.12772E-05   -0.42737E-05 16796   0.569E-02
  56 F= -.43523791E+02 E0= -.43523407E+02  d E =-.294727E-02
       N       E                     dE             d eps       ncg     rms          rms(c)
DAV:   1    -0.435240270435E+02   -0.23695E-03   -0.68722E-01 23632   0.541E+00    0.404E-01
DAV:   2    -0.435253114172E+02   -0.12844E-02   -0.38556E-02 28632   0.133E+00    0.211E-01
DAV:   3    -0.435249189750E+02    0.39244E-03   -0.18542E-03 40808   0.231E-01    0.103E-01
DAV:   4    -0.435247927399E+02    0.12624E-03   -0.29381E-04 23104   0.113E-01    0.346E-02
DAV:   5    -0.435247938040E+02   -0.10641E-05   -0.42261E-05 16844   0.549E-02
  57 F= -.43524794E+02 E0= -.43524409E+02  d E =-.394970E-02
       N       E                     dE             d eps       ncg     rms          rms(c)
DAV:   1    -0.435270919747E+02   -0.22992E-02   -0.39958E-01 25748   0.463E+00    0.433E-01
DAV:   2    -0.435279021548E+02   -0.81018E-03   -0.33670E-02 26988   0.116E+00    0.170E-01
DAV:   3    -0.435274959685E+02    0.40619E-03   -0.14488E-03 35844   0.215E-01    0.874E-02
DAV:   4    -0.435273784347E+02    0.11753E-03   -0.23727E-04 20708   0.105E-01    0.666E-02
DAV:   5    -0.435273733412E+02    0.50935E-05   -0.86969E-05 16768   0.741E-02
  58 F= -.43527373E+02 E0= -.43526983E+02  d E =-.257954E-02
       N       E                     dE             d eps       ncg     rms          rms(c)
DAV:   1    -0.435276022406E+02   -0.22381E-03   -0.13888E+00 25696   0.862E+00    0.793E-01
DAV:   2    -0.435304117958E+02   -0.28096E-02   -0.11719E-01 26964   0.217E+00    0.317E-01
DAV:   3    -0.435289989854E+02    0.14128E-02   -0.50564E-03 35796   0.401E-01    0.164E-01
DAV:   4    -0.435286340800E+02    0.36491E-03   -0.11210E-03 39336   0.194E-01    0.136E-01
DAV:   5    -0.435286261064E+02    0.79736E-05   -0.91258E-05 18664   0.564E-02
  59 F= -.43528626E+02 E0= -.43528222E+02  d E =-.383230E-02
       N       E                     dE             d eps       ncg     rms          rms(c)
DAV:   1    -0.435302638480E+02   -0.16298E-02   -0.23169E-01 23660   0.322E+00    0.245E-01
DAV:   2    -0.435304916598E+02   -0.22781E-03   -0.12224E-02 27392   0.734E-01    0.131E-01
DAV:   3    -0.435302813941E+02    0.21027E-03   -0.57380E-04 33380   0.135E-01    0.613E-02
DAV:   4    -0.435302215272E+02    0.59867E-04   -0.12945E-04 16888   0.814E-02
  60 F= -.43530222E+02 E0= -.43529811E+02  d E =-.159542E-02
