  12  12   1   0
  0.1090813E+02  0.3979637E-09  0.5352776E-09  0.6437754E-09  0.5000000E-15
  1.000000000000000E-004
  CAR 
 unknown system                          
     10.25757959    -35.74564668  301      0.02186175      1.00000000
    -35.746  0.0000E+00  0.0000E+00  0.0000E+00  0.0000E+00
    -35.592  0.0000E+00  0.0000E+00  0.0000E+00  0.0000E+00
    -35.439  0.0000E+00  0.0000E+00  0.0000E+00  0.0000E+00
    -35.286  0.0000E+00  0.0000E+00  0.0000E+00  0.0000E+00
    -35.132  0.0000E+00  0.0000E+00  0.0000E+00  0.0000E+00
    -34.979  0.0000E+00  0.0000E+00  0.0000E+00  0.0000E+00
    -34.826  0.0000E+00  0.0000E+00  0.0000E+00  0.0000E+00
    -34.672  0.0000E+00  0.0000E+00  0.0000E+00  0.0000E+00
    -34.519  0.0000E+00  0.0000E+00  0.0000E+00  0.0000E+00
    -34.366  0.0000E+00  0.0000E+00  0.0000E+00  0.0000E+00
    -34.212  0.0000E+00  0.0000E+00  0.0000E+00  0.0000E+00
    -34.059  0.0000E+00  0.0000E+00  0.0000E+00  0.0000E+00
    -33.906  0.0000E+00  0.0000E+00  0.0000E+00  0.0000E+00
    -33.752  0.0000E+00  0.0000E+00  0.0000E+00  0.0000E+00
    -33.599  0.0000E+00  0.0000E+00  0.1010E-01  0.1010E-01
    -33.445  0.0000E+00  0.0000E+00  0.2020E-01  0.2020E-01
    -33.292  0.0000E+00  0.0000E+00  0.2020E-01  0.2020E-01
    -33.139  0.0000E+00  0.0000E+00  0.2020E-01  0.2020E-01
    -32.985  0.0000E+00  0.0000E+00  0.2020E-01  0.2020E-01
    -32.832  0.0000E+00  0.0000E+00  0.2020E-01  0.2020E-01
    -32.679  0.0000E+00  0.0000E+00  0.2020E-01  0.2020E-01
    -32.525  0.0000E+00  0.0000E+00  0.2020E-01  0.2020E-01
    -32.372  0.0000E+00  0.0000E+00  0.2020E-01  0.2020E-01
    -32.219  0.0000E+00  0.0000E+00  0.2020E-01  0.2020E-01
    -32.065  0.0000E+00  0.0000E+00  0.2020E-01  0.2020E-01
    -31.912  0.0000E+00  0.0000E+00  0.2020E-01  0.2020E-01
    -31.759  0.0000E+00  0.0000E+00  0.2020E-01  0.2020E-01
    -31.605  0.0000E+00  0.0000E+00  0.2020E-01  0.2020E-01
    -31.452  0.0000E+00  0.0000E+00  0.2020E-01  0.2020E-01
    -31.299  0.0000E+00  0.0000E+00  0.2020E-01  0.2020E-01
    -31.145  0.0000E+00  0.0000E+00  0.2020E-01  0.2020E-01
    -30.992  0.0000E+00  0.0000E+00  0.2020E-01  0.2020E-01
    -30.839  0.0000E+00  0.0000E+00  0.2020E-01  0.2020E-01
    -30.685  0.0000E+00  0.0000E+00  0.2020E-01  0.2020E-01
    -30.532  0.0000E+00  0.0000E+00  0.2020E-01  0.2020E-01
    -30.379  0.0000E+00  0.0000E+00  0.2020E-01  0.2020E-01
    -30.225  0.0000E+00  0.0000E+00  0.2020E-01  0.2020E-01
    -30.072  0.0000E+00  0.0000E+00  0.2020E-01  0.2020E-01
    -29.919  0.0000E+00  0.0000E+00  0.2020E-01  0.2020E-01
    -29.765  0.0000E+00  0.0000E+00  0.2020E-01  0.2020E-01
    -29.612  0.0000E+00  0.0000E+00  0.2020E-01  0.2020E-01
    -29.459  0.0000E+00  0.0000E+00  0.4040E-01  0.4040E-01
    -29.305  0.0000E+00  0.0000E+00  0.5051E-01  0.5051E-01
    -29.152  0.0000E+00  0.0000E+00  0.5051E-01  0.5051E-01
    -28.999  0.0000E+00  0.0000E+00  0.5051E-01  0.5051E-01
    -28.845  0.0000E+00  0.0000E+00  0.5051E-01  0.5051E-01
    -28.692  0.0000E+00  0.0000E+00  0.5051E-01  0.5051E-01
    -28.538  0.0000E+00  0.0000E+00  0.5051E-01  0.5051E-01
    -28.385  0.0000E+00  0.0000E+00  0.5051E-01  0.5051E-01
    -28.232  0.0000E+00  0.0000E+00  0.5051E-01  0.5051E-01
    -28.078  0.0000E+00  0.0000E+00  0.5051E-01  0.5051E-01
    -27.925  0.0000E+00  0.0000E+00  0.5051E-01  0.5051E-01
    -27.772  0.0000E+00  0.0000E+00  0.5051E-01  0.5051E-01
    -27.618  0.0000E+00  0.0000E+00  0.5051E-01  0.5051E-01
    -27.465  0.0000E+00  0.0000E+00  0.5051E-01  0.5051E-01
    -27.312  0.0000E+00  0.0000E+00  0.5051E-01  0.5051E-01
    -27.158  0.0000E+00  0.0000E+00  0.5051E-01  0.5051E-01
    -27.005  0.0000E+00  0.0000E+00  0.5051E-01  0.5051E-01
    -26.852  0.0000E+00  0.0000E+00  0.5051E-01  0.5051E-01
    -26.698  0.0000E+00  0.0000E+00  0.5051E-01  0.5051E-01
    -26.545  0.0000E+00  0.0000E+00  0.5051E-01  0.5051E-01
    -26.392  0.0000E+00  0.0000E+00  0.5051E-01  0.5051E-01
    -26.238  0.0000E+00  0.0000E+00  0.5051E-01  0.5051E-01
    -26.085  0.0000E+00  0.0000E+00  0.5051E-01  0.5051E-01
    -25.932  0.0000E+00  0.0000E+00  0.5051E-01  0.5051E-01
    -25.778  0.0000E+00  0.0000E+00  0.5051E-01  0.5051E-01
    -25.625  0.0000E+00  0.0000E+00  0.5051E-01  0.5051E-01
    -25.472  0.0000E+00  0.0000E+00  0.5051E-01  0.5051E-01
    -25.318  0.0000E+00  0.0000E+00  0.5051E-01  0.5051E-01
    -25.165  0.0000E+00  0.0000E+00  0.5051E-01  0.5051E-01
    -25.012  0.0000E+00  0.0000E+00  0.5051E-01  0.5051E-01
    -24.858  0.0000E+00  0.0000E+00  0.5051E-01  0.5051E-01
    -24.705  0.0000E+00  0.0000E+00  0.5051E-01  0.5051E-01
    -24.552  0.0000E+00  0.0000E+00  0.5051E-01  0.5051E-01
    -24.398  0.0000E+00  0.0000E+00  0.5051E-01  0.5051E-01
    -24.245  0.0000E+00  0.0000E+00  0.5051E-01  0.5051E-01
    -24.091  0.0000E+00  0.0000E+00  0.5051E-01  0.5051E-01
    -23.938  0.0000E+00  0.0000E+00  0.5051E-01  0.5051E-01
    -23.785  0.0000E+00  0.0000E+00  0.5051E-01  0.5051E-01
    -23.631  0.0000E+00  0.0000E+00  0.5051E-01  0.5051E-01
    -23.478  0.0000E+00  0.0000E+00  0.5051E-01  0.5051E-01
    -23.325  0.0000E+00  0.0000E+00  0.5051E-01  0.5051E-01
    -23.171  0.0000E+00  0.0000E+00  0.5051E-01  0.5051E-01
    -23.018  0.0000E+00  0.0000E+00  0.5051E-01  0.5051E-01
    -22.865  0.0000E+00  0.0000E+00  0.5051E-01  0.5051E-01
    -22.711  0.0000E+00  0.0000E+00  0.5051E-01  0.5051E-01
    -22.558  0.0000E+00  0.0000E+00  0.5051E-01  0.5051E-01
    -22.405  0.0000E+00  0.0000E+00  0.5051E-01  0.5051E-01
    -22.251  0.0000E+00  0.0000E+00  0.5051E-01  0.5051E-01
    -22.098  0.0000E+00  0.0000E+00  0.5051E-01  0.5051E-01
    -21.945  0.0000E+00  0.0000E+00  0.5051E-01  0.5051E-01
    -21.791  0.0000E+00  0.0000E+00  0.5051E-01  0.5051E-01
    -21.638  0.0000E+00  0.0000E+00  0.5051E-01  0.5051E-01
    -21.485  0.0000E+00  0.0000E+00  0.5051E-01  0.5051E-01
    -21.331  0.0000E+00  0.0000E+00  0.5051E-01  0.5051E-01
    -21.178  0.0000E+00  0.0000E+00  0.5051E-01  0.5051E-01
    -21.025  0.0000E+00  0.0000E+00  0.5051E-01  0.5051E-01
    -20.871  0.0000E+00  0.0000E+00  0.5051E-01  0.5051E-01
    -20.718  0.0000E+00  0.0000E+00  0.5051E-01  0.5051E-01
    -20.565  0.0000E+00  0.0000E+00  0.5051E-01  0.5051E-01
    -20.411  0.0000E+00  0.0000E+00  0.5051E-01  0.5051E-01
    -20.258  0.0000E+00  0.0000E+00  0.5051E-01  0.5051E-01
    -20.105  0.0000E+00  0.0000E+00  0.5051E-01  0.5051E-01
    -19.951  0.0000E+00  0.0000E+00  0.5051E-01  0.5051E-01
    -19.798  0.0000E+00  0.0000E+00  0.5051E-01  0.5051E-01
    -19.645  0.0000E+00  0.0000E+00  0.5051E-01  0.5051E-01
    -19.491  0.0000E+00  0.0000E+00  0.5051E-01  0.5051E-01
    -19.338  0.0000E+00  0.0000E+00  0.5051E-01  0.5051E-01
    -19.184  0.0000E+00  0.0000E+00  0.5051E-01  0.5051E-01
    -19.031  0.0000E+00  0.0000E+00  0.5051E-01  0.5051E-01
    -18.878  0.0000E+00  0.0000E+00  0.5051E-01  0.5051E-01
    -18.724  0.0000E+00  0.0000E+00  0.5051E-01  0.5051E-01
    -18.571  0.0000E+00  0.0000E+00  0.5051E-01  0.5051E-01
    -18.418  0.0000E+00  0.0000E+00  0.5051E-01  0.5051E-01
    -18.264  0.0000E+00  0.0000E+00  0.5051E-01  0.5051E-01
    -18.111  0.0000E+00  0.0000E+00  0.5051E-01  0.5051E-01
    -17.958  0.0000E+00  0.0000E+00  0.5051E-01  0.5051E-01
    -17.804  0.0000E+00  0.0000E+00  0.5051E-01  0.5051E-01
    -17.651  0.0000E+00  0.0000E+00  0.5051E-01  0.5051E-01
    -17.498  0.0000E+00  0.0000E+00  0.5051E-01  0.5051E-01
    -17.344  0.0000E+00  0.0000E+00  0.5051E-01  0.5051E-01
    -17.191  0.0000E+00  0.0000E+00  0.5051E-01  0.5051E-01
    -17.038  0.0000E+00  0.0000E+00  0.5051E-01  0.5051E-01
    -16.884  0.0000E+00  0.0000E+00  0.5051E-01  0.5051E-01
    -16.731  0.0000E+00  0.0000E+00  0.5051E-01  0.5051E-01
    -16.578  0.0000E+00  0.0000E+00  0.5051E-01  0.5051E-01
    -16.424  0.0000E+00  0.0000E+00  0.5051E-01  0.5051E-01
    -16.271  0.0000E+00  0.0000E+00  0.5051E-01  0.5051E-01
    -16.118  0.0000E+00  0.0000E+00  0.5051E-01  0.5051E-01
    -15.964  0.0000E+00  0.0000E+00  0.5051E-01  0.5051E-01
    -15.811  0.1011E+00  0.1011E+00  0.5527E-01  0.5527E-01
    -15.658  0.5843E-01  0.5843E-01  0.7985E-01  0.7985E-01
    -15.504  0.6025E+00  0.6025E+00  0.1009E+00  0.1009E+00
    -15.351  0.0000E+00  0.0000E+00  0.1111E+00  0.1111E+00
    -15.198  0.0000E+00  0.0000E+00  0.1111E+00  0.1111E+00
    -15.044  0.0000E+00  0.0000E+00  0.1111E+00  0.1111E+00
    -14.891  0.0000E+00  0.0000E+00  0.1111E+00  0.1111E+00
    -14.738  0.0000E+00  0.0000E+00  0.1111E+00  0.1111E+00
    -14.584  0.0000E+00  0.0000E+00  0.1111E+00  0.1111E+00
    -14.431  0.0000E+00  0.0000E+00  0.1111E+00  0.1111E+00
    -14.277  0.0000E+00  0.0000E+00  0.1111E+00  0.1111E+00
    -14.124  0.0000E+00  0.0000E+00  0.1111E+00  0.1111E+00
    -13.971  0.0000E+00  0.0000E+00  0.1111E+00  0.1111E+00
    -13.817  0.0000E+00  0.0000E+00  0.1111E+00  0.1111E+00
    -13.664  0.0000E+00  0.0000E+00  0.1111E+00  0.1111E+00
    -13.511  0.0000E+00  0.0000E+00  0.1111E+00  0.1111E+00
    -13.357  0.0000E+00  0.0000E+00  0.1111E+00  0.1111E+00
    -13.204  0.0000E+00  0.0000E+00  0.1111E+00  0.1111E+00
    -13.051  0.0000E+00  0.0000E+00  0.1111E+00  0.1111E+00
    -12.897  0.0000E+00  0.0000E+00  0.1111E+00  0.1111E+00
    -12.744  0.0000E+00  0.0000E+00  0.1111E+00  0.1111E+00
    -12.591  0.0000E+00  0.0000E+00  0.1111E+00  0.1111E+00
    -12.437  0.0000E+00  0.0000E+00  0.1111E+00  0.1111E+00
    -12.284  0.0000E+00  0.0000E+00  0.1111E+00  0.1111E+00
    -12.131  0.0000E+00  0.0000E+00  0.1111E+00  0.1111E+00
    -11.977  0.0000E+00  0.0000E+00  0.1111E+00  0.1111E+00
    -11.824  0.0000E+00  0.0000E+00  0.1111E+00  0.1111E+00
    -11.671  0.0000E+00  0.0000E+00  0.1111E+00  0.1111E+00
    -11.517  0.0000E+00  0.0000E+00  0.1111E+00  0.1111E+00
    -11.364  0.0000E+00  0.0000E+00  0.1111E+00  0.1111E+00
    -11.211  0.0000E+00  0.0000E+00  0.1111E+00  0.1111E+00
    -11.057  0.0000E+00  0.0000E+00  0.1111E+00  0.1111E+00
    -10.904  0.0000E+00  0.0000E+00  0.1111E+00  0.1111E+00
    -10.751  0.0000E+00  0.0000E+00  0.1111E+00  0.1111E+00
    -10.597  0.0000E+00  0.0000E+00  0.1111E+00  0.1111E+00
    -10.444  0.0000E+00  0.0000E+00  0.1111E+00  0.1111E+00
    -10.291  0.0000E+00  0.0000E+00  0.1111E+00  0.1111E+00
    -10.137  0.0000E+00  0.0000E+00  0.1111E+00  0.1111E+00
     -9.984  0.0000E+00  0.0000E+00  0.1111E+00  0.1111E+00
     -9.830  0.0000E+00  0.0000E+00  0.1111E+00  0.1111E+00
     -9.677  0.0000E+00  0.0000E+00  0.1111E+00  0.1111E+00
     -9.524  0.0000E+00  0.0000E+00  0.1111E+00  0.1111E+00
     -9.370  0.0000E+00  0.0000E+00  0.1111E+00  0.1111E+00
     -9.217  0.0000E+00  0.0000E+00  0.1111E+00  0.1111E+00
     -9.064  0.0000E+00  0.0000E+00  0.1111E+00  0.1111E+00
     -8.910  0.0000E+00  0.0000E+00  0.1111E+00  0.1111E+00
     -8.757  0.0000E+00  0.0000E+00  0.1111E+00  0.1111E+00
     -8.604  0.0000E+00  0.0000E+00  0.1111E+00  0.1111E+00
     -8.450  0.0000E+00  0.0000E+00  0.1111E+00  0.1111E+00
     -8.297  0.0000E+00  0.0000E+00  0.1111E+00  0.1111E+00
     -8.144  0.0000E+00  0.0000E+00  0.1111E+00  0.1111E+00
     -7.990  0.0000E+00  0.0000E+00  0.1111E+00  0.1111E+00
     -7.837  0.0000E+00  0.0000E+00  0.1111E+00  0.1111E+00
     -7.684  0.0000E+00  0.0000E+00  0.1111E+00  0.1111E+00
     -7.530  0.0000E+00  0.0000E+00  0.1111E+00  0.1111E+00
     -7.377  0.0000E+00  0.0000E+00  0.1111E+00  0.1111E+00
     -7.224  0.0000E+00  0.0000E+00  0.1111E+00  0.1111E+00
     -7.070  0.0000E+00  0.0000E+00  0.1111E+00  0.1111E+00
     -6.917  0.0000E+00  0.0000E+00  0.1111E+00  0.1111E+00
     -6.764  0.0000E+00  0.0000E+00  0.1111E+00  0.1111E+00
     -6.610  0.0000E+00  0.0000E+00  0.1111E+00  0.1111E+00
     -6.457  0.0000E+00  0.0000E+00  0.1111E+00  0.1111E+00
     -6.304  0.0000E+00  0.0000E+00  0.1111E+00  0.1111E+00
     -6.150  0.0000E+00  0.0000E+00  0.1111E+00  0.1111E+00
     -5.997  0.7906E-04  0.7906E-04  0.1111E+00  0.1111E+00
     -5.844  0.1097E-02  0.1097E-02  0.1112E+00  0.1112E+00
     -5.690  0.3553E-02  0.3553E-02  0.1115E+00  0.1115E+00
     -5.537  0.5726E-02  0.5726E-02  0.1123E+00  0.1123E+00
     -5.384  0.6332E-02  0.6332E-02  0.1132E+00  0.1132E+00
     -5.230  0.7047E-02  0.7047E-02  0.1142E+00  0.1142E+00
     -5.077  0.7823E-02  0.7823E-02  0.1154E+00  0.1154E+00
     -4.923  0.6002E-02  0.6002E-02  0.1164E+00  0.1164E+00
     -4.770  0.6119E-02  0.6119E-02  0.1173E+00  0.1173E+00
     -4.617  0.6524E-02  0.6524E-02  0.1183E+00  0.1183E+00
     -4.463  0.6892E-02  0.6892E-02  0.1193E+00  0.1193E+00
     -4.310  0.6085E-02  0.6085E-02  0.1204E+00  0.1204E+00
     -4.157  0.2812E-02  0.2812E-02  0.1211E+00  0.1211E+00
     -4.003  0.0000E+00  0.0000E+00  0.1212E+00  0.1212E+00
     -3.850  0.0000E+00  0.0000E+00  0.1212E+00  0.1212E+00
     -3.697  0.5962E-03  0.5962E-03  0.1212E+00  0.1212E+00
     -3.543  0.4205E-02  0.4205E-02  0.1216E+00  0.1216E+00
     -3.390  0.1044E-01  0.1044E-01  0.1226E+00  0.1226E+00
     -3.237  0.1422E-01  0.1422E-01  0.1245E+00  0.1245E+00
     -3.083  0.2626E-01  0.2626E-01  0.1279E+00  0.1279E+00
     -2.930  0.1839E-01  0.1839E-01  0.1315E+00  0.1315E+00
     -2.777  0.2500E-01  0.2500E-01  0.1344E+00  0.1344E+00
     -2.623  0.4176E-01  0.4176E-01  0.1405E+00  0.1405E+00
     -2.470  0.7655E-02  0.7655E-02  0.1417E+00  0.1417E+00
     -2.317  0.5748E-01  0.5747E-01  0.1486E+00  0.1486E+00
     -2.163  0.1321E-01  0.1321E-01  0.1517E+00  0.1517E+00
     -2.010  0.4922E-01  0.4922E-01  0.1572E+00  0.1572E+00
     -1.857  0.4627E-02  0.4628E-02  0.1617E+00  0.1617E+00
     -1.703  0.4281E-01  0.4281E-01  0.1657E+00  0.1657E+00
     -1.550  0.2474E-01  0.2474E-01  0.1705E+00  0.1705E+00
     -1.397  0.1657E-01  0.1657E-01  0.1726E+00  0.1726E+00
     -1.243  0.1718E-01  0.1718E-01  0.1755E+00  0.1755E+00
     -1.090  0.1160E-01  0.1160E-01  0.1775E+00  0.1775E+00
     -0.937  0.3525E-01  0.3525E-01  0.1824E+00  0.1824E+00
     -0.783  0.1985E-01  0.1985E-01  0.1870E+00  0.1870E+00
     -0.630  0.2685E-01  0.2685E-01  0.1915E+00  0.1915E+00
     -0.477  0.2428E-01  0.2428E-01  0.1939E+00  0.1939E+00
     -0.323  0.2001E-01  0.2000E-01  0.1984E+00  0.1984E+00
     -0.170  0.1200E-01  0.1200E-01  0.2005E+00  0.2005E+00
     -0.016  0.1689E-02  0.1689E-02  0.2020E+00  0.2020E+00
      0.137  0.0000E+00  0.0000E+00  0.2020E+00  0.2020E+00
      0.290  0.0000E+00  0.0000E+00  0.2020E+00  0.2020E+00
      0.444  0.0000E+00  0.0000E+00  0.2020E+00  0.2020E+00
      0.597  0.0000E+00  0.0000E+00  0.2020E+00  0.2020E+00
      0.750  0.0000E+00  0.0000E+00  0.2020E+00  0.2020E+00
      0.904  0.0000E+00  0.0000E+00  0.2020E+00  0.2020E+00
      1.057  0.0000E+00  0.0000E+00  0.2020E+00  0.2020E+00
      1.210  0.0000E+00  0.0000E+00  0.2020E+00  0.2020E+00
      1.364  0.0000E+00  0.0000E+00  0.2020E+00  0.2020E+00
      1.517  0.0000E+00  0.0000E+00  0.2020E+00  0.2020E+00
      1.670  0.0000E+00  0.0000E+00  0.2020E+00  0.2020E+00
      1.824  0.0000E+00  0.0000E+00  0.2020E+00  0.2020E+00
      1.977  0.0000E+00  0.0000E+00  0.2020E+00  0.2020E+00
      2.130  0.0000E+00  0.0000E+00  0.2020E+00  0.2020E+00
      2.284  0.0000E+00  0.0000E+00  0.2020E+00  0.2020E+00
      2.437  0.0000E+00  0.0000E+00  0.2020E+00  0.2020E+00
      2.590  0.0000E+00  0.0000E+00  0.2020E+00  0.2020E+00
      2.744  0.1388E-01  0.1388E-01  0.2026E+00  0.2026E+00
      2.897  0.1804E-01  0.1804E-01  0.2060E+00  0.2060E+00
      3.050  0.2253E-01  0.2253E-01  0.2088E+00  0.2088E+00
      3.204  0.1916E-01  0.1916E-01  0.2120E+00  0.2120E+00
      3.357  0.1887E-01  0.1887E-01  0.2149E+00  0.2149E+00
      3.510  0.2977E-01  0.2977E-01  0.2182E+00  0.2182E+00
      3.664  0.1339E-01  0.1339E-01  0.2223E+00  0.2223E+00
      3.817  0.1953E-01  0.1953E-01  0.2243E+00  0.2243E+00
      3.970  0.3878E-01  0.3878E-01  0.2290E+00  0.2290E+00
      4.124  0.2105E-01  0.2105E-01  0.2337E+00  0.2337E+00
      4.277  0.3005E-01  0.3005E-01  0.2371E+00  0.2371E+00
      4.431  0.1451E-01  0.1451E-01  0.2416E+00  0.2416E+00
      4.584  0.2159E-02  0.2159E-02  0.2424E+00  0.2424E+00
      4.737  0.6386E-02  0.6386E-02  0.2430E+00  0.2430E+00
      4.891  0.2197E-01  0.2197E-01  0.2453E+00  0.2453E+00
      5.044  0.2968E-01  0.2968E-01  0.2493E+00  0.2493E+00
      5.197  0.8660E-02  0.8661E-02  0.2519E+00  0.2519E+00
      5.351  0.6086E-02  0.6085E-02  0.2526E+00  0.2526E+00
      5.504  0.2218E-01  0.2218E-01  0.2559E+00  0.2559E+00
      5.657  0.2222E-01  0.2222E-01  0.2592E+00  0.2592E+00
      5.811  0.2724E-01  0.2724E-01  0.2631E+00  0.2631E+00
      5.964  0.2615E-01  0.2615E-01  0.2672E+00  0.2672E+00
      6.117  0.2140E-01  0.2140E-01  0.2709E+00  0.2709E+00
      6.271  0.4061E-01  0.4061E-01  0.2755E+00  0.2755E+00
      6.424  0.2319E-01  0.2320E-01  0.2811E+00  0.2811E+00
      6.577  0.3463E-01  0.3463E-01  0.2853E+00  0.2853E+00
      6.731  0.2029E-01  0.2029E-01  0.2898E+00  0.2898E+00
      6.884  0.2812E-01  0.2812E-01  0.2928E+00  0.2928E+00
      7.037  0.2974E-01  0.2974E-01  0.2976E+00  0.2976E+00
      7.191  0.3070E-01  0.3070E-01  0.3013E+00  0.3013E+00
      7.344  0.2930E-01  0.2931E-01  0.3064E+00  0.3064E+00
      7.497  0.2925E-01  0.2925E-01  0.3112E+00  0.3112E+00
      7.651  0.3211E-01  0.3212E-01  0.3156E+00  0.3156E+00
      7.804  0.2414E-01  0.2417E-01  0.3196E+00  0.3196E+00
      7.957  0.1058E-01  0.1057E-01  0.3221E+00  0.3221E+00
      8.111  0.1177E-02  0.1114E-02  0.3232E+00  0.3232E+00
      8.264  0.0000E+00  0.0000E+00  0.3232E+00  0.3232E+00
      8.417  0.0000E+00  0.0000E+00  0.3232E+00  0.3232E+00
      8.571  0.0000E+00  0.0000E+00  0.3232E+00  0.3232E+00
      8.724  0.0000E+00  0.0000E+00  0.3232E+00  0.3232E+00
      8.877  0.0000E+00  0.0000E+00  0.3232E+00  0.3232E+00
      9.031  0.0000E+00  0.0000E+00  0.3232E+00  0.3232E+00
      9.184  0.0000E+00  0.0000E+00  0.3232E+00  0.3232E+00
      9.338  0.0000E+00  0.0000E+00  0.3232E+00  0.3232E+00
      9.491  0.0000E+00  0.0000E+00  0.3232E+00  0.3232E+00
      9.644  0.0000E+00  0.0000E+00  0.3232E+00  0.3232E+00
      9.798  0.0000E+00  0.0000E+00  0.3232E+00  0.3232E+00
      9.951  0.0000E+00  0.0000E+00  0.3232E+00  0.3232E+00
     10.104  0.0000E+00  0.0000E+00  0.3232E+00  0.3232E+00
     10.258  0.0000E+00  0.0000E+00  0.3232E+00  0.3232E+00
     10.25757959    -35.74564668  301      0.02186175      1.00000000
    -35.746  0.0000E+00  0.0000E+00  0.0000E+00  0.0000E+00  0.0000E+00  0.0000E+00  0.0000E+00  0.0000E+00  0.0000E+00  0.0000E+00  0.0000E+00  0.0000E+00  0.0000E+00  0.0000E+00  0.0000E+00  0.0000E+00  0.0000E+00  0.0000E+00
    -35.592  0.0000E+00  0.0000E+00  0.0000E+00  0.0000E+00  0.0000E+00  0.0000E+00  0.0000E+00  0.0000E+00  0.0000E+00  0.0000E+00  0.0000E+00  0.0000E+00  0.0000E+00  0.0000E+00  0.0000E+00  0.0000E+00  0.0000E+00  0.0000E+00
    -35.439  0.0000E+00  0.0000E+00  0.0000E+00  0.0000E+00  0.0000E+00  0.0000E+00  0.0000E+00  0.0000E+00  0.0000E+00  0.0000E+00  0.0000E+00  0.0000E+00  0.0000E+00  0.0000E+00  0.0000E+00  0.0000E+00  0.0000E+00  0.0000E+00
    -35.286  0.0000E+00  0.0000E+00  0.0000E+00  0.0000E+00  0.0000E+00  0.0000E+00  0.0000E+00  0.0000E+00  0.0000E+00  0.0000E+00  0.0000E+00  0.0000E+00  0.0000E+00  0.0000E+00  0.0000E+00  0.0000E+00  0.0000E+00  0.0000E+00
    -35.132  0.0000E+00  0.0000E+00  0.0000E+00  0.0000E+00  0.0000E+00  0.0000E+00  0.0000E+00  0.0000E+00  0.0000E+00  0.0000E+00  0.0000E+00  0.0000E+00  0.0000E+00  0.0000E+00  0.0000E+00  0.0000E+00  0.0000E+00  0.0000E+00
    -34.979  0.0000E+00  0.0000E+00  0.0000E+00  0.0000E+00  0.0000E+00  0.0000E+00  0.0000E+00  0.0000E+00  0.0000E+00  0.0000E+00  0.0000E+00  0.0000E+00  0.0000E+00  0.0000E+00  0.0000E+00  0.0000E+00  0.0000E+00  0.0000E+00
    -34.826  0.0000E+00  0.0000E+00  0.0000E+00  0.0000E+00  0.0000E+00  0.0000E+00  0.0000E+00  0.0000E+00  0.0000E+00  0.0000E+00  0.0000E+00  0.0000E+00  0.0000E+00  0.0000E+00  0.0000E+00  0.0000E+00  0.0000E+00  0.0000E+00
    -34.672  0.0000E+00  0.0000E+00  0.0000E+00  0.0000E+00  0.0000E+00  0.0000E+00  0.0000E+00  0.0000E+00  0.0000E+00  0.0000E+00  0.0000E+00  0.0000E+00  0.0000E+00  0.0000E+00  0.0000E+00  0.0000E+00  0.0000E+00  0.0000E+00
    -34.519  0.0000E+00  0.0000E+00  0.0000E+00  0.0000E+00  0.0000E+00  0.0000E+00  0.0000E+00  0.0000E+00  0.0000E+00  0.0000E+00  0.0000E+00  0.0000E+00  0.0000E+00  0.0000E+00  0.0000E+00  0.0000E+00  0.0000E+00  0.0000E+00
    -34.366  0.0000E+00  0.0000E+00  0.0000E+00  0.0000E+00  0.0000E+00  0.0000E+00  0.0000E+00  0.0000E+00  0.0000E+00  0.0000E+00  0.0000E+00  0.0000E+00  0.0000E+00  0.0000E+00  0.0000E+00  0.0000E+00  0.0000E+00  0.0000E+00
    -34.212  0.0000E+00  0.0000E+00  0.0000E+00  0.0000E+00  0.0000E+00  0.0000E+00  0.0000E+00  0.0000E+00  0.0000E+00  0.0000E+00  0.0000E+00  0.0000E+00  0.0000E+00  0.0000E+00  0.0000E+00  0.0000E+00  0.0000E+00  0.0000E+00
    -34.059  0.0000E+00  0.0000E+00  0.0000E+00  0.0000E+00  0.0000E+00  0.0000E+00  0.0000E+00  0.0000E+00  0.0000E+00  0.0000E+00  0.0000E+00  0.0000E+00  0.0000E+00  0.0000E+00  0.0000E+00  0.0000E+00  0.0000E+00  0.0000E+00
    -33.906  0.0000E+00  0.0000E+00  0.0000E+00  0.0000E+00  0.0000E+00  0.0000E+00  0.0000E+00  0.0000E+00  0.0000E+00  0.0000E+00  0.0000E+00  0.0000E+00  0.0000E+00  0.0000E+00  0.0000E+00  0.0000E+00  0.0000E+00  0.0000E+00
    -33.752  0.0000E+00  0.0000E+00  0.0000E+00  0.0000E+00  0.0000E+00  0.0000E+00  0.0000E+00  0.0000E+00  0.0000E+00  0.0000E+00  0.0000E+00  0.0000E+00  0.0000E+00  0.0000E+00  0.0000E+00  0.0000E+00  0.0000E+00  0.0000E+00
    -33.599  0.0000E+00  0.0000E+00  0.0000E+00  0.0000E+00  0.0000E+00  0.0000E+00  0.0000E+00  0.0000E+00  0.0000E+00  0.0000E+00  0.0000E+00  0.0000E+00  0.0000E+00  0.0000E+00  0.0000E+00  0.0000E+00  0.0000E+00  0.0000E+00
    -33.445  0.0000E+00  0.0000E+00  0.0000E+00  0.0000E+00  0.0000E+00  0.0000E+00  0.0000E+00  0.0000E+00  0.0000E+00  0.0000E+00  0.0000E+00  0.0000E+00  0.0000E+00  0.0000E+00  0.0000E+00  0.0000E+00  0.0000E+00  0.0000E+00
    -33.292  0.0000E+00  0.0000E+00  0.0000E+00  0.0000E+00  0.0000E+00  0.0000E+00  0.0000E+00  0.0000E+00  0.0000E+00  0.0000E+00  0.0000E+00  0.0000E+00  0.0000E+00  0.0000E+00  0.0000E+00  0.0000E+00  0.0000E+00  0.0000E+00
    -33.139  0.0000E+00  0.0000E+00  0.0000E+00  0.0000E+00  0.0000E+00  0.0000E+00  0.0000E+00  0.0000E+00  0.0000E+00  0.0000E+00  0.0000E+00  0.0000E+00  0.0000E+00  0.0000E+00  0.0000E+00  0.0000E+00  0.0000E+00  0.0000E+00
    -32.985  0.0000E+00  0.0000E+00  0.0000E+00  0.0000E+00  0.0000E+00  0.0000E+00  0.0000E+00  0.0000E+00  0.0000E+00  0.0000E+00  0.0000E+00  0.0000E+00  0.0000E+00  0.0000E+00  0.0000E+00  0.0000E+00  0.0000E+00  0.0000E+00
    -32.832  0.0000E+00  0.0000E+00  0.0000E+00  0.0000E+00  0.0000E+00  0.0000E+00  0.0000E+00  0.0000E+00  0.0000E+00  0.0000E+00  0.0000E+00  0.0000E+00  0.0000E+00  0.0000E+00  0.0000E+00  0.0000E+00  0.0000E+00  0.0000E+00
    -32.679  0.0000E+00  0.0000E+00  0.0000E+00  0.0000E+00  0.0000E+00  0.0000E+00  0.0000E+00  0.0000E+00  0.0000E+00  0.0000E+00  0.0000E+00  0.0000E+00  0.0000E+00  0.0000E+00  0.0000E+00  0.0000E+00  0.0000E+00  0.0000E+00
    -32.525  0.0000E+00  0.0000E+00  0.0000E+00  0.0000E+00  0.0000E+00  0.0000E+00  0.0000E+00  0.0000E+00  0.0000E+00  0.0000E+00  0.0000E+00  0.0000E+00  0.0000E+00  0.0000E+00  0.0000E+00  0.0000E+00  0.0000E+00  0.0000E+00
    -32.372  0.0000E+00  0.0000E+00  0.0000E+00  0.0000E+00  0.0000E+00  0.0000E+00  0.0000E+00  0.0000E+00  0.0000E+00  0.0000E+00  0.0000E+00  0.0000E+00  0.0000E+00  0.0000E+00  0.0000E+00  0.0000E+00  0.0000E+00  0.0000E+00
    -32.219  0.0000E+00  0.0000E+00  0.0000E+00  0.0000E+00  0.0000E+00  0.0000E+00  0.0000E+00  0.0000E+00  0.0000E+00  0.0000E+00  0.0000E+00  0.0000E+00  0.0000E+00  0.0000E+00  0.0000E+00  0.0000E+00  0.0000E+00  0.0000E+00
    -32.065  0.0000E+00  0.0000E+00  0.0000E+00  0.0000E+00  0.0000E+00  0.0000E+00  0.0000E+00  0.0000E+00  0.0000E+00  0.0000E+00  0.0000E+00  0.0000E+00  0.0000E+00  0.0000E+00  0.0000E+00  0.0000E+00  0.0000E+00  0.0000E+00
    -31.912  0.0000E+00  0.0000E+00  0.0000E+00  0.0000E+00  0.0000E+00  0.0000E+00  0.0000E+00  0.0000E+00  0.0000E+00  0.0000E+00  0.0000E+00  0.0000E+00  0.0000E+00  0.0000E+00  0.0000E+00  0.0000E+00  0.0000E+00  0.0000E+00
    -31.759  0.0000E+00  0.0000E+00  0.0000E+00  0.0000E+00  0.0000E+00  0.0000E+00  0.0000E+00  0.0000E+00  0.0000E+00  0.0000E+00  0.0000E+00  0.0000E+00  0.0000E+00  0.0000E+00  0.0000E+00  0.0000E+00  0.0000E+00  0.0000E+00
    -31.605  0.0000E+00  0.0000E+00  0.0000E+00  0.0000E+00  0.0000E+00  0.0000E+00  0.0000E+00  0.0000E+00  0.0000E+00  0.0000E+00  0.0000E+00  0.0000E+00  0.0000E+00  0.0000E+00  0.0000E+00  0.0000E+00  0.0000E+00  0.0000E+00
    -31.452  0.0000E+00  0.0000E+00  0.0000E+00  0.0000E+00  0.0000E+00  0.0000E+00  0.0000E+00  0.0000E+00  0.0000E+00  0.0000E+00  0.0000E+00  0.0000E+00  0.0000E+00  0.0000E+00  0.0000E+00  0.0000E+00  0.0000E+00  0.0000E+00
    -31.299  0.0000E+00  0.0000E+00  0.0000E+00  0.0000E+00  0.0000E+00  0.0000E+00  0.0000E+00  0.0000E+00  0.0000E+00  0.0000E+00  0.0000E+00  0.0000E+00  0.0000E+00  0.0000E+00  0.0000E+00  0.0000E+00  0.0000E+00  0.0000E+00
    -31.145  0.0000E+00  0.0000E+00  0.0000E+00  0.0000E+00  0.0000E+00  0.0000E+00  0.0000E+00  0.0000E+00  0.0000E+00  0.0000E+00  0.0000E+00  0.0000E+00  0.0000E+00  0.0000E+00  0.0000E+00  0.0000E+00  0.0000E+00  0.0000E+00
    -30.992  0.0000E+00  0.0000E+00  0.0000E+00  0.0000E+00  0.0000E+00  0.0000E+00  0.0000E+00  0.0000E+00  0.0000E+00  0.0000E+00  0.0000E+00  0.0000E+00  0.0000E+00  0.0000E+00  0.0000E+00  0.0000E+00  0.0000E+00  0.0000E+00
    -30.839  0.0000E+00  0.0000E+00  0.0000E+00  0.0000E+00  0.0000E+00  0.0000E+00  0.0000E+00  0.0000E+00  0.0000E+00  0.0000E+00  0.0000E+00  0.0000E+00  0.0000E+00  0.0000E+00  0.0000E+00  0.0000E+00  0.0000E+00  0.0000E+00
    -30.685  0.0000E+00  0.0000E+00  0.0000E+00  0.0000E+00  0.0000E+00  0.0000E+00  0.0000E+00  0.0000E+00  0.0000E+00  0.0000E+00  0.0000E+00  0.0000E+00  0.0000E+00  0.0000E+00  0.0000E+00  0.0000E+00  0.0000E+00  0.0000E+00
    -30.532  0.0000E+00  0.0000E+00  0.0000E+00  0.0000E+00  0.0000E+00  0.0000E+00  0.0000E+00  0.0000E+00  0.0000E+00  0.0000E+00  0.0000E+00  0.0000E+00  0.0000E+00  0.0000E+00  0.0000E+00  0.0000E+00  0.0000E+00  0.0000E+00
    -30.379  0.0000E+00  0.0000E+00  0.0000E+00  0.0000E+00  0.0000E+00  0.0000E+00  0.0000E+00  0.0000E+00  0.0000E+00  0.0000E+00  0.0000E+00  0.0000E+00  0.0000E+00  0.0000E+00  0.0000E+00  0.0000E+00  0.0000E+00  0.0000E+00
    -30.225  0.0000E+00  0.0000E+00  0.0000E+00  0.0000E+00  0.0000E+00  0.0000E+00  0.0000E+00  0.0000E+00  0.0000E+00  0.0000E+00  0.0000E+00  0.0000E+00  0.0000E+00  0.0000E+00  0.0000E+00  0.0000E+00  0.0000E+00  0.0000E+00
    -30.072  0.0000E+00  0.0000E+00  0.0000E+00  0.0000E+00  0.0000E+00  0.0000E+00  0.0000E+00  0.0000E+00  0.0000E+00  0.0000E+00  0.0000E+00  0.0000E+00  0.0000E+00  0.0000E+00  0.0000E+00  0.0000E+00  0.0000E+00  0.0000E+00
    -29.919  0.0000E+00  0.0000E+00  0.0000E+00  0.0000E+00  0.0000E+00  0.0000E+00  0.0000E+00  0.0000E+00  0.0000E+00  0.0000E+00  0.0000E+00  0.0000E+00  0.0000E+00  0.0000E+00  0.0000E+00  0.0000E+00  0.0000E+00  0.0000E+00
    -29.765  0.0000E+00  0.0000E+00  0.0000E+00  0.0000E+00  0.0000E+00  0.0000E+00  0.0000E+00  0.0000E+00  0.0000E+00  0.0000E+00  0.0000E+00  0.0000E+00  0.0000E+00  0.0000E+00  0.0000E+00  0.0000E+00  0.0000E+00  0.0000E+00
    -29.612  0.0000E+00  0.0000E+00  0.0000E+00  0.0000E+00  0.0000E+00  0.0000E+00  0.0000E+00  0.0000E+00  0.0000E+00  0.0000E+00  0.0000E+00  0.0000E+00  0.0000E+00  0.0000E+00  0.0000E+00  0.0000E+00  0.0000E+00  0.0000E+00
    -29.459  0.0000E+00  0.0000E+00  0.0000E+00  0.0000E+00  0.0000E+00  0.0000E+00  0.0000E+00  0.0000E+00  0.0000E+00  0.0000E+00  0.0000E+00  0.0000E+00  0.0000E+00  0.0000E+00  0.0000E+00  0.0000E+00  0.0000E+00  0.0000E+00
    -29.305  0.0000E+00  0.0000E+00  0.0000E+00  0.0000E+00  0.0000E+00  0.0000E+00  0.0000E+00  0.0000E+00  0.0000E+00  0.0000E+00  0.0000E+00  0.0000E+00  0.0000E+00  0.0000E+00  0.0000E+00  0.0000E+00  0.0000E+00  0.0000E+00
    -29.152  0.0000E+00  0.0000E+00  0.0000E+00  0.0000E+00  0.0000E+00  0.0000E+00  0.0000E+00  0.0000E+00  0.0000E+00  0.0000E+00  0.0000E+00  0.0000E+00  0.0000E+00  0.0000E+00  0.0000E+00  0.0000E+00  0.0000E+00  0.0000E+00
    -28.999  0.0000E+00  0.0000E+00  0.0000E+00  0.0000E+00  0.0000E+00  0.0000E+00  0.0000E+00  0.0000E+00  0.0000E+00  0.0000E+00  0.0000E+00  0.0000E+00  0.0000E+00  0.0000E+00  0.0000E+00  0.0000E+00  0.0000E+00  0.0000E+00
    -28.845  0.0000E+00  0.0000E+00  0.0000E+00  0.0000E+00  0.0000E+00  0.0000E+00  0.0000E+00  0.0000E+00  0.0000E+00  0.0000E+00  0.0000E+00  0.0000E+00  0.0000E+00  0.0000E+00  0.0000E+00  0.0000E+00  0.0000E+00  0.0000E+00
    -28.692  0.0000E+00  0.0000E+00  0.0000E+00  0.0000E+00  0.0000E+00  0.0000E+00  0.0000E+00  0.0000E+00  0.0000E+00  0.0000E+00  0.0000E+00  0.0000E+00  0.0000E+00  0.0000E+00  0.0000E+00  0.0000E+00  0.0000E+00  0.0000E+00
    -28.538  0.0000E+00  0.0000E+00  0.0000E+00  0.0000E+00  0.0000E+00  0.0000E+00  0.0000E+00  0.0000E+00  0.0000E+00  0.0000E+00  0.0000E+00  0.0000E+00  0.0000E+00  0.0000E+00  0.0000E+00  0.0000E+00  0.0000E+00  0.0000E+00
    -28.385  0.0000E+00  0.0000E+00  0.0000E+00  0.0000E+00  0.0000E+00  0.0000E+00  0.0000E+00  0.0000E+00  0.0000E+00  0.0000E+00  0.0000E+00  0.0000E+00  0.0000E+00  0.0000E+00  0.0000E+00  0.0000E+00  0.0000E+00  0.0000E+00
    -28.232  0.0000E+00  0.0000E+00  0.0000E+00  0.0000E+00  0.0000E+00  0.0000E+00  0.0000E+00  0.0000E+00  0.0000E+00  0.0000E+00  0.0000E+00  0.0000E+00  0.0000E+00  0.0000E+00  0.0000E+00  0.0000E+00  0.0000E+00  0.0000E+00
    -28.078  0.0000E+00  0.0000E+00  0.0000E+00  0.0000E+00  0.0000E+00  0.0000E+00  0.0000E+00  0.0000E+00  0.0000E+00  0.0000E+00  0.0000E+00  0.0000E+00  0.0000E+00  0.0000E+00  0.0000E+00  0.0000E+00  0.0000E+00  0.0000E+00