Automatically generated mesh
      38
Reciprocal lattice
    0.00000000000000    0.00000000000000    0.00000000000000             1
    0.20000000000000    0.00000000000000    0.00000000000000             2
    0.40000000000000    0.00000000000000    0.00000000000000             2
    0.00000000000000    0.20000000000000    0.00000000000000             2
    0.20000000000000    0.20000000000000    0.00000000000000             2
    0.40000000000000    0.20000000000000    0.00000000000000             2
   -0.40000000000000    0.20000000000000    0.00000000000000             2
   -0.20000000000000    0.20000000000000    0.00000000000000             2
    0.00000000000000    0.40000000000000    0.00000000000000             2
    0.20000000000000    0.40000000000000    0.00000000000000             2
    0.40000000000000    0.40000000000000    0.00000000000000             2
   -0.40000000000000    0.40000000000000    0.00000000000000             2
   -0.20000000000000    0.40000000000000    0.00000000000000             2
    0.00000000000000    0.00000000000000    0.33333333333333             2
    0.20000000000000    0.00000000000000    0.33333333333333             2
    0.40000000000000    0.00000000000000    0.33333333333333             2
   -0.40000000000000    0.00000000000000    0.33333333333333             2
   -0.20000000000000    0.00000000000000    0.33333333333333             2
    0.00000000000000    0.20000000000000    0.33333333333333             2
    0.20000000000000    0.20000000000000    0.33333333333333             2
    0.40000000000000    0.20000000000000    0.33333333333333             2
   -0.40000000000000    0.20000000000000    0.33333333333333             2
   -0.20000000000000    0.20000000000000    0.33333333333333             2
    0.00000000000000    0.40000000000000    0.33333333333333             2
    0.20000000000000    0.40000000000000    0.33333333333333             2
    0.40000000000000    0.40000000000000    0.33333333333333             2
   -0.40000000000000    0.40000000000000    0.33333333333333             2
   -0.20000000000000    0.40000000000000    0.33333333333333             2
    0.00000000000000   -0.40000000000000    0.33333333333333             2
    0.20000000000000   -0.40000000000000    0.33333333333333             2
    0.40000000000000   -0.40000000000000    0.33333333333333             2
   -0.40000000000000   -0.40000000000000    0.33333333333333             2
   -0.20000000000000   -0.40000000000000    0.33333333333333             2
    0.00000000000000   -0.20000000000000    0.33333333333333             2
    0.20000000000000   -0.20000000000000    0.33333333333333             2
    0.40000000000000   -0.20000000000000    0.33333333333333             2
   -0.40000000000000   -0.20000000000000    0.33333333333333             2
   -0.20000000000000   -0.20000000000000    0.33333333333333             2
Tetrahedra
       222    0.00222222222222
         2         1         2         4        15
         2         2         4         5        15
         2         4         5        15        20
         2         1         4        14        15
         2         4        14        15        19
         2         4        15        19        20
         2         2         3         5        16
         2         3         5         6        16
         2         5         6        16        21
         2         2         5        15        16
         2         5        15        16        20
         2         5        16        20        21
         2         3         3         6        17
         2         3         6         7        17
         2         6         7        17        22
         2         3         6        16        17
         2         6        16        17        21
         2         6        17        21        22
         2         2         3         7        18
         2         2         7         8        18
         2         7         8        18        23
         2         3         7        17        18
         2         7        17        18        22
         2         7        18        22        23
         2         1         2         8        14
         2         1         4         8        14
         2         4         8        14        19
         2         2         8        14        18
         2         8        14        18        23
         2         8        14        19        23
         2         4         5         9        20
         2         5         9        10        20
         2         9        10        20        25
         2         4         9        19        20
         2         9        19        20        24
         2         9        20        24        25
         2         5         6        10        21
         2         6        10        11        21
         2        10        11        21        26
         2         5        10        20        21
         2        10        20        21        25
         2        10        21        25        26
         2         6         7        11        22
         2         7        11        12        22
         2        11        12        22        27
         2         6        11        21        22
         2        11        21        22        26
         2        11        22        26        27
         2         7         8        12        23
         2         8        12        13        23
         2        12        13        23        28
         2         7        12        22        23
         2        12        22        23        27
         2        12        23        27        28
         2         4         8        13        19
         2         4         9        13        19
         2         9        13        19        24
         2         8        13        19        23
         2        13        19        23        28
         2        13        19        24        28
         2         9         9        10        25
         2         9        10        13        25
         2         9        13        25        30
         2         9         9        24        25
         2         9        24        25        29
         2         9        25        29        30
         2        10        11        13        26
         2        11        12        13        26
         2        12        13        26        31
         2        10        13        25        26
         2        13        25        26        30
         2        13        26        30        31
         4        11        12        12        27
         2        11        12        27        32
         2        11        12        26        27
         2        12        26        27        31
         2        12        27        31        32
         2        11        12        13        28
         2        10        11        13        28
         2        10        11        28        33
         2        11        12        27        28
         2        11        27        28        32
         2        11        28        32        33
         2         9        10        13        24
         2         9         9        10        24
         2         9        10        24        29
         2        10        13        24        28
         2        10        24        28        33
         2        10        24        29        33
         2         4         9        13        30
         2         4         8        13        30
         2         4         8        30        35
         2         4         9        29        30
         2         4        29        30        34
         2         4        30        34        35
         2         8        12        13        31
         2         7         8        12        31
         2         7         8        31        36
         2         8        13        30        31
         2         8        30        31        35
         2         8        31        35        36
         2         7        11        12        32
         2         6         7        11        32
         2         6         7        32        37
         2         7        12        31        32
         2         7        31        32        36
         2         7        32        36        37
         2         6        10        11        33
         2         5         6        10        33
         2         5         6        33        38
         2         6        11        32        33
         2         6        32        33        37
         2         6        33        37        38
         2         5         9        10        29
         2         4         5         9        29
         2         4         5        29        34
         2         5        10        29        33
         2         5        29        33        38
         2         5        29        34        38
         2         1         4         8        35
         2         1         2         8        35
         2         1         2        15        35
         2         1         4        34        35
         2         1        14        34        35
         2         1        14        15        35
         2         2         7         8        36
         2         2         3         7        36
         2         2         3        16        36
         2         2         8        35        36
         2         2        15        35        36
         2         2        15        16        36
         2         3         6         7        37
         2         3         3         6        37
         2         3         3        17        37
         2         3         7        36        37
         2         3        16        36        37
         2         3        16        17        37
         2         3         5         6        38
         2         2         3         5        38
         2         2         3        18        38
         2         3         6        37        38
         2         3        17        37        38
         2         3        17        18        38
         2         2         4         5        34
         2         1         2         4        34
         2         1         2        14        34
         2         2         5        34        38
         2         2        18        34        38
         2         2        14        18        34
         2        14        15        18        19
         2        15        18        19        20
         2        18        19        20        38
         2        14        14        18        19
         2        14        18        19        34
         2        18        19        34        38
         2        15        16        17        20
         2        16        17        20        21
         2        17        20        21        37
         2        15        17        18        20
         2        17        18        20        38
         2        17        20        37        38
         4        16        16        17        21
         2        16        17        21        22
         2        16        21        22        36
         2        16        17        21        37
         2        16        21        36        37
         2        15        17        18        22
         2        15        18        22        23
         2        15        22        23        35
         2        15        16        17        22
         2        15        16        22        36
         2        15        22        35        36
         2        14        14        18        23
         2        14        14        19        23
         2        14        19        23        34
         2        14        15        18        23
         2        14        15        23        35
         2        14        23        34        35
         2        19        20        24        38
         2        20        24        25        38
         2        24        25        33        38
         2        19        24        34        38
         2        24        29        34        38
         2        24        29        33        38
         2        20        21        25        37
         2        21        25        26        37
         2        25        26        32        37
         2        20        25        37        38
         2        25        33        37        38
         2        25        32        33        37
         2        21        22        26        36
         2        22        26        27        36
         2        26        27        31        36
         2        21        26        36        37
         2        26        32        36        37
         2        26        31        32        36
         2        22        23        27        35
         2        23        27        28        35
         2        27        28        30        35
         2        22        27        35        36
         2        27        31        35        36
         2        27        30        31        35
         2        19        23        28        34
         2        19        24        28        34
         2        24        28        29        34
         2        23        28        34        35
         2        28        30        34        35
         2        28        29        30        34
         2        24        25        29        33
         2        25        29        30        33
         2        28        29        30        33
         4        24        29        29        33
         2        24        28        29        33
         2        25        26        30        32
         2        26        30        31        32
         2        27        30        31        32
         2        25        30        32        33
         2        28        30        32        33
         2        27        28        30        32
         2        26        27        31        31
         2        27        31        31        32
         2        26        31        31        32
