       N       E                     dE             d eps       ncg     rms          rms(c)
DAV:   1    -0.201991297827E+02   -0.20199E+02   -0.40768E+03 15040   0.375E+02
DAV:   2    -0.560364931679E+02   -0.35837E+02   -0.34942E+02 18884   0.953E+01
DAV:   3    -0.573625980569E+02   -0.13261E+01   -0.13191E+01 18208   0.175E+01
DAV:   4    -0.573659259528E+02   -0.33279E-02   -0.33275E-02 17672   0.104E+00
DAV:   5    -0.573659379796E+02   -0.12027E-04   -0.12027E-04 16604   0.574E-02    0.120E+01
DAV:   6    -0.554808692028E+02    0.18851E+01   -0.51170E-01 16096   0.344E+00    0.684E+00
DAV:   7    -0.545599870134E+02    0.92088E+00   -0.13387E+00 16620   0.579E+00    0.620E-01
DAV:   8    -0.545818974816E+02   -0.21910E-01   -0.66925E-02 16420   0.138E+00    0.431E-01
DAV:   9    -0.545781318507E+02    0.37656E-02   -0.50383E-03 17808   0.399E-01    0.547E-02
DAV:  10    -0.545782076155E+02   -0.75765E-04   -0.33163E-04 17764   0.993E-02
   1 F= -.54578208E+02 E0= -.54577965E+02  d E =-.545782E+02
       N       E                     dE             d eps       ncg     rms          rms(c)
DAV:   1    -0.545791136536E+02   -0.98180E-03   -0.52425E-02 17160   0.134E+00    0.101E-01
DAV:   2    -0.545792186304E+02   -0.10498E-03   -0.21595E-03 17100   0.257E-01    0.739E-02
DAV:   3    -0.545791492585E+02    0.69372E-04   -0.98430E-05 15328   0.955E-02
   2 F= -.54579149E+02 E0= -.54578904E+02  d E =-.941643E-03
       N       E                     dE             d eps       ncg     rms          rms(c)
DAV:   1    -0.545795079606E+02   -0.28933E-03   -0.62176E-03 16816   0.454E-01    0.385E-02
DAV:   2    -0.545795104000E+02   -0.24395E-05   -0.24207E-04 15688   0.876E-02
   3 F= -.54579510E+02 E0= -.54579265E+02  d E =-.130278E-02
       N       E                     dE             d eps       ncg     rms          rms(c)
DAV:   1    -0.545808504472E+02   -0.13425E-02   -0.99804E-03 15920   0.539E-01    0.350E-02
DAV:   2    -0.545808667081E+02   -0.16261E-04   -0.18251E-04 16832   0.721E-02
   4 F= -.54580867E+02 E0= -.54580620E+02  d E =-.135631E-02
       N       E                     dE             d eps       ncg     rms          rms(c)
DAV:   1    -0.545842946319E+02   -0.34442E-02   -0.88712E-02 16084   0.161E+00    0.108E-01
DAV:   2    -0.545844276297E+02   -0.13300E-03   -0.13021E-03 17688   0.192E-01    0.707E-02
DAV:   3    -0.545844526580E+02   -0.25028E-04   -0.11590E-04 13828   0.610E-02
   5 F= -.54584453E+02 E0= -.54584199E+02  d E =-.494226E-02
       N       E                     dE             d eps       ncg     rms          rms(c)
DAV:   1    -0.545886203439E+02   -0.41927E-02   -0.35628E-01 16048   0.322E+00    0.214E-01
DAV:   2    -0.545892041663E+02   -0.58382E-03   -0.55959E-03 17636   0.398E-01    0.141E-01
DAV:   3    -0.545893075529E+02   -0.10339E-03   -0.47442E-04 17500   0.120E-01    0.173E-02
DAV:   4    -0.545893144829E+02   -0.69300E-05   -0.76045E-05 10652   0.445E-02
   6 F= -.54589314E+02 E0= -.54589048E+02  d E =-.980408E-02
       N       E                     dE             d eps       ncg     rms          rms(c)
DAV:   1    -0.545871879275E+02    0.21196E-02   -0.14377E+00 16032   0.648E+00    0.433E-01
DAV:   2    -0.545894557288E+02   -0.22678E-02   -0.22782E-02 17640   0.802E-01    0.284E-01
DAV:   3    -0.545898197716E+02   -0.36404E-03   -0.19564E-03 17484   0.242E-01    0.351E-02
DAV:   4    -0.545898469785E+02   -0.27207E-04   -0.31148E-04 17152   0.895E-02
   7 F= -.54589847E+02 E0= -.54589556E+02  d E =-.103366E-01
       N       E                     dE             d eps       ncg     rms          rms(c)
DAV:   1    -0.545933985867E+02   -0.35788E-02   -0.25725E-01 15956   0.288E+00    0.210E-01
DAV:   2    -0.545944146664E+02   -0.10161E-02   -0.16327E-02 17296   0.625E-01    0.153E-01
DAV:   3    -0.545940927443E+02    0.32192E-03   -0.61526E-04 17576   0.170E-01    0.196E-02
DAV:   4    -0.545941208444E+02   -0.28100E-04   -0.22425E-04 13588   0.780E-02
   8 F= -.54594121E+02 E0= -.54593825E+02  d E =-.427387E-02
       N       E                     dE             d eps       ncg     rms          rms(c)
DAV:   1    -0.545956963586E+02   -0.16036E-02   -0.31681E-02 15976   0.101E+00    0.719E-02
DAV:   2    -0.545958079017E+02   -0.11154E-03   -0.19211E-03 17080   0.214E-01    0.520E-02
DAV:   3    -0.545957646117E+02    0.43290E-04   -0.70586E-05 11812   0.603E-02
   9 F= -.54595765E+02 E0= -.54595470E+02  d E =-.591763E-02
       N       E                     dE             d eps       ncg     rms          rms(c)
DAV:   1    -0.545972920140E+02   -0.14841E-02   -0.10440E-01 15764   0.178E+00    0.126E-01
DAV:   2    -0.545977317709E+02   -0.43976E-03   -0.67508E-03 17312   0.379E-01    0.926E-02
DAV:   3    -0.545976062203E+02    0.12555E-03   -0.22508E-04 16472   0.949E-02    0.129E-02
DAV:   4    -0.545976164347E+02   -0.10214E-04   -0.80261E-05 10292   0.439E-02
  10 F= -.54597616E+02 E0= -.54597331E+02  d E =-.185182E-02
       N       E                     dE             d eps       ncg     rms          rms(c)
DAV:   1    -0.545979029079E+02   -0.29669E-03   -0.79972E-03 15776   0.494E-01    0.336E-02
DAV:   2    -0.545979354441E+02   -0.32536E-04   -0.50220E-04 15208   0.104E-01
  11 F= -.54597935E+02 E0= -.54597648E+02  d E =-.217083E-02
