Automatically generated mesh
      31
Reciprocal lattice
    0.00000000000000    0.00000000000000    0.00000000000000             1
    0.20000000000000    0.00000000000000    0.00000000000000             2
    0.40000000000000    0.00000000000000    0.00000000000000             2
    0.00000000000000    0.25000000000000    0.00000000000000             2
    0.20000000000000    0.25000000000000    0.00000000000000             2
    0.40000000000000    0.25000000000000    0.00000000000000             2
   -0.40000000000000    0.25000000000000    0.00000000000000             2
   -0.20000000000000    0.25000000000000    0.00000000000000             2
    0.00000000000000    0.50000000000000    0.00000000000000             1
    0.20000000000000    0.50000000000000    0.00000000000000             2
    0.40000000000000    0.50000000000000    0.00000000000000             2
    0.00000000000000    0.00000000000000    0.33333333333333             2
    0.20000000000000    0.00000000000000    0.33333333333333             2
    0.40000000000000    0.00000000000000    0.33333333333333             2
   -0.40000000000000    0.00000000000000    0.33333333333333             2
   -0.20000000000000    0.00000000000000    0.33333333333333             2
    0.00000000000000    0.25000000000000    0.33333333333333             2
    0.20000000000000    0.25000000000000    0.33333333333333             2
    0.40000000000000    0.25000000000000    0.33333333333333             2
   -0.40000000000000    0.25000000000000    0.33333333333333             2
   -0.20000000000000    0.25000000000000    0.33333333333333             2
    0.00000000000000    0.50000000000000    0.33333333333333             2
    0.20000000000000    0.50000000000000    0.33333333333333             2
    0.40000000000000    0.50000000000000    0.33333333333333             2
   -0.40000000000000    0.50000000000000    0.33333333333333             2
   -0.20000000000000    0.50000000000000    0.33333333333333             2
    0.00000000000000   -0.25000000000000    0.33333333333333             2
    0.20000000000000   -0.25000000000000    0.33333333333333             2
    0.40000000000000   -0.25000000000000    0.33333333333333             2
   -0.40000000000000   -0.25000000000000    0.33333333333333             2
   -0.20000000000000   -0.25000000000000    0.33333333333333             2
Tetrahedra
       178    0.00277777777778
         2         1         2         4        13
         2         2         4         5        13
         2         4         5        13        18
         2         1         4        12        13
         2         4        12        13        17
         2         4        13        17        18
         2         2         3         5        14
         2         3         5         6        14
         2         5         6        14        19
         2         2         5        13        14
         2         5        13        14        18
         2         5        14        18        19
         2         3         3         6        15
         2         3         6         7        15
         2         6         7        15        20
         2         3         6        14        15
         2         6        14        15        19
         2         6        15        19        20
         2         2         3         7        16
         2         2         7         8        16
         2         7         8        16        21
         2         3         7        15        16
         2         7        15        16        20
         2         7        16        20        21
         2         1         2         8        12
         2         1         4         8        12
         2         4         8        12        17
         2         2         8        12        16
         2         8        12        16        21
         2         8        12        17        21
         2         4         5         9        18
         2         5         9        10        18
         2         9        10        18        23
         2         4         9        17        18
         2         9        17        18        22
         2         9        18        22        23
         2         5         6        10        19
         2         6        10        11        19
         2        10        11        19        24
         2         5        10        18        19
         2        10        18        19        23
         2        10        19        23        24
         2         6         7        11        20
         2         7        11        11        20
         2        11        11        20        25
         2         6        11        19        20
         2        11        19        20        24
         2        11        20        24        25
         2         7         8        11        21
         2         8        10        11        21
         2        10        11        21        26
         2         7        11        20        21
         2        11        20        21        25
         2        11        21        25        26
         2         4         8        10        17
         2         4         9        10        17
         2         9        10        17        22
         2         8        10        17        21
         2        10        17        21        26
         2        10        17        22        26
         2         4         9        10        23
         2         4         8        10        23
         2         4         8        23        28
         2         4         9        22        23
         2         4        22        23        27
         2         4        23        27        28
         2         8        10        11        24
         2         7         8        11        24
         2         7         8        24        29
         2         8        10        23        24
         2         8        23        24        28
         2         8        24        28        29
         2         7        11        11        25
         2         6         7        11        25
         2         6         7        25        30
         2         7        11        24        25
         2         7        24        25        29
         2         7        25        29        30
         2         6        10        11        26
         2         5         6        10        26
         2         5         6        26        31
         2         6        11        25        26
         2         6        25        26        30
         2         6        26        30        31
         2         5         9        10        22
         2         4         5         9        22
         2         4         5        22        27
         2         5        10        22        26
         2         5        22        26        31
         2         5        22        27        31
         2         1         4         8        28
         2         1         2         8        28
         2         1         2        13        28
         2         1         4        27        28
         2         1        12        27        28
         2         1        12        13        28
         2         2         7         8        29
         2         2         3         7        29
         2         2         3        14        29
         2         2         8        28        29
         2         2        13        28        29
         2         2        13        14        29
         2         3         6         7        30
         2         3         3         6        30
         2         3         3        15        30
         2         3         7        29        30
         2         3        14        29        30
         2         3        14        15        30
         2         3         5         6        31
         2         2         3         5        31
         2         2         3        16        31
         2         3         6        30        31
         2         3        15        30        31
         2         3        15        16        31
         2         2         4         5        27
         2         1         2         4        27
         2         1         2        12        27
         2         2         5        27        31
         2         2        16        27        31
         2         2        12        16        27
         2        12        13        16        17
         2        13        16        17        18
         2        16        17        18        31
         2        12        12        16        17
         2        12        16        17        27
         2        16        17        27        31
         2        13        14        15        18
         2        14        15        18        19
         2        15        18        19        30
         2        13        15        16        18
         2        15        16        18        31
         2        15        18        30        31
         4        14        14        15        19
         2        14        15        19        20
         2        14        19        20        29
         2        14        15        19        30
         2        14        19        29        30
         2        13        15        16        20
         2        13        16        20        21
         2        13        20        21        28
         2        13        14        15        20
         2        13        14        20        29
         2        13        20        28        29
         2        12        12        16        21
         2        12        12        17        21
         2        12        17        21        27
         2        12        13        16        21
         2        12        13        21        28
         2        12        21        27        28
         2        17        18        22        31
         2        18        22        23        31
         2        22        23        26        31
         2        17        22        27        31
         2        22        22        27        31
         2        22        22        26        31
         2        18        19        23        30
         2        19        23        24        30
         2        23        24        25        30
         2        18        23        30        31
         2        23        26        30        31
         2        23        25        26        30
         2        19        20        24        29
         2        20        24        25        29
         4        24        24        25        29
         2        19        24        29        30
         2        24        25        29        30
         2        20        21        25        28
         2        21        25        26        28
         2        23        25        26        28
         2        20        25        28        29
         2        24        25        28        29
         2        23        24        25        28
         2        17        21        26        27
         2        17        22        26        27
         2        22        22        26        27
         2        21        26        27        28
         2        23        26        27        28
         2        22        23        26        27
