unknown system                          
           1
     5.508064    0.031224   -0.013341
     0.083448    5.588747   -0.050939
     1.699700    1.128307    5.546940
   Sr   Nb   H 
   1   2  18
Direct configuration=     1
   0.29182200  0.62597900  0.14461600
   0.65754700  0.42848900  0.56109700
   0.80112200  0.91970400  0.59012400
   0.33453400  0.43712100  0.55673300
   0.51831600  0.12205600  0.56478900
   0.95413800  0.41747800  0.02697600
   0.06877400  0.41128300  0.92022000
   0.13204300  0.89358400  0.45056100
   0.43683400  0.36004600  0.85491000
   0.85311400  0.59262600  0.70936700
   0.50395000  0.72697200  0.64123200
   0.67543500  0.84170500  0.90384900
   0.10833200  0.03738100  0.09656500
   0.09394300  0.01774400  0.97680000
   0.53465400  0.03230700  0.12388900
   0.45339800  0.02137400  0.25422700
   0.62986800  0.43897800  0.26463800
   0.83276700  0.71310100  0.34641400
   0.92719300  0.24603200  0.39173200
   0.77186500  0.18356000  0.76519400
   0.01200800  0.88373100  0.76663900
unknown system                          
           1
     5.562733    0.031675   -0.012640
     0.084379    5.649483   -0.052262
     1.717432    1.139758    5.600002
   Sr   Nb   H 
   1   2  18
Direct configuration=     2
   0.29197930  0.62604023  0.14470843
   0.65704287  0.42800876  0.56139974
   0.80160490  0.91942761  0.59132789
   0.33502989  0.43726097  0.55680659
   0.51838309  0.12199789  0.56501007
   0.95452060  0.41764804  0.02671194
   0.06866346  0.41150996  0.92058701
   0.13154980  0.89343974  0.45063111
   0.43697366  0.36023041  0.85455884
   0.85303010  0.59273358  0.70889303
   0.50428747  0.72684051  0.64119331
   0.67572718  0.84182671  0.90312593
   0.10836085  0.03743765  0.09673509
   0.09405074  0.01748858  0.97651168
   0.53422088  0.03227922  0.12477810
   0.45369357  0.02142110  0.25353374
   0.62975217  0.43895189  0.26484068
   0.83257763  0.71308335  0.34647682
   0.92690142  0.24619106  0.39184552
   0.77169134  0.18376225  0.76477440
   0.01161607  0.88367149  0.76612208
unknown system                          
           1
     5.635095    0.032271   -0.011712
     0.085612    5.729875   -0.054013
     1.740903    1.154915    5.670236
   Sr   Nb   H 
   1   2  18
Direct configuration=     3
   0.29218544  0.62612040  0.14482961
   0.65638204  0.42737990  0.56179666
   0.80223744  0.91906554  0.59290616
   0.33567983  0.43744424  0.55690300
   0.51847095  0.12192176  0.56529990
   0.95502214  0.41787073  0.02636568
   0.06851844  0.41180708  0.92106826
   0.13090336  0.89325084  0.45072310
   0.43715682  0.36047192  0.85409843
   0.85292029  0.59287451  0.70827165
   0.50472982  0.72666834  0.64114249
   0.67611038  0.84198619  0.90217787
   0.10839860  0.03751181  0.09695811
   0.09419208  0.01715419  0.97613359
   0.53365289  0.03224270  0.12594388
   0.45408120  0.02148288  0.25262476
   0.62960028  0.43891767  0.26510644
   0.83232940  0.71306022  0.34655922
   0.92651921  0.24639932  0.39199445
   0.77146385  0.18402713  0.76422433
   0.01110254  0.88359365  0.76544441
unknown system                          
           1
     5.627120    0.032235   -0.010180
     0.085604    5.698615   -0.061035
     1.740027    1.141578    5.659865
   Sr   Nb   H 
   1   2  18
Direct configuration=     4
   0.29290454  0.62629459  0.14508528
   0.65592319  0.42806150  0.56133668
   0.80084454  0.91758062  0.59247504
   0.33917532  0.43762927  0.55681948
   0.52192408  0.12244942  0.56575412
   0.95762196  0.41808222  0.02434275
   0.06652522  0.41229752  0.92346435
   0.12732772  0.89305677  0.45205124
   0.43885558  0.36157360  0.85168955
   0.85110972  0.59371363  0.70614075
   0.50858031  0.72600886  0.64036861
   0.67659381  0.84212515  0.90052153
   0.10775463  0.03610778  0.09057919
   0.09515084  0.01776805  0.98236881
   0.53376932  0.03219958  0.12586402
   0.45376540  0.02134034  0.25289495
   0.62920356  0.43906473  0.26836932
   0.83085993  0.71199389  0.34994775
   0.92360623  0.24583299  0.39451191
   0.77060638  0.18428700  0.76156725
   0.00955470  0.88378349  0.76441941
unknown system                          
           1
     5.631203    0.032253   -0.010964
     0.085608    5.714617   -0.057441
     1.740475    1.148405    5.665174
   Sr   Nb   H 
   1   2  18
Direct configuration=     5
   0.29253598  0.62620468  0.14495414
   0.65615849  0.42771124  0.56157207
   0.80155818  0.91834521  0.59269693
   0.33738331  0.43753405  0.55686267
   0.52015399  0.12217735  0.56552129
   0.95628870  0.41797537  0.02538043
   0.06754776  0.41204279  0.92223491
   0.12916111  0.89315539  0.45136974
   0.43798439  0.36100909  0.85292445
   0.85203767  0.59328403  0.70723278
   0.50660594  0.72634890  0.64076646
   0.67634562  0.84205530  0.90137096
   0.10808297  0.03683672  0.09385148
   0.09466089  0.01744585  0.97917078
   0.53370960  0.03222185  0.12590502
   0.45392733  0.02141342  0.25275643
   0.62940773  0.43898577  0.26669579
   0.83161380  0.71253922  0.34821044
   0.92510007  0.24612194  0.39322080
   0.77104543  0.18415598  0.76292965
   0.01034805  0.88368688  0.76494475
unknown system                          
           1
     5.635253    0.034070   -0.007441
     0.087652    5.682796   -0.061474
     1.745720    1.138666    5.676198
   Sr   Nb   H 
   1   2  18
Direct configuration=     6
   0.29370500  0.62630947  0.14543405
   0.65671616  0.42822425  0.56123917
   0.79946886  0.91721024  0.59185272
   0.34134229  0.43787815  0.55675080
   0.52442808  0.12267569  0.56609560
   0.95596072  0.41849093  0.02625148
   0.06873056  0.41254410  0.92185952
   0.12481323  0.89278247  0.45292098
   0.43988424  0.36245521  0.85010408
   0.84982118  0.59405066  0.70462686
   0.51120718  0.72549042  0.63991539
   0.67681066  0.84209233  0.89953692
   0.10839115  0.03665185  0.09482541
   0.09492068  0.01674175  0.97802471
   0.53382149  0.03217316  0.12588203
   0.45351376  0.02126633  0.25308909
   0.62873034  0.43924862  0.27048047
   0.82988714  0.71122444  0.35231725
   0.92138924  0.24531880  0.39636212
   0.76993593  0.18459926  0.75952453
   0.00817910  0.88382287  0.76347884
unknown system                          
           1
     5.635941    0.034379   -0.006842
     0.087999    5.677387   -0.062160
     1.746611    1.137011    5.678072
   Sr   Nb   H 
   1   2  18
Direct configuration=     7
   0.29390358  0.62632752  0.14551536
   0.65681087  0.42831180  0.56118270
   0.79911406  0.91701602  0.59170956
   0.34201489  0.43793679  0.55673145
   0.52515416  0.12276094  0.56619265
   0.95590488  0.41857937  0.02639937
   0.06893149  0.41262961  0.92179577
   0.12407446  0.89271943  0.45318458
   0.44020703  0.36270131  0.84962555
   0.84944467  0.59418083  0.70418506
   0.51198910  0.72534324  0.63977039
   0.67688978  0.84209799  0.89922570
   0.10844347  0.03662060  0.09499059
   0.09496497  0.01662099  0.97783014
   0.53384051  0.03216483  0.12587811
   0.45344348  0.02124132  0.25314555
   0.62861498  0.43929492  0.27112270
   0.82959368  0.71100124  0.35301405
   0.92075866  0.24518277  0.39689537
   0.76974759  0.18467384  0.75894697
   0.00781067  0.88384566  0.76323037
unknown system                          
           1
     5.668886    0.038216   -0.003602
     0.092339    5.677228   -0.066602
     1.760915    1.133984    5.708608
   Sr   Nb   H 
   1   2  18
Direct configuration=     8
   0.29503583  0.62602180  0.14607354
   0.65879311  0.42698332  0.56207852
   0.79970321  0.91994299  0.59185198
   0.34353278  0.43850537  0.55662085
   0.52731842  0.12261905  0.56645634
   0.95691145  0.41913503  0.02599978
   0.06869292  0.41331780  0.92260884
   0.12158683  0.89207788  0.45358363
   0.44088383  0.36392212  0.84825478
   0.84831265  0.59385735  0.70277366
   0.51378195  0.72458274  0.63960421
   0.67662445  0.84182178  0.89816381
   0.10855902  0.03631192  0.09531735
   0.09530481  0.01590763  0.97720595
   0.53316302  0.03202764  0.12694974
   0.45367707  0.02126537  0.25236659
   0.62780423  0.43967444  0.27270563
   0.82894569  0.71027919  0.35499684
   0.91844082  0.24418271  0.39856345
   0.76896415  0.18491318  0.75668720
   0.00562077  0.88390169  0.76170931
unknown system                          
           1
     5.677487    0.039218   -0.002756
     0.093472    5.677186   -0.067762
     1.764649    1.133194    5.716580
   Sr   Nb   H 
   1   2  18
Direct configuration=     9
   0.29532972  0.62594207  0.14621825
   0.65930786  0.42663663  0.56231059
   0.79985536  0.92070704  0.59188946
   0.34392671  0.43865355  0.55659201
   0.52788025  0.12258182  0.56652446
   0.95717271  0.41927977  0.02589598
   0.06863062  0.41349782  0.92282016
   0.12094109  0.89191092  0.45368750
   0.44105953  0.36424014  0.84789896
   0.84801918  0.59377247  0.70240724
   0.51424763  0.72438390  0.63956063
   0.67655588  0.84174927  0.89788803
   0.10858902  0.03623147  0.09540213
   0.09539336  0.01572110  0.97704366
   0.53298692  0.03199237  0.12722811
   0.45373789  0.02127128  0.25216428
   0.62759328  0.43977429  0.27311690
   0.82877720  0.71009163  0.35551169
   0.91783896  0.24392266  0.39899678
   0.76876123  0.18497482  0.75610054
   0.00505259  0.88391598  0.76131465
unknown system                          
           1
     5.695291    0.040333   -0.001480
     0.094840    5.680591   -0.069764
     1.771704    1.132354    5.732308
   Sr   Nb   H 
   1   2  18
Direct configuration=    10
   0.29590119  0.62578317  0.14650459
   0.65939710  0.42678441  0.56234277
   0.79986018  0.92080124  0.59207654
   0.34470612  0.43889851  0.55658142
   0.52862533  0.12253800  0.56662087
   0.95745481  0.41956855  0.02588292
   0.06869652  0.41382289  0.92302062
   0.12010955  0.89167516  0.45371398
   0.44132260  0.36476366  0.84742360
   0.84768907  0.59374254  0.70188361
   0.51498247  0.72420240  0.63950972
   0.67641128  0.84170271  0.89742065
   0.10857114  0.03597842  0.09498686
   0.09561665  0.01547518  0.97730527
   0.53287191  0.03196173  0.12739772
   0.45364018  0.02127132  0.25213808
   0.62732751  0.43993024  0.27380670
   0.82862079  0.70984583  0.35623712
   0.91709535  0.24346576  0.39949743
   0.76852316  0.18502711  0.75544843
   0.00423410  0.88401217  0.76077309
unknown system                          
           1
     5.748704    0.043678    0.002349
     0.098945    5.690804   -0.075771
     1.792868    1.129835    5.779494
   Sr   Nb   H 
   1   2  18
Direct configuration=    11
   0.29761016  0.62530714  0.14736070
   0.65966384  0.42722749  0.56243914
   0.79987427  0.92108402  0.59263633
   0.34703694  0.43963258  0.55654947
   0.53085364  0.12240655  0.56690876
   0.95829824  0.42043416  0.02584396
   0.06889304  0.41479785  0.92362064
   0.11762274  0.89096875  0.45379352
   0.44210947  0.36633207  0.84600181
   0.84670242  0.59365187  0.70031721
   0.51718048  0.72365784  0.63935673
   0.67597941  0.84156222  0.89602237
   0.10851843  0.03521891  0.09374420
   0.09628439  0.01473836  0.97808758
   0.53252776  0.03187028  0.12790522
   0.45334799  0.02127139  0.25205977
   0.62653164  0.44039934  0.27587077
   0.82815240  0.70911051  0.35840730
   0.91487121  0.24209732  0.40099534
   0.76781186  0.18518260  0.75349768
   0.00178668  0.88429974  0.75915349
unknown system                          
           1
     5.754931    0.043135    0.003563
     0.098475    5.693900   -0.075928
     1.795920    1.130151    5.784136
   Sr   Nb   H 
   1   2  18
Direct configuration=    12
   0.29790628  0.62520287  0.14753960
   0.65842124  0.42782829  0.56199716
   0.79922542  0.91917912  0.59264852
   0.34752773  0.43972389  0.55661599
   0.53082449  0.12248910  0.56690365
   0.95825421  0.42059335  0.02599774
   0.06905919  0.41494051  0.92354348
   0.11771589  0.89098954  0.45360978
   0.44222426  0.36652268  0.84594999
   0.84685573  0.59382399  0.70032188
   0.51738092  0.72402512  0.63937462
   0.67591138  0.84170514  0.89586059
   0.10848797  0.03507818  0.09349066
   0.09638746  0.01464024  0.97825351
   0.53254674  0.03186587  0.12781873
   0.45321585  0.02128606  0.25220572
   0.62663424  0.44045082  0.27612704
   0.82831956  0.70918317  0.35839201
   0.91504209  0.24200886  0.40078560
   0.76786916  0.18526917  0.75382708
   0.00184719  0.88444502  0.75930865
unknown system                          
           1
     5.759591    0.042728    0.004472
     0.098124    5.696216   -0.076046
     1.798204    1.130387    5.787610
   Sr   Nb   H 
   1   2  18
Direct configuration=    13
   0.29812758  0.62512495  0.14767330
   0.65749256  0.42827741  0.56166692
   0.79874029  0.91775451  0.59265771
   0.34789457  0.43979224  0.55666565
   0.53080271  0.12255083  0.56689984
   0.95822128  0.42071241  0.02611272
   0.06918340  0.41504722  0.92348577
   0.11778557  0.89100508  0.45347239
   0.44231009  0.36666523  0.84591123
   0.84697034  0.59395273  0.70032535
   0.51753076  0.72429980  0.63938796
   0.67586058  0.84181199  0.89573964
   0.10846524  0.03497291  0.09330110
   0.09646446  0.01456689  0.97837755
   0.53256095  0.03186256  0.12775406
   0.45311705  0.02129703  0.25231486
   0.62671088  0.44048935  0.27631862
   0.82844451  0.70923752  0.35838055
   0.91516986  0.24194271  0.40062877
   0.76791193  0.18533394  0.75407335
   0.00189240  0.88455368  0.75942465
