       N       E                     dE             d eps       ncg     rms          rms(c)
DAV:   1     0.111902584859E+03    0.11190E+03   -0.99565E+03 18336   0.666E+02
DAV:   2    -0.375983716618E+02   -0.14950E+03   -0.14307E+03 22440   0.264E+02
DAV:   3    -0.468485600398E+02   -0.92502E+01   -0.91059E+01 29136   0.512E+01
DAV:   4    -0.473249097557E+02   -0.47635E+00   -0.47326E+00 26424   0.974E+00
DAV:   5    -0.473332929234E+02   -0.83832E-02   -0.83796E-02 27240   0.107E+00    0.307E+01
DAV:   6    -0.447170206115E+02    0.26163E+01   -0.44433E+00 26120   0.140E+01    0.134E+01
DAV:   7    -0.440578216426E+02    0.65920E+00   -0.13663E+00 23384   0.576E+00    0.613E+00
DAV:   8    -0.440196481573E+02    0.38173E-01   -0.29575E-01 25512   0.343E+00    0.211E+00
DAV:   9    -0.440183156972E+02    0.13325E-02   -0.42273E-02 26600   0.144E+00    0.377E-01
DAV:  10    -0.440192577131E+02   -0.94202E-03   -0.44171E-03 23064   0.439E-01    0.156E-01
DAV:  11    -0.440201770095E+02   -0.91930E-03   -0.13242E-03 24688   0.236E-01    0.819E-02
DAV:  12    -0.440203273104E+02   -0.15030E-03   -0.27936E-04 21760   0.103E-01    0.537E-02
DAV:  13    -0.440203442814E+02   -0.16971E-04   -0.30109E-05 14752   0.402E-02
   1 F= -.44020344E+02 E0= -.44020270E+02  d E =-.440203E+02
       N       E                     dE             d eps       ncg     rms          rms(c)
DAV:   1    -0.440184492018E+02    0.18781E-02   -0.13662E+00 19632   0.983E+00    0.959E-01
DAV:   2    -0.440270943518E+02   -0.86451E-02   -0.17943E-01 22208   0.270E+00    0.426E-01
DAV:   3    -0.440252224561E+02    0.18719E-02   -0.51700E-03 24760   0.505E-01    0.221E-01
DAV:   4    -0.440246298596E+02    0.59260E-03   -0.27580E-03 29032   0.356E-01    0.154E-01
DAV:   5    -0.440247074297E+02   -0.77570E-04   -0.56037E-04 21744   0.129E-01
   2 F= -.44024707E+02 E0= -.44024632E+02  d E =-.436315E-02
       N       E                     dE             d eps       ncg     rms          rms(c)
DAV:   1    -0.440284664326E+02   -0.38366E-02   -0.24996E-01 19520   0.422E+00    0.389E-01
DAV:   2    -0.440301304756E+02   -0.16640E-02   -0.33341E-02 22168   0.117E+00    0.182E-01
DAV:   3    -0.440298086146E+02    0.32186E-03   -0.97265E-04 24520   0.216E-01    0.961E-02
DAV:   4    -0.440296839350E+02    0.12468E-03   -0.43891E-04 25760   0.146E-01    0.620E-02
DAV:   5    -0.440296939302E+02   -0.99953E-05   -0.10365E-04 15224   0.563E-02
   3 F= -.44029694E+02 E0= -.44029604E+02  d E =-.934965E-02
       N       E                     dE             d eps       ncg     rms          rms(c)
DAV:   1    -0.440402291790E+02   -0.10545E-01   -0.10896E+00 18920   0.897E+00    0.912E-01
DAV:   2    -0.440453463133E+02   -0.51171E-02   -0.16037E-01 19640   0.243E+00
