  14  14   1   0
  0.7967613E+01  0.3244445E-09  0.5984599E-09  0.7018042E-09  0.5000000E-15
  1.000000000000000E-004
  CAR 
 unknown system                          
     12.61267952    -36.84954227  301      1.01959196      1.00000000
    -36.850  0.0000E+00  0.0000E+00  0.0000E+00  0.0000E+00
    -36.685  0.0000E+00  0.0000E+00  0.0000E+00  0.0000E+00
    -36.520  0.0000E+00  0.0000E+00  0.0000E+00  0.0000E+00
    -36.355  0.0000E+00  0.0000E+00  0.0000E+00  0.0000E+00
    -36.190  0.0000E+00  0.0000E+00  0.0000E+00  0.0000E+00
    -36.025  0.0000E+00  0.0000E+00  0.0000E+00  0.0000E+00
    -35.860  0.0000E+00  0.0000E+00  0.0000E+00  0.0000E+00
    -35.695  0.0000E+00  0.0000E+00  0.0000E+00  0.0000E+00
    -35.531  0.0000E+00  0.0000E+00  0.0000E+00  0.0000E+00
    -35.366  0.0000E+00  0.0000E+00  0.0000E+00  0.0000E+00
    -35.201  0.0000E+00  0.0000E+00  0.0000E+00  0.0000E+00
    -35.036  0.0000E+00  0.0000E+00  0.0000E+00  0.0000E+00
    -34.871  0.0000E+00  0.0000E+00  0.0000E+00  0.0000E+00
    -34.706  0.0000E+00  0.0000E+00  0.0000E+00  0.0000E+00
    -34.541  0.6433E-01  0.6433E-01  0.5371E-02  0.5371E-02
    -34.376  0.0000E+00  0.0000E+00  0.1010E-01  0.1010E-01
    -34.212  0.0000E+00  0.0000E+00  0.1010E-01  0.1010E-01
    -34.047  0.0000E+00  0.0000E+00  0.1010E-01  0.1010E-01
    -33.882  0.0000E+00  0.0000E+00  0.1010E-01  0.1010E-01
    -33.717  0.0000E+00  0.0000E+00  0.1010E-01  0.1010E-01
    -33.552  0.0000E+00  0.0000E+00  0.1010E-01  0.1010E-01
    -33.387  0.0000E+00  0.0000E+00  0.1010E-01  0.1010E-01
    -33.222  0.0000E+00  0.0000E+00  0.1010E-01  0.1010E-01
    -33.057  0.0000E+00  0.0000E+00  0.1010E-01  0.1010E-01
    -32.893  0.0000E+00  0.0000E+00  0.1010E-01  0.1010E-01
    -32.728  0.0000E+00  0.0000E+00  0.1010E-01  0.1010E-01
    -32.563  0.0000E+00  0.0000E+00  0.1010E-01  0.1010E-01
    -32.398  0.0000E+00  0.0000E+00  0.1010E-01  0.1010E-01
    -32.233  0.0000E+00  0.0000E+00  0.1010E-01  0.1010E-01
    -32.068  0.0000E+00  0.0000E+00  0.1010E-01  0.1010E-01
    -31.903  0.0000E+00  0.0000E+00  0.1010E-01  0.1010E-01
    -31.738  0.0000E+00  0.0000E+00  0.1010E-01  0.1010E-01
    -31.574  0.0000E+00  0.0000E+00  0.1010E-01  0.1010E-01
    -31.409  0.0000E+00  0.0000E+00  0.1010E-01  0.1010E-01
    -31.244  0.0000E+00  0.0000E+00  0.1010E-01  0.1010E-01
    -31.079  0.0000E+00  0.0000E+00  0.1010E-01  0.1010E-01
    -30.914  0.0000E+00  0.0000E+00  0.1010E-01  0.1010E-01
    -30.749  0.0000E+00  0.0000E+00  0.1010E-01  0.1010E-01
    -30.584  0.0000E+00  0.0000E+00  0.1010E-01  0.1010E-01
    -30.419  0.0000E+00  0.0000E+00  0.1010E-01  0.1010E-01
    -30.255  0.2329E-01  0.2329E-01  0.1539E-01  0.1539E-01
    -30.090  0.0000E+00  0.0000E+00  0.2020E-01  0.2020E-01
    -29.925  0.0000E+00  0.0000E+00  0.4040E-01  0.4040E-01
    -29.760  0.0000E+00  0.0000E+00  0.4040E-01  0.4040E-01
    -29.595  0.0000E+00  0.0000E+00  0.4040E-01  0.4040E-01
    -29.430  0.0000E+00  0.0000E+00  0.4040E-01  0.4040E-01
    -29.265  0.0000E+00  0.0000E+00  0.4040E-01  0.4040E-01
    -29.100  0.0000E+00  0.0000E+00  0.4040E-01  0.4040E-01
    -28.936  0.0000E+00  0.0000E+00  0.4040E-01  0.4040E-01
    -28.771  0.0000E+00  0.0000E+00  0.4040E-01  0.4040E-01
    -28.606  0.0000E+00  0.0000E+00  0.4040E-01  0.4040E-01
    -28.441  0.0000E+00  0.0000E+00  0.4040E-01  0.4040E-01
    -28.276  0.0000E+00  0.0000E+00  0.4040E-01  0.4040E-01
    -28.111  0.0000E+00  0.0000E+00  0.4040E-01  0.4040E-01
    -27.946  0.0000E+00  0.0000E+00  0.4040E-01  0.4040E-01
    -27.781  0.0000E+00  0.0000E+00  0.4040E-01  0.4040E-01
    -27.617  0.0000E+00  0.0000E+00  0.4040E-01  0.4040E-01
    -27.452  0.0000E+00  0.0000E+00  0.4040E-01  0.4040E-01
    -27.287  0.0000E+00  0.0000E+00  0.4040E-01  0.4040E-01
    -27.122  0.0000E+00  0.0000E+00  0.4040E-01  0.4040E-01
    -26.957  0.0000E+00  0.0000E+00  0.4040E-01  0.4040E-01
    -26.792  0.0000E+00  0.0000E+00  0.4040E-01  0.4040E-01
    -26.627  0.0000E+00  0.0000E+00  0.4040E-01  0.4040E-01
    -26.462  0.0000E+00  0.0000E+00  0.4040E-01  0.4040E-01
    -26.298  0.0000E+00  0.0000E+00  0.4040E-01  0.4040E-01
    -26.133  0.0000E+00  0.0000E+00  0.4040E-01  0.4040E-01
    -25.968  0.0000E+00  0.0000E+00  0.4040E-01  0.4040E-01
    -25.803  0.0000E+00  0.0000E+00  0.4040E-01  0.4040E-01
    -25.638  0.0000E+00  0.0000E+00  0.4040E-01  0.4040E-01
    -25.473  0.0000E+00  0.0000E+00  0.4040E-01  0.4040E-01
    -25.308  0.0000E+00  0.0000E+00  0.4040E-01  0.4040E-01
    -25.143  0.0000E+00  0.0000E+00  0.4040E-01  0.4040E-01
    -24.979  0.0000E+00  0.0000E+00  0.4040E-01  0.4040E-01
    -24.814  0.0000E+00  0.0000E+00  0.4040E-01  0.4040E-01
    -24.649  0.0000E+00  0.0000E+00  0.4040E-01  0.4040E-01
    -24.484  0.0000E+00  0.0000E+00  0.4040E-01  0.4040E-01
    -24.319  0.0000E+00  0.0000E+00  0.4040E-01  0.4040E-01
    -24.154  0.0000E+00  0.0000E+00  0.4040E-01  0.4040E-01
    -23.989  0.0000E+00  0.0000E+00  0.4040E-01  0.4040E-01
    -23.824  0.0000E+00  0.0000E+00  0.4040E-01  0.4040E-01
    -23.660  0.0000E+00  0.0000E+00  0.4040E-01  0.4040E-01
    -23.495  0.0000E+00  0.0000E+00  0.4040E-01  0.4040E-01
    -23.330  0.0000E+00  0.0000E+00  0.4040E-01  0.4040E-01
    -23.165  0.0000E+00  0.0000E+00  0.4040E-01  0.4040E-01
    -23.000  0.0000E+00  0.0000E+00  0.4040E-01  0.4040E-01
    -22.835  0.0000E+00  0.0000E+00  0.4040E-01  0.4040E-01
    -22.670  0.0000E+00  0.0000E+00  0.4040E-01  0.4040E-01
    -22.505  0.0000E+00  0.0000E+00  0.4040E-01  0.4040E-01
    -22.341  0.0000E+00  0.0000E+00  0.4040E-01  0.4040E-01
    -22.176  0.0000E+00  0.0000E+00  0.4040E-01  0.4040E-01
    -22.011  0.0000E+00  0.0000E+00  0.4040E-01  0.4040E-01
    -21.846  0.0000E+00  0.0000E+00  0.4040E-01  0.4040E-01
    -21.681  0.0000E+00  0.0000E+00  0.4040E-01  0.4040E-01
    -21.516  0.0000E+00  0.0000E+00  0.4040E-01  0.4040E-01
    -21.351  0.0000E+00  0.0000E+00  0.4040E-01  0.4040E-01
    -21.187  0.0000E+00  0.0000E+00  0.4040E-01  0.4040E-01
    -21.022  0.0000E+00  0.0000E+00  0.4040E-01  0.4040E-01
    -20.857  0.0000E+00  0.0000E+00  0.4040E-01  0.4040E-01
    -20.692  0.0000E+00  0.0000E+00  0.4040E-01  0.4040E-01
    -20.527  0.0000E+00  0.0000E+00  0.4040E-01  0.4040E-01
    -20.362  0.0000E+00  0.0000E+00  0.4040E-01  0.4040E-01
    -20.197  0.0000E+00  0.0000E+00  0.4040E-01  0.4040E-01
    -20.032  0.0000E+00  0.0000E+00  0.4040E-01  0.4040E-01
    -19.868  0.0000E+00  0.0000E+00  0.4040E-01  0.4040E-01
    -19.703  0.0000E+00  0.0000E+00  0.4040E-01  0.4040E-01
    -19.538  0.0000E+00  0.0000E+00  0.4040E-01  0.4040E-01
    -19.373  0.0000E+00  0.0000E+00  0.4040E-01  0.4040E-01
    -19.208  0.0000E+00  0.0000E+00  0.4040E-01  0.4040E-01
    -19.043  0.0000E+00  0.0000E+00  0.4040E-01  0.4040E-01
    -18.878  0.0000E+00  0.0000E+00  0.4040E-01  0.4040E-01
    -18.713  0.0000E+00  0.0000E+00  0.4040E-01  0.4040E-01
    -18.549  0.0000E+00  0.0000E+00  0.4040E-01  0.4040E-01
    -18.384  0.0000E+00  0.0000E+00  0.4040E-01  0.4040E-01
    -18.219  0.0000E+00  0.0000E+00  0.4040E-01  0.4040E-01
    -18.054  0.0000E+00  0.0000E+00  0.4040E-01  0.4040E-01
    -17.889  0.0000E+00  0.0000E+00  0.4040E-01  0.4040E-01
    -17.724  0.0000E+00  0.0000E+00  0.4040E-01  0.4040E-01
    -17.559  0.0000E+00  0.0000E+00  0.4040E-01  0.4040E-01
    -17.394  0.0000E+00  0.0000E+00  0.4040E-01  0.4040E-01
    -17.230  0.1769E-01  0.1769E-01  0.4148E-01  0.4148E-01
    -17.065  0.6993E-02  0.6993E-02  0.4351E-01  0.4351E-01
    -16.900  0.6993E-02  0.6993E-02  0.4466E-01  0.4466E-01
    -16.735  0.1391E+00  0.1391E+00  0.4822E-01  0.4822E-01
    -16.570  0.9066E-01  0.9066E-01  0.6007E-01  0.6007E-01
    -16.405  0.2325E-01  0.2325E-01  0.6798E-01  0.6798E-01
    -16.240  0.1480E-01  0.1480E-01  0.7050E-01  0.7050E-01
    -16.075  0.0000E+00  0.0000E+00  0.7071E-01  0.7071E-01
    -15.911  0.0000E+00  0.0000E+00  0.7071E-01  0.7071E-01
    -15.746  0.0000E+00  0.0000E+00  0.7071E-01  0.7071E-01
    -15.581  0.0000E+00  0.0000E+00  0.7071E-01  0.7071E-01
    -15.416  0.0000E+00  0.0000E+00  0.7071E-01  0.7071E-01
    -15.251  0.0000E+00  0.0000E+00  0.7071E-01  0.7071E-01
    -15.086  0.0000E+00  0.0000E+00  0.7071E-01  0.7071E-01
    -14.921  0.0000E+00  0.0000E+00  0.7071E-01  0.7071E-01
    -14.756  0.0000E+00  0.0000E+00  0.7071E-01  0.7071E-01
    -14.592  0.0000E+00  0.0000E+00  0.7071E-01  0.7071E-01
    -14.427  0.0000E+00  0.0000E+00  0.7071E-01  0.7071E-01
    -14.262  0.0000E+00  0.0000E+00  0.7071E-01  0.7071E-01
    -14.097  0.0000E+00  0.0000E+00  0.7071E-01  0.7071E-01
    -13.932  0.0000E+00  0.0000E+00  0.7071E-01  0.7071E-01
    -13.767  0.0000E+00  0.0000E+00  0.7071E-01  0.7071E-01
    -13.602  0.0000E+00  0.0000E+00  0.7071E-01  0.7071E-01
    -13.437  0.0000E+00  0.0000E+00  0.7071E-01  0.7071E-01
    -13.273  0.0000E+00  0.0000E+00  0.7071E-01  0.7071E-01
    -13.108  0.0000E+00  0.0000E+00  0.7071E-01  0.7071E-01
    -12.943  0.0000E+00  0.0000E+00  0.7071E-01  0.7071E-01
    -12.778  0.0000E+00  0.0000E+00  0.7071E-01  0.7071E-01
    -12.613  0.0000E+00  0.0000E+00  0.7071E-01  0.7071E-01
    -12.448  0.0000E+00  0.0000E+00  0.7071E-01  0.7071E-01
    -12.283  0.0000E+00  0.0000E+00  0.7071E-01  0.7071E-01
    -12.118  0.0000E+00  0.0000E+00  0.7071E-01  0.7071E-01
    -11.954  0.0000E+00  0.0000E+00  0.7071E-01  0.7071E-01
    -11.789  0.0000E+00  0.0000E+00  0.7071E-01  0.7071E-01
    -11.624  0.0000E+00  0.0000E+00  0.7071E-01  0.7071E-01
    -11.459  0.0000E+00  0.0000E+00  0.7071E-01  0.7071E-01
    -11.294  0.0000E+00  0.0000E+00  0.7071E-01  0.7071E-01
    -11.129  0.0000E+00  0.0000E+00  0.7071E-01  0.7071E-01
    -10.964  0.0000E+00  0.0000E+00  0.7071E-01  0.7071E-01
    -10.799  0.0000E+00  0.0000E+00  0.7071E-01  0.7071E-01
    -10.635  0.0000E+00  0.0000E+00  0.7071E-01  0.7071E-01
    -10.470  0.0000E+00  0.0000E+00  0.7071E-01  0.7071E-01
    -10.305  0.0000E+00  0.0000E+00  0.7071E-01  0.7071E-01
    -10.140  0.0000E+00  0.0000E+00  0.7071E-01  0.7071E-01
     -9.975  0.0000E+00  0.0000E+00  0.7071E-01  0.7071E-01
     -9.810  0.0000E+00  0.0000E+00  0.7071E-01  0.7071E-01
     -9.645  0.0000E+00  0.0000E+00  0.7071E-01  0.7071E-01
     -9.480  0.0000E+00  0.0000E+00  0.7071E-01  0.7071E-01
     -9.316  0.0000E+00  0.0000E+00  0.7071E-01  0.7071E-01
     -9.151  0.0000E+00  0.0000E+00  0.7071E-01  0.7071E-01
     -8.986  0.0000E+00  0.0000E+00  0.7071E-01  0.7071E-01
     -8.821  0.0000E+00  0.0000E+00  0.7071E-01  0.7071E-01
     -8.656  0.5572E-04  0.5572E-04  0.7071E-01  0.7071E-01
     -8.491  0.2448E-02  0.2448E-02  0.7087E-01  0.7087E-01
     -8.326  0.6889E-02  0.6889E-02  0.7165E-01  0.7165E-01
     -8.161  0.8842E-02  0.8842E-02  0.7297E-01  0.7297E-01
     -7.997  0.7033E-02  0.7033E-02  0.7437E-01  0.7437E-01
     -7.832  0.5842E-02  0.5842E-02  0.7539E-01  0.7539E-01
     -7.667  0.5392E-02  0.5392E-02  0.7631E-01  0.7631E-01
     -7.502  0.7116E-02  0.7116E-02  0.7726E-01  0.7726E-01
     -7.337  0.1191E-01  0.1191E-01  0.7881E-01  0.7881E-01
     -7.172  0.1854E-01  0.1854E-01  0.8127E-01  0.8127E-01
     -7.007  0.1222E-01  0.1222E-01  0.8450E-01  0.8450E-01
     -6.842  0.1490E-01  0.1490E-01  0.8665E-01  0.8665E-01
     -6.678  0.2362E-01  0.2362E-01  0.9016E-01  0.9016E-01
     -6.513  0.0000E+00  0.0000E+00  0.9091E-01  0.9091E-01
     -6.348  0.0000E+00  0.0000E+00  0.9091E-01  0.9091E-01
     -6.183  0.2096E-02  0.2096E-02  0.9101E-01  0.9101E-01
     -6.018  0.1005E-01  0.1005E-01  0.9185E-01  0.9185E-01
     -5.853  0.8780E-02  0.8780E-02  0.9364E-01  0.9364E-01
     -5.688  0.6478E-02  0.6478E-02  0.9476E-01  0.9476E-01
     -5.523  0.1549E-01  0.1549E-01  0.9620E-01  0.9620E-01
     -5.359  0.9650E-02  0.9650E-02  0.1021E+00  0.1021E+00
     -5.194  0.1205E-01  0.1205E-01  0.1036E+00  0.1036E+00
     -5.029  0.8525E-02  0.8525E-02  0.1055E+00  0.1055E+00
     -4.864  0.3868E-02  0.3868E-02  0.1066E+00  0.1066E+00
     -4.699  0.3827E-02  0.3827E-02  0.1072E+00  0.1072E+00
     -4.534  0.3839E-02  0.3839E-02  0.1078E+00  0.1078E+00
     -4.369  0.4454E-02  0.4454E-02  0.1085E+00  0.1085E+00
     -4.204  0.6833E-02  0.6833E-02  0.1095E+00  0.1095E+00
     -4.040  0.6941E-02  0.6941E-02  0.1106E+00  0.1106E+00
     -3.875  0.0000E+00  0.0000E+00  0.1111E+00  0.1111E+00
     -3.710  0.3508E-02  0.3508E-02  0.1112E+00  0.1112E+00
     -3.545  0.5534E-01  0.5534E-01  0.1181E+00  0.1181E+00
     -3.380  0.2890E-02  0.2890E-02  0.1212E+00  0.1212E+00
     -3.215  0.2603E-01  0.2603E-01  0.1237E+00  0.1237E+00
     -3.050  0.9435E-02  0.9435E-02  0.1312E+00  0.1312E+00
     -2.885  0.6509E-02  0.6509E-02  0.1314E+00  0.1314E+00
     -2.721  0.3273E-01  0.3273E-01  0.1355E+00  0.1355E+00
     -2.556  0.1571E-01  0.1571E-01  0.1396E+00  0.1396E+00
     -2.391  0.7753E-02  0.7753E-02  0.1414E+00  0.1414E+00
     -2.226  0.5927E-02  0.5927E-02  0.1423E+00  0.1423E+00
     -2.061  0.7925E-02  0.7925E-02  0.1435E+00  0.1435E+00
     -1.896  0.8926E-02  0.8926E-02  0.1449E+00  0.1449E+00
     -1.731  0.1026E-01  0.1026E-01  0.1464E+00  0.1464E+00
     -1.566  0.3037E-01  0.3037E-01  0.1496E+00  0.1496E+00
     -1.402  0.1579E-01  0.1579E-01  0.1536E+00  0.1536E+00
     -1.237  0.4989E-02  0.4989E-02  0.1553E+00  0.1553E+00
     -1.072  0.4635E-02  0.4635E-02  0.1561E+00  0.1561E+00
     -0.907  0.2474E-02  0.2474E-02  0.1567E+00  0.1567E+00
     -0.742  0.2332E-02  0.2332E-02  0.1571E+00  0.1571E+00
     -0.577  0.2332E-02  0.2332E-02  0.1575E+00  0.1575E+00
     -0.412  0.2332E-02  0.2332E-02  0.1579E+00  0.1579E+00
     -0.247  0.2333E-02  0.2333E-02  0.1583E+00  0.1583E+00
     -0.083  0.2333E-02  0.2333E-02  0.1586E+00  0.1586E+00
      0.082  0.2285E-02  0.2285E-02  0.1590E+00  0.1590E+00
      0.247  0.2126E-02  0.2126E-02  0.1594E+00  0.1594E+00
      0.412  0.2125E-02  0.2125E-02  0.1597E+00  0.1597E+00
      0.577  0.6374E-02  0.6374E-02  0.1602E+00  0.1602E+00
      0.742  0.1514E-01  0.1514E-01  0.1621E+00  0.1621E+00
      0.907  0.1902E-01  0.1902E-01  0.1650E+00  0.1650E+00
      1.071  0.6825E-02  0.6825E-02  0.1670E+00  0.1670E+00
      1.236  0.6351E-02  0.6351E-02  0.1681E+00  0.1681E+00
      1.401  0.4893E-02  0.4893E-02  0.1691E+00  0.1691E+00
      1.566  0.4844E-02  0.4844E-02  0.1699E+00  0.1699E+00
      1.731  0.4858E-02  0.4858E-02  0.1707E+00  0.1707E+00
      1.896  0.4875E-02  0.4875E-02  0.1715E+00  0.1715E+00
      2.061  0.0000E+00  0.0000E+00  0.1717E+00  0.1717E+00
      2.226  0.3629E-02  0.3629E-02  0.1719E+00  0.1719E+00
      2.390  0.6504E-02  0.6504E-02  0.1728E+00  0.1728E+00
      2.555  0.6641E-02  0.6641E-02  0.1739E+00  0.1739E+00
      2.720  0.6638E-02  0.6638E-02  0.1749E+00  0.1749E+00
      2.885  0.7264E-02  0.7264E-02  0.1761E+00  0.1761E+00
      3.050  0.8625E-02  0.8625E-02  0.1774E+00  0.1774E+00
      3.215  0.3262E-01  0.3262E-01  0.1802E+00  0.1802E+00
      3.380  0.1848E-01  0.1848E-01  0.1853E+00  0.1853E+00
      3.545  0.1063E-01  0.1063E-01  0.1873E+00  0.1873E+00
      3.709  0.2824E-01  0.2824E-01  0.1901E+00  0.1901E+00
      3.874  0.2055E-01  0.2055E-01  0.1942E+00  0.1942E+00
      4.039  0.1163E-01  0.1163E-01  0.1963E+00  0.1963E+00
      4.204  0.3235E-01  0.3235E-01  0.2002E+00  0.2002E+00
      4.369  0.2046E-01  0.2046E-01  0.2044E+00  0.2044E+00
      4.534  0.3733E-01  0.3733E-01  0.2086E+00  0.2086E+00
      4.699  0.7049E-02  0.7049E-02  0.2118E+00  0.2118E+00
      4.864  0.6545E-02  0.6545E-02  0.2124E+00  0.2124E+00
      5.028  0.3112E-01  0.3112E-01  0.2154E+00  0.2154E+00
      5.193  0.2114E-01  0.2114E-01  0.2215E+00  0.2215E+00
      5.358  0.1705E-01  0.1705E-01  0.2236E+00  0.2236E+00
      5.523  0.1682E-01  0.1682E-01  0.2270E+00  0.2270E+00
      5.688  0.1121E-01  0.1121E-01  0.2289E+00  0.2289E+00
      5.853  0.3129E-01  0.3129E-01  0.2330E+00  0.2330E+00
      6.018  0.2213E-01  0.2213E-01  0.2378E+00  0.2378E+00
      6.183  0.1846E-01  0.1846E-01  0.2404E+00  0.2404E+00
      6.347  0.3289E-01  0.3289E-01  0.2454E+00  0.2454E+00
      6.512  0.1817E-01  0.1817E-01  0.2496E+00  0.2496E+00
      6.677  0.2554E-01  0.2554E-01  0.2532E+00  0.2532E+00
      6.842  0.2544E-01  0.2544E-01  0.2572E+00  0.2572E+00
      7.007  0.1427E-01  0.1427E-01  0.2602E+00  0.2602E+00
      7.172  0.2438E-01  0.2438E-01  0.2635E+00  0.2635E+00
      7.337  0.2172E-01  0.2172E-01  0.2678E+00  0.2678E+00
      7.502  0.2657E-01  0.2657E-01  0.2716E+00  0.2716E+00
      7.666  0.2955E-01  0.2955E-01  0.2763E+00  0.2763E+00
      7.831  0.3041E-01  0.3041E-01  0.2804E+00  0.2804E+00
      7.996  0.2556E-01  0.2556E-01  0.2847E+00  0.2847E+00
      8.161  0.2148E-01  0.2148E-01  0.2887E+00  0.2887E+00
      8.326  0.2576E-01  0.2576E-01  0.2922E+00  0.2922E+00
      8.491  0.3069E-01  0.3069E-01  0.2977E+00  0.2977E+00
      8.656  0.7805E-02  0.7805E-02  0.3003E+00  0.3003E+00
      8.821  0.1363E-01  0.1363E-01  0.3017E+00  0.3017E+00
      8.985  0.2327E-01  0.2327E-01  0.3047E+00  0.3047E+00
      9.150  0.1831E-01  0.1831E-01  0.3084E+00  0.3084E+00
      9.315  0.1005E-01  0.1005E-01  0.3106E+00  0.3106E+00
      9.480  0.6743E-02  0.6743E-02  0.3120E+00  0.3120E+00
      9.645  0.1999E-01  0.1999E-01  0.3135E+00  0.3135E+00
      9.810  0.1987E-01  0.1987E-01  0.3176E+00  0.3176E+00
      9.975  0.1400E-01  0.1400E-01  0.3199E+00  0.3199E+00
     10.140  0.1080E-01  0.1080E-01  0.3222E+00  0.3222E+00
     10.304  0.1487E-02  0.1487E-02  0.3232E+00  0.3232E+00
     10.469  0.0000E+00  0.0000E+00  0.3232E+00  0.3232E+00
     10.634  0.0000E+00  0.0000E+00  0.3232E+00  0.3232E+00
     10.799  0.0000E+00  0.0000E+00  0.3232E+00  0.3232E+00
     10.964  0.0000E+00  0.0000E+00  0.3232E+00  0.3232E+00
     11.129  0.0000E+00  0.0000E+00  0.3232E+00  0.3232E+00
     11.294  0.0000E+00  0.0000E+00  0.3232E+00  0.3232E+00
     11.459  0.0000E+00  0.0000E+00  0.3232E+00  0.3232E+00
     11.623  0.0000E+00  0.0000E+00  0.3232E+00  0.3232E+00
     11.788  0.0000E+00  0.0000E+00  0.3232E+00  0.3232E+00
     11.953  0.0000E+00  0.0000E+00  0.3232E+00  0.3232E+00
     12.118  0.0000E+00  0.0000E+00  0.3232E+00  0.3232E+00
     12.283  0.0000E+00  0.0000E+00  0.3232E+00  0.3232E+00
     12.448  0.0000E+00  0.0000E+00  0.3232E+00  0.3232E+00
     12.613  0.0000E+00  0.0000E+00  0.3232E+00  0.3232E+00
     12.61267952    -36.84954227  301      1.01959196      1.00000000
    -36.850  0.0000E+00  0.0000E+00  0.0000E+00  0.0000E+00  0.0000E+00  0.0000E+00  0.0000E+00  0.0000E+00  0.0000E+00  0.0000E+00  0.0000E+00  0.0000E+00  0.0000E+00  0.0000E+00  0.0000E+00  0.0000E+00  0.0000E+00  0.0000E+00
    -36.685  0.0000E+00  0.0000E+00  0.0000E+00  0.0000E+00  0.0000E+00  0.0000E+00  0.0000E+00  0.0000E+00  0.0000E+00  0.0000E+00  0.0000E+00  0.0000E+00  0.0000E+00  0.0000E+00  0.0000E+00  0.0000E+00  0.0000E+00  0.0000E+00
    -36.520  0.0000E+00  0.0000E+00  0.0000E+00  0.0000E+00  0.0000E+00  0.0000E+00  0.0000E+00  0.0000E+00  0.0000E+00  0.0000E+00  0.0000E+00  0.0000E+00  0.0000E+00  0.0000E+00  0.0000E+00  0.0000E+00  0.0000E+00  0.0000E+00
    -36.355  0.0000E+00  0.0000E+00  0.0000E+00  0.0000E+00  0.0000E+00  0.0000E+00  0.0000E+00  0.0000E+00  0.0000E+00  0.0000E+00  0.0000E+00  0.0000E+00  0.0000E+00  0.0000E+00  0.0000E+00  0.0000E+00  0.0000E+00  0.0000E+00
    -36.190  0.0000E+00  0.0000E+00  0.0000E+00  0.0000E+00  0.0000E+00  0.0000E+00  0.0000E+00  0.0000E+00  0.0000E+00  0.0000E+00  0.0000E+00  0.0000E+00  0.0000E+00  0.0000E+00  0.0000E+00  0.0000E+00  0.0000E+00  0.0000E+00
    -36.025  0.0000E+00  0.0000E+00  0.0000E+00  0.0000E+00  0.0000E+00  0.0000E+00  0.0000E+00  0.0000E+00  0.0000E+00  0.0000E+00  0.0000E+00  0.0000E+00  0.0000E+00  0.0000E+00  0.0000E+00  0.0000E+00  0.0000E+00  0.0000E+00
    -35.860  0.0000E+00  0.0000E+00  0.0000E+00  0.0000E+00  0.0000E+00  0.0000E+00  0.0000E+00  0.0000E+00  0.0000E+00  0.0000E+00  0.0000E+00  0.0000E+00  0.0000E+00  0.0000E+00  0.0000E+00  0.0000E+00  0.0000E+00  0.0000E+00
    -35.695  0.0000E+00  0.0000E+00  0.0000E+00  0.0000E+00  0.0000E+00  0.0000E+00  0.0000E+00  0.0000E+00  0.0000E+00  0.0000E+00  0.0000E+00  0.0000E+00  0.0000E+00  0.0000E+00  0.0000E+00  0.0000E+00  0.0000E+00  0.0000E+00
    -35.531  0.0000E+00  0.0000E+00  0.0000E+00  0.0000E+00  0.0000E+00  0.0000E+00  0.0000E+00  0.0000E+00  0.0000E+00  0.0000E+00  0.0000E+00  0.0000E+00  0.0000E+00  0.0000E+00  0.0000E+00  0.0000E+00  0.0000E+00  0.0000E+00
    -35.366  0.0000E+00  0.0000E+00  0.0000E+00  0.0000E+00  0.0000E+00  0.0000E+00  0.0000E+00  0.0000E+00  0.0000E+00  0.0000E+00  0.0000E+00  0.0000E+00  0.0000E+00  0.0000E+00  0.0000E+00  0.0000E+00  0.0000E+00  0.0000E+00
    -35.201  0.0000E+00  0.0000E+00  0.0000E+00  0.0000E+00  0.0000E+00  0.0000E+00  0.0000E+00  0.0000E+00  0.0000E+00  0.0000E+00  0.0000E+00  0.0000E+00  0.0000E+00  0.0000E+00  0.0000E+00  0.0000E+00  0.0000E+00  0.0000E+00
    -35.036  0.0000E+00  0.0000E+00  0.0000E+00  0.0000E+00  0.0000E+00  0.0000E+00  0.0000E+00  0.0000E+00  0.0000E+00  0.0000E+00  0.0000E+00  0.0000E+00  0.0000E+00  0.0000E+00  0.0000E+00  0.0000E+00  0.0000E+00  0.0000E+00
    -34.871  0.0000E+00  0.0000E+00  0.0000E+00  0.0000E+00  0.0000E+00  0.0000E+00  0.0000E+00  0.0000E+00  0.0000E+00  0.0000E+00  0.0000E+00  0.0000E+00  0.0000E+00  0.0000E+00  0.0000E+00  0.0000E+00  0.0000E+00  0.0000E+00
    -34.706  0.0000E+00  0.0000E+00  0.0000E+00  0.0000E+00  0.0000E+00  0.0000E+00  0.0000E+00  0.0000E+00  0.0000E+00  0.0000E+00  0.0000E+00  0.0000E+00  0.0000E+00  0.0000E+00  0.0000E+00  0.0000E+00  0.0000E+00  0.0000E+00
    -34.541  0.6229E+01  0.6229E+01  0.7731E-04  0.7731E-04  0.1951E-03  0.1951E-03  0.2197E-03  0.2197E-03  0.1747E-06  0.1747E-06  0.5939E-05  0.5939E-05  0.8519E-05  0.8519E-05  0.2223E-06  0.2223E-06  0.5837E-04  0.5837E-04
    -34.376  0.0000E+00  0.0000E+00  0.0000E+00  0.0000E+00  0.0000E+00  0.0000E+00  0.0000E+00  0.0000E+00  0.0000E+00  0.0000E+00  0.0000E+00  0.0000E+00  0.0000E+00  0.0000E+00  0.0000E+00  0.0000E+00  0.0000E+00  0.0000E+00
    -34.212  0.0000E+00  0.0000E+00  0.0000E+00  0.0000E+00  0.0000E+00  0.0000E+00  0.0000E+00  0.0000E+00  0.0000E+00  0.0000E+00  0.0000E+00  0.0000E+00  0.0000E+00  0.0000E+00  0.0000E+00  0.0000E+00  0.0000E+00  0.0000E+00
    -34.047  0.0000E+00  0.0000E+00  0.0000E+00  0.0000E+00  0.0000E+00  0.0000E+00  0.0000E+00  0.0000E+00  0.0000E+00  0.0000E+00  0.0000E+00  0.0000E+00  0.0000E+00  0.0000E+00  0.0000E+00  0.0000E+00  0.0000E+00  0.0000E+00
    -33.882  0.0000E+00  0.0000E+00  0.0000E+00  0.0000E+00  0.0000E+00  0.0000E+00  0.0000E+00  0.0000E+00  0.0000E+00  0.0000E+00  0.0000E+00  0.0000E+00  0.0000E+00  0.0000E+00  0.0000E+00  0.0000E+00  0.0000E+00  0.0000E+00
    -33.717  0.0000E+00  0.0000E+00  0.0000E+00  0.0000E+00  0.0000E+00  0.0000E+00  0.0000E+00  0.0000E+00  0.0000E+00  0.0000E+00  0.0000E+00  0.0000E+00  0.0000E+00  0.0000E+00  0.0000E+00  0.0000E+00  0.0000E+00  0.0000E+00
    -33.552  0.0000E+00  0.0000E+00  0.0000E+00  0.0000E+00  0.0000E+00  0.0000E+00  0.0000E+00  0.0000E+00  0.0000E+00  0.0000E+00  0.0000E+00  0.0000E+00  0.0000E+00  0.0000E+00  0.0000E+00  0.0000E+00  0.0000E+00  0.0000E+00
    -33.387  0.0000E+00  0.0000E+00  0.0000E+00  0.0000E+00  0.0000E+00  0.0000E+00  0.0000E+00  0.0000E+00  0.0000E+00  0.0000E+00  0.0000E+00  0.0000E+00  0.0000E+00  0.0000E+00  0.0000E+00  0.0000E+00  0.0000E+00  0.0000E+00
    -33.222  0.0000E+00  0.0000E+00  0.0000E+00  0.0000E+00  0.0000E+00  0.0000E+00  0.0000E+00  0.0000E+00  0.0000E+00  0.0000E+00  0.0000E+00  0.0000E+00  0.0000E+00  0.0000E+00  0.0000E+00  0.0000E+00  0.0000E+00  0.0000E+00
    -33.057  0.0000E+00  0.0000E+00  0.0000E+00  0.0000E+00  0.0000E+00  0.0000E+00  0.0000E+00  0.0000E+00  0.0000E+00  0.0000E+00  0.0000E+00  0.0000E+00  0.0000E+00  0.0000E+00  0.0000E+00  0.0000E+00  0.0000E+00  0.0000E+00
    -32.893  0.0000E+00  0.0000E+00  0.0000E+00  0.0000E+00  0.0000E+00  0.0000E+00  0.0000E+00  0.0000E+00  0.0000E+00  0.0000E+00  0.0000E+00  0.0000E+00  0.0000E+00  0.0000E+00  0.0000E+00  0.0000E+00  0.0000E+00  0.0000E+00
    -32.728  0.0000E+00  0.0000E+00  0.0000E+00  0.0000E+00  0.0000E+00  0.0000E+00  0.0000E+00  0.0000E+00  0.0000E+00  0.0000E+00  0.0000E+00  0.0000E+00  0.0000E+00  0.0000E+00  0.0000E+00  0.0000E+00  0.0000E+00  0.0000E+00
    -32.563  0.0000E+00  0.0000E+00  0.0000E+00  0.0000E+00  0.0000E+00  0.0000E+00  0.0000E+00  0.0000E+00  0.0000E+00  0.0000E+00  0.0000E+00  0.0000E+00  0.0000E+00  0.0000E+00  0.0000E+00  0.0000E+00  0.0000E+00  0.0000E+00
    -32.398  0.0000E+00  0.0000E+00  0.0000E+00  0.0000E+00  0.0000E+00  0.0000E+00  0.0000E+00  0.0000E+00  0.0000E+00  0.0000E+00  0.0000E+00  0.0000E+00  0.0000E+00  0.0000E+00  0.0000E+00  0.0000E+00  0.0000E+00  0.0000E+00
    -32.233  0.0000E+00  0.0000E+00  0.0000E+00  0.0000E+00  0.0000E+00  0.0000E+00  0.0000E+00  0.0000E+00  0.0000E+00  0.0000E+00  0.0000E+00  0.0000E+00  0.0000E+00  0.0000E+00  0.0000E+00  0.0000E+00  0.0000E+00  0.0000E+00
    -32.068  0.0000E+00  0.0000E+00  0.0000E+00  0.0000E+00  0.0000E+00  0.0000E+00  0.0000E+00  0.0000E+00  0.0000E+00  0.0000E+00  0.0000E+00  0.0000E+00  0.0000E+00  0.0000E+00  0.0000E+00  0.0000E+00  0.0000E+00  0.0000E+00
    -31.903  0.0000E+00  0.0000E+00  0.0000E+00  0.0000E+00  0.0000E+00  0.0000E+00  0.0000E+00  0.0000E+00  0.0000E+00  0.0000E+00  0.0000E+00  0.0000E+00  0.0000E+00  0.0000E+00  0.0000E+00  0.0000E+00  0.0000E+00  0.0000E+00
    -31.738  0.0000E+00  0.0000E+00  0.0000E+00  0.0000E+00  0.0000E+00  0.0000E+00  0.0000E+00  0.0000E+00  0.0000E+00  0.0000E+00  0.0000E+00  0.0000E+00  0.0000E+00  0.0000E+00  0.0000E+00  0.0000E+00  0.0000E+00  0.0000E+00
    -31.574  0.0000E+00  0.0000E+00  0.0000E+00  0.0000E+00  0.0000E+00  0.0000E+00  0.0000E+00  0.0000E+00  0.0000E+00  0.0000E+00  0.0000E+00  0.0000E+00  0.0000E+00  0.0000E+00  0.0000E+00  0.0000E+00  0.0000E+00  0.0000E+00
    -31.409  0.0000E+00  0.0000E+00  0.0000E+00  0.0000E+00  0.0000E+00  0.0000E+00  0.0000E+00  0.0000E+00  0.0000E+00  0.0000E+00  0.0000E+00  0.0000E+00  0.0000E+00  0.0000E+00  0.0000E+00  0.0000E+00  0.0000E+00  0.0000E+00
    -31.244  0.0000E+00  0.0000E+00  0.0000E+00  0.0000E+00  0.0000E+00  0.0000E+00  0.0000E+00  0.0000E+00  0.0000E+00  0.0000E+00  0.0000E+00  0.0000E+00  0.0000E+00  0.0000E+00  0.0000E+00  0.0000E+00  0.0000E+00  0.0000E+00
    -31.079  0.0000E+00  0.0000E+00  0.0000E+00  0.0000E+00  0.0000E+00  0.0000E+00  0.0000E+00  0.0000E+00  0.0000E+00  0.0000E+00  0.0000E+00  0.0000E+00  0.0000E+00  0.0000E+00  0.0000E+00  0.0000E+00  0.0000E+00  0.0000E+00
    -30.914  0.0000E+00  0.0000E+00  0.0000E+00  0.0000E+00  0.0000E+00  0.0000E+00  0.0000E+00  0.0000E+00  0.0000E+00  0.0000E+00  0.0000E+00  0.0000E+00  0.0000E+00  0.0000E+00  0.0000E+00  0.0000E+00  0.0000E+00  0.0000E+00
    -30.749  0.0000E+00  0.0000E+00  0.0000E+00  0.0000E+00  0.0000E+00  0.0000E+00  0.0000E+00  0.0000E+00  0.0000E+00  0.0000E+00  0.0000E+00  0.0000E+00  0.0000E+00  0.0000E+00  0.0000E+00  0.0000E+00  0.0000E+00  0.0000E+00
    -30.584  0.0000E+00  0.0000E+00  0.0000E+00  0.0000E+00  0.0000E+00  0.0000E+00  0.0000E+00  0.0000E+00  0.0000E+00  0.0000E+00  0.0000E+00  0.0000E+00  0.0000E+00  0.0000E+00  0.0000E+00  0.0000E+00  0.0000E+00  0.0000E+00
    -30.419  0.0000E+00  0.0000E+00  0.0000E+00  0.0000E+00  0.0000E+00  0.0000E+00  0.0000E+00  0.0000E+00  0.0000E+00  0.0000E+00  0.0000E+00  0.0000E+00  0.0000E+00  0.0000E+00  0.0000E+00  0.0000E+00  0.0000E+00  0.0000E+00
    -30.255  0.5805E-04  0.5805E-04  0.2098E-04  0.2098E-04  0.9275E-06  0.9275E-06  0.3488E-05  0.3488E-05  0.2753E-05  0.2753E-05  0.5788E-06  0.5788E-06  0.1393E-05  0.1393E-05  0.6641E-07  0.6641E-07  0.3660E-05  0.3660E-05
    -30.090  0.0000E+00  0.0000E+00  0.0000E+00  0.0000E+00  0.0000E+00  0.0000E+00  0.0000E+00  0.0000E+00  0.0000E+00  0.0000E+00  0.0000E+00  0.0000E+00  0.0000E+00  0.0000E+00  0.0000E+00  0.0000E+00  0.0000E+00  0.0000E+00
    -29.925  0.0000E+00  0.0000E+00  0.0000E+00  0.0000E+00  0.0000E+00  0.0000E+00  0.0000E+00  0.0000E+00  0.0000E+00  0.0000E+00  0.0000E+00  0.0000E+00  0.0000E+00  0.0000E+00  0.0000E+00  0.0000E+00  0.0000E+00  0.0000E+00
    -29.760  0.0000E+00  0.0000E+00  0.0000E+00  0.0000E+00  0.0000E+00  0.0000E+00  0.0000E+00  0.0000E+00  0.0000E+00  0.0000E+00  0.0000E+00  0.0000E+00  0.0000E+00  0.0000E+00  0.0000E+00  0.0000E+00  0.0000E+00  0.0000E+00
    -29.595  0.0000E+00  0.0000E+00  0.0000E+00  0.0000E+00  0.0000E+00  0.0000E+00  0.0000E+00  0.0000E+00  0.0000E+00  0.0000E+00  0.0000E+00  0.0000E+00  0.0000E+00  0.0000E+00  0.0000E+00  0.0000E+00  0.0000E+00  0.0000E+00
    -29.430  0.0000E+00  0.0000E+00  0.0000E+00  0.0000E+00  0.0000E+00  0.0000E+00  0.0000E+00  0.0000E+00  0.0000E+00  0.0000E+00  0.0000E+00  0.0000E+00  0.0000E+00  0.0000E+00  0.0000E+00  0.0000E+00  0.0000E+00  0.0000E+00
    -29.265  0.0000E+00  0.0000E+00  0.0000E+00  0.0000E+00  0.0000E+00  0.0000E+00  0.0000E+00  0.0000E+00  0.0000E+00  0.0000E+00  0.0000E+00  0.0000E+00  0.0000E+00  0.0000E+00  0.0000E+00  0.0000E+00  0.0000E+00  0.0000E+00
    -29.100  0.0000E+00  0.0000E+00  0.0000E+00  0.0000E+00  0.0000E+00  0.0000E+00  0.0000E+00  0.0000E+00  0.0000E+00  0.0000E+00  0.0000E+00  0.0000E+00  0.0000E+00  0.0000E+00  0.0000E+00  0.0000E+00  0.0000E+00  0.0000E+00
    -28.936  0.0000E+00  0.0000E+00  0.0000E+00  0.0000E+00  0.0000E+00  0.0000E+00  0.0000E+00  0.0000E+00  0.0000E+00  0.0000E+00  0.0000E+00  0.0000E+00  0.0000E+00  0.0000E+00  0.0000E+00  0.0000E+00  0.0000E+00  0.0000E+00
    -28.771  0.0000E+00  0.0000E+00  0.0000E+00  0.0000E+00  0.0000E+00  0.0000E+00  0.0000E+00  0.0000E+00  0.0000E+00  0.0000E+00  0.0000E+00  0.0000E+00  0.0000E+00  0.0000E+00  0.0000E+00  0.0000E+00  0.0000E+00  0.0000E+00
    -28.606  0.0000E+00  0.0000E+00  0.0000E+00  0.0000E+00  0.0000E+00  0.0000E+00  0.0000E+00  0.0000E+00  0.0000E+00  0.0000E+00  0.0000E+00  0.0000E+00  0.0000E+00  0.0000E+00  0.0000E+00  0.0000E+00  0.0000E+00  0.0000E+00