Automatically generated mesh
      42
Reciprocal lattice
    0.00000000000000    0.00000000000000    0.00000000000000             1
    0.12500000000000    0.00000000000000    0.00000000000000             2
    0.25000000000000    0.00000000000000    0.00000000000000             2
    0.37500000000000    0.00000000000000    0.00000000000000             2
    0.50000000000000    0.00000000000000    0.00000000000000             1
    0.00000000000000    0.20000000000000    0.00000000000000             2
    0.12500000000000    0.20000000000000    0.00000000000000             2
    0.25000000000000    0.20000000000000    0.00000000000000             2
    0.37500000000000    0.20000000000000    0.00000000000000             2
    0.50000000000000    0.20000000000000    0.00000000000000             2
   -0.37500000000000    0.20000000000000    0.00000000000000             2
   -0.25000000000000    0.20000000000000    0.00000000000000             2
   -0.12500000000000    0.20000000000000    0.00000000000000             2
    0.00000000000000    0.40000000000000    0.00000000000000             2
    0.12500000000000    0.40000000000000    0.00000000000000             2
    0.25000000000000    0.40000000000000    0.00000000000000             2
    0.37500000000000    0.40000000000000    0.00000000000000             2
    0.50000000000000    0.40000000000000    0.00000000000000             2
   -0.37500000000000    0.40000000000000    0.00000000000000             2
   -0.25000000000000    0.40000000000000    0.00000000000000             2
   -0.12500000000000    0.40000000000000    0.00000000000000             2
    0.00000000000000    0.00000000000000    0.50000000000000             1
    0.12500000000000    0.00000000000000    0.50000000000000             2
    0.25000000000000    0.00000000000000    0.50000000000000             2
    0.37500000000000    0.00000000000000    0.50000000000000             2
    0.50000000000000    0.00000000000000    0.50000000000000             1
    0.00000000000000    0.20000000000000    0.50000000000000             2
    0.12500000000000    0.20000000000000    0.50000000000000             2
    0.25000000000000    0.20000000000000    0.50000000000000             2
    0.37500000000000    0.20000000000000    0.50000000000000             2
    0.50000000000000    0.20000000000000    0.50000000000000             2
   -0.37500000000000    0.20000000000000    0.50000000000000             2
   -0.25000000000000    0.20000000000000    0.50000000000000             2
   -0.12500000000000    0.20000000000000    0.50000000000000             2
    0.00000000000000    0.40000000000000    0.50000000000000             2
    0.12500000000000    0.40000000000000    0.50000000000000             2
    0.25000000000000    0.40000000000000    0.50000000000000             2
    0.37500000000000    0.40000000000000    0.50000000000000             2
    0.50000000000000    0.40000000000000    0.50000000000000             2
   -0.37500000000000    0.40000000000000    0.50000000000000             2
   -0.25000000000000    0.40000000000000    0.50000000000000             2
   -0.12500000000000    0.40000000000000    0.50000000000000             2
Tetrahedra
       240    0.00208333333333
         2         2         6         7        27
         2         1         2         6        27
         2         1         2        22        27
         2         2         7        27        28
         2         2        23        27        28
         2         2        22        23        27
         2         3         7         8        28
         2         2         3         7        28
         2         2         3        23        28
         2         3         8        28        29
         2         3        24        28        29
         2         3        23        24        28
         2         4         8         9        29
         2         3         4         8        29
         2         3         4        24        29
         2         4         9        29        30
         2         4        25        29        30
         2         4        24        25        29
         2         5         9        10        30
         2         4         5         9        30
         2         4         5        25        30
         2         5        10        30        31
         2         5        26        30        31
         2         5        25        26        30
         2         4        10        11        31
         2         4         5        10        31
         2         4         5        26        31
         2         4        11        31        32
         2         4        25        31        32
         2         4        25        26        31
         2         3        11        12        32
         2         3         4        11        32
         2         3         4        25        32
         2         3        12        32        33
         2         3        24        32        33
         2         3        24        25        32
         2         2        12        13        33
         2         2         3        12        33
         2         2         3        24        33
         2         2        13        33        34
         2         2        23        33        34
         2         2        23        24        33
         2         1         6        13        34
         2         1         2        13        34
         2         1         2        23        34
         2         1         6        27        34
         2         1        22        27        34
         2         1        22        23        34
         2         7        14        15        35
         2         6         7        14        35
         2         6         7        27        35
         2         7        15        35        36
         2         7        28        35        36
         2         7        27        28        35
         2         8        15        16        36
         2         7         8        15        36
         2         7         8        28        36
         2         8        16        36        37
         2         8        29        36        37
         2         8        28        29        36
         2         9        16        17        37
         2         8         9        16        37
         2         8         9        29        37
         2         9        17        37        38
         2         9        30        37        38
         2         9        29        30        37
         2        10        17        18        38
         2         9        10        17        38
         2         9        10        30        38
         2        10        18        38        39
         2        10        31        38        39
         2        10        30        31        38
         2        11        18        19        39
         2        10        11        18        39
         2        10        11        31        39
         2        11        19        39        40
         2        11        32        39        40
         2        11        31        32        39
         2        12        19        20        40
         2        11        12        19        40
         2        11        12        32        40
         2        12        20        40        41
         2        12        33        40        41
         2        12        32        33        40
         2        13        20        21        41
         2        12        13        20        41
         2        12        13        33        41
         2        13        21        41        42
         2        13        34        41        42
         2        13        33        34        41
         2         6        14        21        42
         2         6        13        21        42
         2         6        13        34        42
         2         6        14        35        42
         2         6        27        35        42
         2         6        27        34        42
         2        14        15        21        35
         2        14        14        15        35
         2        14        15        35        35
         2        15        21        35        42
         2        15        35        36        42
         2        15        35        35        36
         2        16        20        21        42
         2        15        16        21        42
         2        15        16        36        42
         2        16        20        41        42
         2        16        37        41        42
         2        16        36        37        42
         2        17        19        20        41
         2        16        17        20        41
         2        16        17        37        41
         2        17        19        40        41
         2        17        38        40        41
         2        17        37        38        41
         2        18        18        19        40
         2        17        18        19        40
         2        17        18        38        40
         2        18        18        39        40
         2        18        39        39        40
         2        18        38        39        40
         2        17        18        19        39
         2        18        18        19        39
         2        18        19        39        39
         2        17        19        38        39
         2        19        38        39        40
         2        19        39        39        40
         2        16        17        20        38
         2        17        19        20        38
         2        19        20        38        40
         2        16        20        37        38
         2        20        37        38        41
         2        20        38        40        41
         2        15        16        21        37
         2        16        20        21        37
         2        20        21        37        41
         2        15        21        36        37
         2        21        36        37        42
         2        21        37        41        42
         2        14        14        15        36
         2        14        15        21        36
         2        14        21        36        42
         2        14        14        35        36
         2        14        35        35        36
         2        14        35        36        42
         2         6        13        21        27
         2         6        14        21        27
         2        14        21        27        35
         2        13        21        27        34
         2        21        27        34        42
         2        21        27        35        42
         2        12        13        20        34
         2        13        20        21        34
         2        20        21        34        42
         2        12        20        33        34
         2        20        33        34        41
         2        20        34        41        42
         2        11        12        19        33
         2        12        19        20        33
         2        19        20        33        41
         2        11        19        32        33
         2        19        32        33        40
         2        19        33        40        41
         2        10        11        18        32
         2        11        18        19        32
         2        18        19        32        40
         2        10        18        31        32
         2        18        31        32        39
         2        18        32        39        40
         2         9        10        17        31
         2        10        17        18        31
         2        17        18        31        39
         2         9        17        30        31
         2        17        30        31        38
         2        17        31        38        39
         2         8         9        16        30
         2         9        16        17        30
         2        16        17        30        38
         2         8        16        29        30
         2        16        29        30        37
         2        16        30        37        38
         2         7         8        15        29
         2         8        15        16        29
         2        15        16        29        37
         2         7        15        28        29
         2        15        28        29        36
         2        15        29        36        37
         2         6         7        14        28
         2         7        14        15        28
         2        14        15        28        36
         2         6        14        27        28
         2        14        27        28        35
         2        14        28        35        36
         2         1         2        13        22
         2         1         6        13        22
         2         6        13        22        27
         2         2        13        22        23
         2        13        22        23        34
         2        13        22        27        34
         2         2         3        12        23
         2         2        12        13        23
         2        12        13        23        34
         2         3        12        23        24
         2        12        23        24        33
         2        12        23        33        34
         2         3         4        11        24
         2         3        11        12        24
         2        11        12        24        33
         2         4        11        24        25
         2        11        24        25        32
         2        11        24        32        33
         2         4         5        10        25
         2         4        10        11        25
         2        10        11        25        32
         2         5        10        25        26
         2        10        25        26        31
         2        10        25        31        32
         2         4         5         9        26
         2         5         9        10        26
         2         9        10        26        31
         2         4         9        25        26
         2         9        25        26        30
         2         9        26        30        31
         2         3         4         8        25
         2         4         8         9        25
         2         8         9        25        30
         2         3         8        24        25
         2         8        24        25        29
         2         8        25        29        30
         2         2         3         7        24
         2         3         7         8        24
         2         7         8        24        29
         2         2         7        23        24
         2         7        23        24        28
         2         7        24        28        29
         2         1         2         6        23
         2         2         6         7        23
         2         6         7        23        28
         2         1         6        22        23
         2         6        22        23        27
         2         6        23        27        28
