 running on   32 total cores
 distrk:  each k-point on   32 cores,    1 groups
 distr:  one band on    8 cores,    4 groups
 using from now: INCAR     
 vasp.5.4.4.18Apr17-6-g9f103f2a35 (build Nov 01 2019 12:17:22) complex          
  
 POSCAR found type information on POSCAR  H  Nb H  Nb H  Sr
 POSCAR found :  6 types and      19 ions

 ----------------------------------------------------------------------------- 
|                                                                             |
|  ADVICE TO THIS USER RUNNING 'VASP/VAMP'   (HEAR YOUR MASTER'S VOICE ...):  |
|                                                                             |
|      You have a (more or less) 'large supercell' and for larger cells       |
|      it might be more efficient to use real space projection opertators     |
|      So try LREAL= Auto  in the INCAR   file.                               |
|      Mind:          For very  accurate calculation you might also keep the  |
|      reciprocal projection scheme          (i.e. LREAL=.FALSE.)             |
|                                                                             |
 ----------------------------------------------------------------------------- 

 LDA part: xc-table for Pade appr. of Perdew
 generate k-points for:    8    8    7
 POSCAR, INCAR and KPOINTS ok, starting setup
 FFT: planning ...
 WAVECAR not read
 entering main loop
       N       E                     dE             d eps       ncg     rms          rms(c)
DAV:   1     0.219410967875E+03    0.21941E+03   -0.15511E+04 17152   0.727E+02
DAV:   2    -0.645455617496E+02   -0.28396E+03   -0.26940E+03 21068   0.314E+02
DAV:   3    -0.807638157823E+02   -0.16218E+02   -0.16053E+02 25592   0.655E+01
DAV:   4    -0.815151554981E+02   -0.75134E+00   -0.74885E+00 28088   0.121E+01
DAV:   5    -0.815286729883E+02   -0.13517E-01   -0.13513E-01 25440   0.129E+00    0.478E+01
DAV:   6    -0.774516568026E+02    0.40770E+01   -0.79675E+00 25712   0.198E+01    0.180E+01
DAV:   7    -0.766949066346E+02    0.75675E+00   -0.16893E+00 21696   0.627E+00    0.895E+00
DAV:   8    -0.766319173946E+02    0.62989E-01   -0.46924E-01 26584   0.317E+00    0.207E+00
DAV:   9    -0.766350104713E+02   -0.30931E-02   -0.48389E-02 25408   0.943E-01    0.164E+00
DAV:  10    -0.766372940464E+02   -0.22836E-02   -0.10510E-02 23520   0.678E-01    0.221E-01
DAV:  11    -0.766369287418E+02    0.36530E-03   -0.24977E-03 24152   0.415E-01    0.193E-01
DAV:  12    -0.766369965785E+02   -0.67837E-04   -0.30382E-04 18752   0.110E-01
   1 F= -.76636997E+02 E0= -.76637027E+02  d E =-.766370E+02
 curvature:   0.00 expect dE= 0.000E+00 dE for cont linesearch  0.000E+00
 trial: gam= 0.00000 g(F)=  0.148E-02 g(S)=  0.272E-03 ort = 0.000E+00 (trialstep = 0.100E+01)
 search vector abs. value=  0.175E-02
 bond charge predicted
       N       E                     dE             d eps       ncg     rms          rms(c)
DAV:   1    -0.766375592085E+02   -0.63047E-03   -0.40392E-02 18168   0.107E+00    0.102E-01
DAV:   2    -0.766375883488E+02   -0.29140E-04   -0.20214E-03 21696   0.265E-01    0.674E-02
DAV:   3    -0.766375256297E+02    0.62719E-04   -0.11032E-04 13248   0.693E-02
   2 F= -.76637526E+02 E0= -.76637556E+02  d E =-.529051E-03
 trial-energy change:   -0.000529  1 .order   -0.000473   -0.001751    0.000805
 step:   0.6851(harm=  0.6851)  dis= 0.00199  next Energy=   -76.637596 (dE=-0.600E-03)
 bond charge predicted
       N       E                     dE             d eps       ncg     rms          rms(c)
DAV:   1    -0.766376877243E+02   -0.99375E-04   -0.45291E-03 18072   0.355E-01    0.308E-02
DAV:   2    -0.766376915700E+02   -0.38458E-05   -0.22554E-04 15188   0.915E-02
   3 F= -.76637692E+02 E0= -.76637722E+02  d E =-.694991E-03
 curvature:  -0.34 expect dE=-0.644E-03 dE for cont linesearch -0.484E-05
 trial: gam= 1.16326 g(F)=  0.164E-02 g(S)=  0.236E-03 ort =-0.157E-03 (trialstep = 0.423E+00)
 search vector abs. value=  0.388E-02
 reached required accuracy - stopping structural energy minimisation
