 running on   32 total cores
 distrk:  each k-point on   32 cores,    1 groups
 distr:  one band on    8 cores,    4 groups
 using from now: INCAR     
 vasp.5.4.4.18Apr17-6-g9f103f2a35 (build Nov 01 2019 12:17:22) complex          
  
 POSCAR found type information on POSCAR  H  Nb H  Nb H  Sr H  Sr
 POSCAR found :  8 types and      19 ions

 ----------------------------------------------------------------------------- 
|                                                                             |
|  ADVICE TO THIS USER RUNNING 'VASP/VAMP'   (HEAR YOUR MASTER'S VOICE ...):  |
|                                                                             |
|      You have a (more or less) 'large supercell' and for larger cells       |
|      it might be more efficient to use real space projection opertators     |
|      So try LREAL= Auto  in the INCAR   file.                               |
|      Mind:          For very  accurate calculation you might also keep the  |
|      reciprocal projection scheme          (i.e. LREAL=.FALSE.)             |
|                                                                             |
 ----------------------------------------------------------------------------- 

 LDA part: xc-table for Pade appr. of Perdew
 generate k-points for:    8    7    8
 POSCAR, INCAR and KPOINTS ok, starting setup
 FFT: planning ...
 WAVECAR not read
 entering main loop
       N       E                     dE             d eps       ncg     rms          rms(c)
DAV:   1     0.277987200772E+03    0.27799E+03   -0.18612E+04 18840   0.774E+02
DAV:   2    -0.582235898007E+02   -0.33621E+03   -0.32601E+03 23256   0.334E+02
DAV:   3    -0.802921330670E+02   -0.22069E+02   -0.21889E+02 27216   0.715E+01
DAV:   4    -0.815673209941E+02   -0.12752E+01   -0.12703E+01 31848   0.149E+01
DAV:   5    -0.815956832295E+02   -0.28362E-01   -0.28353E-01 27936   0.189E+00    0.451E+01
DAV:   6    -0.779325101309E+02    0.36632E+01   -0.73967E+00 26048   0.151E+01    0.201E+01
DAV:   7    -0.769419039931E+02    0.99061E+00   -0.23829E+00 25312   0.684E+00    0.864E+00
DAV:   8    -0.769294744774E+02    0.12430E-01   -0.76579E-01 30888   0.530E+00    0.342E+00
DAV:   9    -0.769257953197E+02    0.36792E-02   -0.68303E-02 27736   0.158E+00    0.243E+00
DAV:  10    -0.769259172089E+02   -0.12189E-03   -0.41356E-02 24376   0.970E-01    0.417E-01
DAV:  11    -0.769254907216E+02    0.42649E-03   -0.46456E-03 25296   0.484E-01    0.180E-01
DAV:  12    -0.769256770010E+02   -0.18628E-03   -0.56478E-04 22728   0.115E-01    0.531E-02
DAV:  13    -0.769257760453E+02   -0.99044E-04   -0.11870E-04 17576   0.829E-02
   1 F= -.76925776E+02 E0= -.76925676E+02  d E =-.769258E+02
 curvature:   0.00 expect dE= 0.000E+00 dE for cont linesearch  0.000E+00
 trial: gam= 0.00000 g(F)=  0.691E-02 g(S)=  0.109E-02 ort = 0.000E+00 (trialstep = 0.100E+01)
 search vector abs. value=  0.801E-02
 bond charge predicted
       N       E                     dE             d eps       ncg     rms          rms(c)
DAV:   1    -0.769224948906E+02    0.31821E-02   -0.53469E-01 20608   0.524E+00    0.382E-01
DAV:   2    -0.769297569717E+02   -0.72621E-02   -0.88028E-02 20536   0.140E+00    0.213E-01
DAV:   3    -0.769296683320E+02    0.88640E-04   -0.17205E-03 25312   0.254E-01    0.127E-01
DAV:   4    -0.769295545185E+02    0.11381E-03   -0.49653E-04 23416   0.157E-01    0.503E-02
DAV:   5    -0.769295597063E+02   -0.51879E-05   -0.14928E-04 16736   0.843E-02
   2 F= -.76929560E+02 E0= -.76929467E+02  d E =-.378366E-02
 trial-energy change:   -0.003784  1 .order   -0.003792   -0.008009    0.000425
 step:   0.9496(harm=  0.9496)  dis= 0.00905  next Energy=   -76.929579 (dE=-0.380E-02)
 bond charge predicted
       N       E                     dE             d eps       ncg     rms          rms(c)
DAV:   1    -0.769295579498E+02   -0.34313E-05   -0.13791E-03 22736   0.258E-01    0.269E-02
DAV:   2    -0.769295747953E+02   -0.16846E-04   -0.19767E-04 17448   0.699E-02
   3 F= -.76929575E+02 E0= -.76929482E+02  d E =-.379875E-02
 curvature:  -0.47 expect dE=-0.249E-02 dE for cont linesearch -0.182E-06
 trial: gam= 0.66089 g(F)=  0.461E-02 g(S)=  0.632E-03 ort =-0.554E-04 (trialstep = 0.915E+00)
 search vector abs. value=  0.866E-02
 bond charge predicted
       N       E                     dE             d eps       ncg     rms          rms(c)
DAV:   1    -0.769318974517E+02   -0.23395E-02   -0.24633E-01 20096   0.322E+00    0.261E-01
DAV:   2    -0.769330288371E+02   -0.11314E-02   -0.22935E-02 22016   0.886E-01    0.154E-01
DAV:   3    -0.769328429604E+02    0.18588E-03   -0.72860E-04 25360   0.155E-01    0.836E-02
DAV:   4    -0.769327631101E+02    0.79850E-04   -0.22104E-04 17616   0.970E-02
   4 F= -.76932763E+02 E0= -.76932678E+02  d E =-.318831E-02
 trial-energy change:   -0.003188  1 .order   -0.003277   -0.004760   -0.001793
 step:   1.4684(harm=  1.4684)  dis= 0.01274  next Energy=   -76.933393 (dE=-0.382E-02)
 bond charge predicted
       N       E                     dE             d eps       ncg     rms          rms(c)
DAV:   1    -0.769328858710E+02   -0.42911E-04   -0.89248E-02 20264   0.195E+00    0.155E-01
DAV:   2    -0.769332950920E+02   -0.40922E-03   -0.83581E-03 22000   0.532E-01    0.949E-02
DAV:   3    -0.769332277293E+02    0.67363E-04   -0.24105E-04 19720   0.942E-02
   5 F= -.76933228E+02 E0= -.76933147E+02  d E =-.365293E-02
 curvature:  -1.22 expect dE=-0.941E-02 dE for cont linesearch -0.757E-05
 trial: gam= 1.43954 g(F)=  0.737E-02 g(S)=  0.328E-03 ort = 0.232E-03 (trialstep = 0.338E+00)
 search vector abs. value=  0.263E-01
 bond charge predicted
       N       E                     dE             d eps       ncg     rms          rms(c)
DAV:   1    -0.769355102031E+02   -0.22151E-02   -0.87306E-02 20040   0.174E+00    0.169E-01
DAV:   2    -0.769355704870E+02   -0.60284E-04   -0.57760E-03 23832   0.481E-01    0.919E-02
DAV:   3    -0.769354821511E+02    0.88336E-04   -0.24231E-04 18808   0.969E-02
   6 F= -.76935482E+02 E0= -.76935401E+02  d E =-.225442E-02
 ZBRENT: can't locate minimum, use default step
 trial-energy change:   -0.002254  1 .order   -0.002499   -0.002712   -0.002287
 step:   1.3507(harm=  2.1535)  dis= 0.01995  next Energy=   -76.941875 (dE=-0.865E-02)
 bond charge predicted
       N       E                     dE             d eps       ncg     rms          rms(c)
DAV:   1    -0.769400056589E+02   -0.44352E-02   -0.79783E-01 19888   0.520E+00    0.504E-01
DAV:   2    -0.769405017211E+02   -0.49606E-03   -0.51474E-02 24088   0.144E+00    0.280E-01
DAV:   3    -0.769397002901E+02    0.80143E-03   -0.23995E-03 27736   0.277E-01    0.145E-01
DAV:   4    -0.769394387486E+02    0.26154E-03   -0.73740E-04 24632   0.171E-01    0.661E-02
DAV:   5    -0.769394332676E+02    0.54810E-05   -0.11083E-04 14464   0.952E-02
   7 F= -.76939433E+02 E0= -.76939349E+02  d E =-.620554E-02
 curvature:  -2.84 expect dE=-0.135E-01 dE for cont linesearch -0.459E-03
 trial: gam= 0.26153 g(F)=  0.435E-02 g(S)=  0.420E-03 ort = 0.206E-02 (trialstep = 0.540E+00)
 search vector abs. value=  0.765E-02
 bond charge predicted
       N       E                     dE             d eps       ncg     rms          rms(c)
DAV:   1    -0.769402283783E+02   -0.78963E-03   -0.12940E-01 19920   0.255E+00    0.217E-01
DAV:   2    -0.769416929038E+02   -0.14645E-02   -0.19159E-02 20576   0.704E-01    0.965E-02
DAV:   3    -0.769416663550E+02    0.26549E-04   -0.43179E-04 21672   0.135E-01
   8 F= -.76941666E+02 E0= -.76941573E+02  d E =-.223309E-02
 trial-energy change:   -0.002233  1 .order   -0.002287   -0.002867   -0.001707
 step:   1.3353(harm=  1.3353)  dis= 0.01101  next Energy=   -76.942976 (dE=-0.354E-02)
 bond charge predicted
       N       E                     dE             d eps       ncg     rms          rms(c)
DAV:   1    -0.769397256476E+02    0.19673E-02   -0.27850E-01 19888   0.374E+00    0.318E-01
DAV:   2    -0.769427476894E+02   -0.30220E-02   -0.40458E-02 20184   0.102E+00    0.151E-01
DAV:   3    -0.769426786036E+02    0.69086E-04   -0.95624E-04 24464   0.185E-01
   9 F= -.76942679E+02 E0= -.76942572E+02  d E =-.324534E-02
 curvature:  -0.96 expect dE=-0.475E-02 dE for cont linesearch -0.228E-05
 trial: gam= 1.21868 g(F)=  0.448E-02 g(S)=  0.458E-03 ort =-0.135E-03 (trialstep = 0.335E+00)
 search vector abs. value=  0.160E-01
 bond charge predicted
       N       E                     dE             d eps       ncg     rms          rms(c)
DAV:   1    -0.769438878587E+02   -0.11402E-02   -0.55722E-02 18280   0.150E+00    0.222E-01
DAV:   2    -0.769438542125E+02    0.33646E-04   -0.52491E-03 24424   0.475E-01    0.777E-02
DAV:   3    -0.769437990074E+02    0.55205E-04   -0.23840E-04 17576   0.924E-02
  10 F= -.76943799E+02 E0= -.76943689E+02  d E =-.112040E-02
 trial-energy change:   -0.001120  1 .order   -0.001334   -0.001598   -0.001069
 step:   1.0119(harm=  1.0119)  dis= 0.01094  next Energy=   -76.945092 (dE=-0.241E-02)
 bond charge predicted
       N       E                     dE             d eps       ncg     rms          rms(c)
DAV:   1    -0.769447973064E+02   -0.94309E-03   -0.23276E-01 18096   0.308E+00    0.451E-01
DAV:   2    -0.769448551790E+02   -0.57873E-04   -0.22114E-02 24032   0.973E-01    0.146E-01
DAV:   3    -0.769446511914E+02    0.20399E-03   -0.12358E-03 26576   0.225E-01    0.930E-02
DAV:   4    -0.769445705717E+02    0.80620E-04   -0.19417E-04 14504   0.113E-01
  11 F= -.76944571E+02 E0= -.76944452E+02  d E =-.189197E-02
 curvature:  -1.69 expect dE=-0.821E-02 dE for cont linesearch -0.654E-05
 trial: gam= 0.65863 g(F)=  0.445E-02 g(S)=  0.402E-03 ort = 0.248E-03 (trialstep = 0.470E+00)
 search vector abs. value=  0.121E-01
 bond charge predicted
       N       E                     dE             d eps       ncg     rms          rms(c)
DAV:   1    -0.769457049558E+02   -0.10538E-02   -0.10043E-01 19920   0.215E+00    0.162E-01
DAV:   2    -0.769465161511E+02   -0.81120E-03   -0.11095E-02 20800   0.566E-01    0.824E-02
DAV:   3    -0.769464920866E+02    0.24065E-04   -0.27890E-04 21712   0.106E-01
  12 F= -.76946492E+02 E0= -.76946379E+02  d E =-.192151E-02
 trial-energy change:   -0.001922  1 .order   -0.002024   -0.002359   -0.001688
 step:   1.6539(harm=  1.6539)  dis= 0.01733  next Energy=   -76.948719 (dE=-0.415E-02)
 bond charge predicted
       N       E                     dE             d eps       ncg     rms          rms(c)
DAV:   1    -0.769435597070E+02    0.29564E-02   -0.63869E-01 19888   0.541E+00    0.406E-01
DAV:   2    -0.769486493393E+02   -0.50896E-02   -0.68925E-02 20432   0.142E+00    0.208E-01
DAV:   3    -0.769485155199E+02    0.13382E-03   -0.18858E-03 28680   0.263E-01    0.123E-01
DAV:   4    -0.769484314294E+02    0.84090E-04   -0.35191E-04 20528   0.129E-01
  13 F= -.76948431E+02 E0= -.76948323E+02  d E =-.386086E-02
 curvature:  -2.00 expect dE=-0.111E-01 dE for cont linesearch -0.505E-05
 trial: gam= 1.18213 g(F)=  0.466E-02 g(S)=  0.923E-03 ort = 0.175E-03 (trialstep = 0.373E+00)
 search vector abs. value=  0.229E-01
 bond charge predicted
       N       E                     dE             d eps       ncg     rms          rms(c)
DAV:   1    -0.769494538700E+02   -0.93835E-03   -0.11439E-01 19904   0.225E+00    0.199E-01
DAV:   2    -0.769502917106E+02   -0.83784E-03   -0.11537E-02 21456   0.597E-01    0.878E-02
DAV:   3    -0.769502635689E+02    0.28142E-04   -0.28979E-04 21600   0.102E-01
  14 F= -.76950264E+02 E0= -.76950158E+02  d E =-.183214E-02
 ZBRENT: can't locate minimum, use default step
 trial-energy change:   -0.001832  1 .order   -0.001895   -0.002164   -0.001626
 step:   1.4939(harm=  1.5028)  dis= 0.02212  next Energy=   -76.952784 (dE=-0.435E-02)
 bond charge predicted
       N       E                     dE             d eps       ncg     rms          rms(c)
DAV:   1    -0.769448717881E+02    0.54199E-02   -0.10304E+00 19888   0.675E+00    0.573E-01
DAV:   2    -0.769524112635E+02   -0.75395E-02   -0.10265E-01 20768   0.177E+00    0.239E-01
DAV:   3    -0.769522390599E+02    0.17220E-03   -0.28275E-03 28864   0.292E-01    0.146E-01
DAV:   4    -0.769521259307E+02    0.11313E-03   -0.67802E-04 27224   0.149E-01    0.509E-02
DAV:   5    -0.769521337142E+02   -0.77835E-05   -0.72760E-05 14432   0.594E-02
  15 F= -.76952134E+02 E0= -.76952031E+02  d E =-.370228E-02
 curvature:  -2.97 expect dE=-0.176E-01 dE for cont linesearch -0.631E-04
 trial: gam= 1.17301 g(F)=  0.572E-02 g(S)=  0.219E-03 ort =-0.698E-03 (trialstep = 0.382E+00)
 search vector abs. value=  0.358E-01
 bond charge predicted
       N       E                     dE             d eps       ncg     rms          rms(c)
DAV:   1    -0.769532835975E+02   -0.11577E-02   -0.15067E-01 19768   0.233E+00    0.214E-01
DAV:   2    -0.769538421313E+02   -0.55853E-03   -0.10604E-02 22296   0.625E-01    0.998E-02
DAV:   3    -0.769537777123E+02    0.64419E-04   -0.36218E-04 22432   0.116E-01
  16 F= -.76953778E+02 E0= -.76953669E+02  d E =-.164400E-02
 ZBRENT: can't locate minimum, use default step
 trial-energy change:   -0.001644  1 .order   -0.001738   -0.001956   -0.001520
 step:   1.5287(harm=  1.7125)  dis= 0.02629  next Energy=   -76.956517 (dE=-0.438E-02)
 bond charge predicted
       N       E                     dE             d eps       ncg     rms          rms(c)
DAV:   1    -0.769507354211E+02    0.31067E-02   -0.13451E+00 19752   0.697E+00    0.654E-01
DAV:   2    -0.769556252475E+02   -0.48898E-02   -0.93707E-02 22584   0.186E+00    0.290E-01
DAV:   3    -0.769550509402E+02    0.57431E-03   -0.34716E-03 28096   0.338E-01    0.166E-01
DAV:   4    -0.769548589322E+02    0.19201E-03   -0.10628E-03 28328   0.186E-01    0.639E-02
DAV:   5    -0.769548640932E+02   -0.51609E-05   -0.15784E-04 17000   0.105E-01
  17 F= -.76954864E+02 E0= -.76954738E+02  d E =-.273038E-02
 curvature:  -5.88 expect dE=-0.584E-01 dE for cont linesearch -0.331E-03
 trial: gam= 0.00000 g(F)=  0.923E-02 g(S)=  0.706E-03 ort =-0.142E-02 (trialstep = 0.611E+00)
 search vector abs. value=  0.994E-02
 bond charge predicted
       N       E                     dE             d eps       ncg     rms          rms(c)
DAV:   1    -0.769541422104E+02    0.71672E-03   -0.30080E-01 19888   0.379E+00    0.316E-01
DAV:   2    -0.769578119826E+02   -0.36698E-02   -0.44927E-02 19632   0.962E-01    0.164E-01
DAV:   3    -0.769577108046E+02    0.10118E-03   -0.93017E-04 25304   0.181E-01    0.906E-02
DAV:   4    -0.769576495363E+02    0.61268E-04   -0.28483E-04 19776   0.108E-01
  18 F= -.76957650E+02 E0= -.76957525E+02  d E =-.278544E-02
 trial-energy change:   -0.002785  1 .order   -0.002802   -0.006077    0.000473
 step:   0.5673(harm=  0.5673)  dis= 0.00416  next Energy=   -76.957683 (dE=-0.282E-02)
 bond charge predicted
       N       E                     dE             d eps       ncg     rms          rms(c)
DAV:   1    -0.769576575788E+02    0.53226E-04   -0.16751E-03 21432   0.268E-01    0.455E-02
DAV:   2    -0.769576777855E+02   -0.20207E-04   -0.25098E-04 16832   0.765E-02
  19 F= -.76957678E+02 E0= -.76957554E+02  d E =-.281369E-02
 curvature:  -0.28 expect dE=-0.566E-03 dE for cont linesearch -0.243E-06
 trial: gam= 0.20996 g(F)=  0.162E-02 g(S)=  0.370E-03 ort =-0.922E-04 (trialstep = 0.603E+00)
 search vector abs. value=  0.239E-02
 bond charge predicted
       N       E                     dE             d eps       ncg     rms          rms(c)
DAV:   1    -0.769580375680E+02   -0.37999E-03   -0.57209E-02 18184   0.174E+00    0.216E-01
DAV:   2    -0.769585328052E+02   -0.49524E-03   -0.98220E-03 20048   0.512E-01    0.738E-02
DAV:   3    -0.769584920948E+02    0.40710E-04   -0.33167E-04 21680   0.111E-01
  20 F= -.76958492E+02 E0= -.76958375E+02  d E =-.814309E-03
 trial-energy change:   -0.000814  1 .order   -0.000860   -0.001190   -0.000530
 step:   1.0857(harm=  1.0857)  dis= 0.00408  next Energy=   -76.958750 (dE=-0.107E-02)
 bond charge predicted
       N       E                     dE             d eps       ncg     rms          rms(c)
DAV:   1    -0.769583348083E+02    0.19800E-03   -0.36065E-02 18184   0.137E+00    0.181E-01
DAV:   2    -0.769585932633E+02   -0.25845E-03   -0.61166E-03 20640   0.408E-01    0.673E-02
DAV:   3    -0.769585547106E+02    0.38553E-04   -0.22082E-04 21512   0.869E-02
  21 F= -.76958555E+02 E0= -.76958442E+02  d E =-.876925E-03
 curvature:  -0.66 expect dE=-0.915E-03 dE for cont linesearch -0.823E-05
 trial: gam= 0.79055 g(F)=  0.128E-02 g(S)=  0.115E-03 ort =-0.173E-03 (trialstep = 0.640E+00)
 search vector abs. value=  0.261E-02
 reached required accuracy - stopping structural energy minimisation
