       N       E                     dE             d eps       ncg     rms          rms(c)
DAV:   1    -0.190666946466E+02   -0.19067E+02   -0.46615E+03 13760   0.413E+02
DAV:   2    -0.579646754173E+02   -0.38898E+02   -0.37802E+02 17080   0.101E+02
DAV:   3    -0.594304296169E+02   -0.14658E+01   -0.14610E+01 16736   0.190E+01
DAV:   4    -0.594342334718E+02   -0.38039E-02   -0.38035E-02 16064   0.113E+00
DAV:   5    -0.594342494186E+02   -0.15947E-04   -0.15946E-04 15652   0.663E-02    0.116E+01
DAV:   6    -0.576820626668E+02    0.17522E+01   -0.48617E-01 14824   0.343E+00    0.668E+00
DAV:   7    -0.568344827110E+02    0.84758E+00   -0.12629E+00 15092   0.573E+00    0.622E-01
DAV:   8    -0.568533795963E+02   -0.18897E-01   -0.60947E-02 14920   0.145E+00    0.381E-01
DAV:   9    -0.568509605162E+02    0.24191E-02   -0.56998E-03 16160   0.454E-01    0.593E-02
DAV:  10    -0.568510231105E+02   -0.62594E-04   -0.32799E-04 16192   0.103E-01
   1 F= -.56851023E+02 E0= -.56851182E+02  d E =-.568510E+02
       N       E                     dE             d eps       ncg     rms          rms(c)
DAV:   1    -0.568525594581E+02   -0.15989E-02   -0.44273E-02 14468   0.125E+00    0.737E-02
DAV:   2    -0.568527446724E+02   -0.18521E-03   -0.24120E-03 16036   0.268E-01    0.574E-02
DAV:   3    -0.568527042471E+02    0.40425E-04   -0.56971E-05 11284   0.663E-02
   2 F= -.56852704E+02 E0= -.56852866E+02  d E =-.168114E-02
       N       E                     dE             d eps       ncg     rms          rms(c)
DAV:   1    -0.568527138384E+02    0.30834E-04   -0.62417E-04 14604   0.152E-01    0.956E-03
DAV:   2    -0.568527169449E+02   -0.31065E-05   -0.28515E-05  7208   0.285E-02
   3 F= -.56852717E+02 E0= -.56852879E+02  d E =-.169383E-02
       N       E                     dE             d eps       ncg     rms          rms(c)
DAV:   1    -0.568536799108E+02   -0.96607E-03   -0.91801E-03 14208   0.554E-01    0.320E-02
DAV:   2    -0.568536998308E+02   -0.19920E-04   -0.28882E-04 15332   0.930E-02
   4 F= -.56853700E+02 E0= -.56853862E+02  d E =-.982886E-03
       N       E                     dE             d eps       ncg     rms          rms(c)
DAV:   1    -0.568550352951E+02   -0.13554E-02   -0.81925E-02 14044   0.166E+00    0.950E-02
DAV:   2    -0.568551966347E+02   -0.16134E-03   -0.24162E-03 16132   0.268E-01    0.687E-02
DAV:   3    -0.568551564371E+02    0.40198E-04   -0.10968E-04 12388   0.753E-02
   5 F= -.56855156E+02 E0= -.56855320E+02  d E =-.243949E-02
       N       E                     dE             d eps       ncg     rms          rms(c)
DAV:   1    -0.568568783151E+02   -0.16817E-02   -0.17795E-02 14104   0.760E-01    0.427E-02
DAV:   2    -0.568568987098E+02   -0.20395E-04   -0.34053E-04 15988   0.102E-01
   6 F= -.56856899E+02 E0= -.56857063E+02  d E =-.174227E-02
       N       E                     dE             d eps       ncg     rms          rms(c)
DAV:   1    -0.568611488676E+02   -0.42706E-02   -0.15951E-01 14024   0.228E+00    0.126E-01
DAV:   2    -0.568613098023E+02   -0.16093E-03   -0.28912E-03 16064   0.296E-01    0.877E-02
DAV:   3    -0.568612588922E+02    0.50910E-04   -0.23722E-04 15356   0.821E-02
   7 F= -.56861259E+02 E0= -.56861424E+02  d E =-.610246E-02
       N       E                     dE             d eps       ncg     rms          rms(c)
DAV:   1    -0.568656927667E+02   -0.43830E-02   -0.64391E-01 14008   0.457E+00    0.253E-01
DAV:   2    -0.568664276948E+02   -0.73493E-03   -0.12563E-02 16016   0.615E-01    0.178E-01
DAV:   3    -0.568662071572E+02    0.22054E-03   -0.94784E-04 15752   0.165E-01    0.273E-02
DAV:   4    -0.568661995375E+02    0.76197E-05   -0.10436E-04  9252   0.561E-02
   8 F= -.56866200E+02 E0= -.56866366E+02  d E =-.110431E-01
       N       E                     dE             d eps       ncg     rms          rms(c)
DAV:   1    -0.568657738609E+02    0.43330E-03   -0.12615E-01 14960   0.217E+00    0.146E-01
DAV:   2    -0.568661404838E+02   -0.36662E-03   -0.67359E-03 15880   0.474E-01    0.113E-01
DAV:   3    -0.568659336110E+02    0.20687E-03   -0.26014E-04 16584   0.153E-01    0.166E-02
DAV:   4    -0.568659541505E+02   -0.20539E-04   -0.20829E-04 10904   0.739E-02
   9 F= -.56865954E+02 E0= -.56866122E+02  d E =0.245387E-03
       N       E                     dE             d eps       ncg     rms          rms(c)
DAV:   1    -0.568680000108E+02   -0.20664E-02   -0.32737E-02 14968   0.110E+00    0.731E-02
DAV:   2    -0.568680867727E+02   -0.86762E-04   -0.16715E-03 15788   0.237E-01    0.564E-02
DAV:   3    -0.568680313833E+02    0.55389E-04   -0.60848E-05 12304   0.794E-02
  10 F= -.56868031E+02 E0= -.56868198E+02  d E =-.183185E-02
       N       E                     dE             d eps       ncg     rms          rms(c)
DAV:   1    -0.568695166168E+02   -0.14298E-02   -0.33126E-02 14220   0.105E+00    0.640E-02
DAV:   2    -0.568696265667E+02   -0.10995E-03   -0.16330E-03 15836   0.208E-01    0.468E-02
DAV:   3    -0.568695993866E+02    0.27180E-04   -0.64333E-05  8352   0.495E-02
  11 F= -.56869599E+02 E0= -.56869767E+02  d E =-.156800E-02
       N       E                     dE             d eps       ncg     rms          rms(c)
DAV:   1    -0.568698317338E+02   -0.20517E-03   -0.14576E-02 14380   0.702E-01    0.426E-02
DAV:   2    -0.568698902581E+02   -0.58524E-04   -0.74757E-04 15804   0.140E-01
  12 F= -.56869890E+02 E0= -.56870059E+02  d E =-.185887E-02
       N       E                     dE             d eps       ncg     rms          rms(c)
DAV:   1    -0.568715430543E+02   -0.17113E-02   -0.25641E-02 14236   0.915E-01    0.551E-02
DAV:   2    -0.568715580607E+02   -0.15006E-04   -0.46465E-04 15964   0.119E-01
  13 F= -.56871558E+02 E0= -.56871727E+02  d E =-.166780E-02
       N       E                     dE             d eps       ncg     rms          rms(c)
DAV:   1    -0.568752094274E+02   -0.36664E-02   -0.23065E-01 14152   0.274E+00    0.156E-01
DAV:   2    -0.568753520924E+02   -0.14267E-03   -0.39207E-03 15900   0.347E-01    0.108E-01
DAV:   3    -0.568752437993E+02    0.10829E-03   -0.38188E-04 15820   0.111E-01    0.187E-02
DAV:   4    -0.568752406320E+02    0.31673E-05   -0.60780E-05  7996   0.435E-02
  14 F= -.56875241E+02 E0= -.56875410E+02  d E =-.535037E-02
       N       E                     dE             d eps       ncg     rms          rms(c)
DAV:   1    -0.568770105194E+02   -0.17667E-02   -0.93341E-01 14120   0.549E+00    0.318E-01
DAV:   2    -0.568776320361E+02   -0.62152E-03   -0.17025E-02 15868   0.721E-01    0.221E-01
DAV:   3    -0.568771474471E+02    0.48459E-03   -0.16419E-03 15900   0.229E-01    0.389E-02
DAV:   4    -0.568771334242E+02    0.14023E-04   -0.26847E-04 14972   0.900E-02
  15 F= -.56877133E+02 E0= -.56877303E+02  d E =-.724317E-02
       N       E                     dE             d eps       ncg     rms          rms(c)
DAV:   1    -0.568776679793E+02   -0.52053E-03   -0.47228E-03 14580   0.390E-01    0.232E-02
DAV:   2    -0.568776736720E+02   -0.56927E-05   -0.84938E-05 11960   0.521E-02
  16 F= -.56877674E+02 E0= -.56877843E+02  d E =-.540248E-03
       N       E                     dE             d eps       ncg     rms          rms(c)
DAV:   1    -0.568790203630E+02   -0.13524E-02   -0.40856E-02 14132   0.115E+00    0.671E-02
DAV:   2    -0.568790350269E+02   -0.14664E-04   -0.62027E-04 16192   0.138E-01
  17 F= -.56879035E+02 E0= -.56879205E+02  d E =-.190160E-02
       N       E                     dE             d eps       ncg     rms          rms(c)
DAV:   1    -0.568795368895E+02   -0.51653E-03   -0.77633E-04 15072   0.160E-01    0.133E-02
DAV:   2    -0.568795370354E+02   -0.14593E-06   -0.35375E-05  7292   0.335E-02
  18 F= -.56879537E+02 E0= -.56879707E+02  d E =-.502009E-03
       N       E                     dE             d eps       ncg     rms          rms(c)
DAV:   1    -0.568807256752E+02   -0.11888E-02   -0.60664E-03 15196   0.463E-01    0.312E-02
DAV:   2    -0.568807398311E+02   -0.14156E-04   -0.27878E-04 14032   0.954E-02
  19 F= -.56880740E+02 E0= -.56880910E+02  d E =-.170480E-02
       N       E                     dE             d eps       ncg     rms          rms(c)
DAV:   1    -0.568810682664E+02   -0.34259E-03   -0.30679E-04 14112   0.102E-01    0.760E-03
DAV:   2    -0.568810688589E+02   -0.59252E-06   -0.10680E-05  7224   0.185E-02
  20 F= -.56881069E+02 E0= -.56881239E+02  d E =-.329028E-03
       N       E                     dE             d eps       ncg     rms          rms(c)
DAV:   1    -0.568819928021E+02   -0.92454E-03   -0.29825E-03 14872   0.317E-01    0.213E-02
DAV:   2    -0.568819985480E+02   -0.57459E-05   -0.11403E-04 10304   0.585E-02
  21 F= -.56881999E+02 E0= -.56882169E+02  d E =-.125872E-02
       N       E                     dE             d eps       ncg     rms          rms(c)
DAV:   1    -0.568824191356E+02   -0.42633E-03   -0.44495E-04 14476   0.122E-01    0.805E-03
DAV:   2    -0.568824198519E+02   -0.71628E-06   -0.10434E-05  7252   0.181E-02
  22 F= -.56882420E+02 E0= -.56882590E+02  d E =-.421304E-03
       N       E                     dE             d eps       ncg     rms          rms(c)
DAV:   1    -0.568835629664E+02   -0.11438E-02   -0.43295E-03 15092   0.378E-01    0.249E-02
DAV:   2    -0.568835739603E+02   -0.10994E-04   -0.17351E-04 12140   0.706E-02
  23 F= -.56883574E+02 E0= -.56883744E+02  d E =-.157541E-02
       N       E                     dE             d eps       ncg     rms          rms(c)
DAV:   1    -0.568840478381E+02   -0.48487E-03   -0.78790E-04 14988   0.160E-01    0.101E-02
DAV:   2    -0.568840484449E+02   -0.60686E-06   -0.11193E-05  7348   0.194E-02
  24 F= -.56884048E+02 E0= -.56884219E+02  d E =-.474485E-03
       N       E                     dE             d eps       ncg     rms          rms(c)
DAV:   1    -0.568853427577E+02   -0.12949E-02   -0.74455E-03 14812   0.489E-01    0.317E-02
DAV:   2    -0.568853507328E+02   -0.79751E-05   -0.17752E-04 15260   0.745E-02
  25 F= -.56885351E+02 E0= -.56885521E+02  d E =-.177677E-02
       N       E                     dE             d eps       ncg     rms          rms(c)
DAV:   1    -0.568859071426E+02   -0.56438E-03   -0.19180E-03 14808   0.252E-01    0.139E-02
DAV:   2    -0.568859094279E+02   -0.22853E-05   -0.37691E-05  7660   0.350E-02
  26 F= -.56885909E+02 E0= -.56886079E+02  d E =-.558695E-03
       N       E                     dE             d eps       ncg     rms          rms(c)
DAV:   1    -0.568872606608E+02   -0.13535E-02   -0.18094E-02 14624   0.765E-01    0.490E-02
DAV:   2    -0.568872724077E+02   -0.11747E-04   -0.39163E-04 16108   0.111E-01
  27 F= -.56887272E+02 E0= -.56887442E+02  d E =-.192167E-02
       N       E                     dE             d eps       ncg     rms          rms(c)
DAV:   1    -0.568878359539E+02   -0.57529E-03   -0.62983E-03 15060   0.478E-01    0.303E-02
DAV:   2    -0.568878626062E+02   -0.26652E-04   -0.38958E-04 14264   0.112E-01
  28 F= -.56887863E+02 E0= -.56888032E+02  d E =-.590198E-03
       N       E                     dE             d eps       ncg     rms          rms(c)
DAV:   1    -0.568879327014E+02   -0.96747E-04   -0.22376E-03 15544   0.277E-01    0.283E-02
DAV:   2    -0.568879265652E+02    0.61362E-05   -0.48031E-05  7812   0.437E-02
  29 F= -.56887927E+02 E0= -.56888096E+02  d E =-.654157E-03
