unknown system                          
           1
     5.424610   -0.394324   -0.133287
     1.262226    4.859331   -0.547816
     2.516863    0.226682    4.443588
   Nb   H    Sr   H 
   1  11   1   2
Direct configuration=     1
   0.56821946  0.24805876  0.06355298
   0.25395605  0.15725624  0.01226938
   0.87830128  0.04609007  0.08402995
   0.11200207  0.81454866  0.73986141
   0.87428823  0.40508108  0.86990700
   0.62919215  0.42797545  0.31394755
   0.55584748  0.89571195  0.04283846
   0.46405171  0.53946775  0.88318554
   0.21139614  0.69610926  0.63824174
   0.25583896  0.46715977  0.30893588
   0.45092894  0.16977260  0.47971930
   0.28904634  0.29815236  0.92106695
   0.82409903  0.71069427  0.47502866
   0.37613990  0.06075490  0.44083592
   0.76618527  0.15956288  0.66655429
unknown system                          
           1
     5.425852   -0.395249   -0.133518
     1.261886    4.861256   -0.546340
     2.517180    0.227458    4.439998
   Nb   H    Sr   H 
   1  11   1   2
Direct configuration=     2
   0.56729695  0.24883270  0.06441083
   0.25402489  0.15680799  0.01191727
   0.87818154  0.04617762  0.08414682
   0.11188341  0.81476989  0.74016580
   0.87396763  0.40529649  0.87023573
   0.62857130  0.42775125  0.31413222
   0.55595632  0.89533846  0.04233203
   0.46439219  0.53903353  0.88286055
   0.21157754  0.69594293  0.63802855
   0.25599746  0.46702522  0.30901085
   0.45125546  0.16986392  0.47977741
   0.28940344  0.29793030  0.92088585
   0.82424741  0.71065277  0.47502900
   0.37642027  0.06146527  0.44064900
   0.76631720  0.15950765  0.66639310
unknown system                          
           1
     5.425856   -0.395251   -0.133519
     1.261885    4.861262   -0.546336
     2.517181    0.227460    4.439988
   Nb   H    Sr   H 
   1  11   1   2
Direct configuration=     3
   0.56729430  0.24883492  0.06441330
   0.25402508  0.15680670  0.01191625
   0.87818119  0.04617788  0.08414716
   0.11188307  0.81477053  0.74016668
   0.87396670  0.40529711  0.87023668
   0.62856951  0.42775060  0.31413275
   0.55595664  0.89533739  0.04233057
   0.46439317  0.53903228  0.88285961
   0.21157806  0.69594245  0.63802794
   0.25599792  0.46702483  0.30901106
   0.45125640  0.16986419  0.47977757
   0.28940446  0.29792966  0.92088533
   0.82424783  0.71065266  0.47502901
   0.37642108  0.06146731  0.44064846
   0.76631758  0.15950749  0.66639263
unknown system                          
           1
     5.426934   -0.396005   -0.133570
     1.261566    4.862335   -0.545416
     2.517568    0.227796    4.437421
   Nb   H    Sr   H 
   1  11   1   2
Direct configuration=     4
   0.56719311  0.24874517  0.06440346
   0.25409143  0.15650114  0.01164081
   0.87798605  0.04632835  0.08425448
   0.11197775  0.81472028  0.74021197
   0.87366644  0.40547527  0.87054031
   0.62810500  0.42768610  0.31440409
   0.55599763  0.89525777  0.04201241
   0.46460906  0.53878855  0.88258887
   0.21152930  0.69604327  0.63806073
   0.25591203  0.46705951  0.30922894
   0.45154481  0.17000675  0.47988840
   0.28963047  0.29773823  0.92076107
   0.82437195  0.71061293  0.47500688
   0.37653344  0.06190814  0.44056960
   0.76634454  0.15952454  0.66640298
unknown system                          
           1
     5.430166   -0.398265   -0.133725
     1.260611    4.865553   -0.542658
     2.518731    0.228804    4.429720
   Nb   H    Sr   H 
   1  11   1   2
Direct configuration=     5
   0.56688957  0.24847592  0.06437400
   0.25429047  0.15558477  0.01081423
   0.87740074  0.04677957  0.08457650
   0.11226164  0.81456959  0.74034794
   0.87276570  0.40600942  0.87145155
   0.62671151  0.42749237  0.31521860
   0.55612081  0.89501908  0.04105745
   0.46525667  0.53805769  0.88177640
   0.21138308  0.69634563  0.63815909
   0.25565425  0.46716343  0.30988290
   0.45240984  0.17043442  0.48022098
   0.29030831  0.29716417  0.92038824
   0.82474423  0.71049384  0.47494049
   0.37687078  0.06323042  0.44033260
   0.76642540  0.15957568  0.66643402
unknown system                          
           1
     5.431130   -0.399034   -0.134066
     1.260174    4.865703   -0.543336
     2.518804    0.227949    4.429717
   Nb   H    Sr   H 
   1  11   1   2
Direct configuration=     6
   0.56732085  0.24787366  0.06397026
   0.25440757  0.15551183  0.01062804
   0.87718903  0.04697503  0.08462474
   0.11229093  0.81457702  0.74040156
   0.87259861  0.40614416  0.87165462
   0.62646362  0.42757188  0.31551524
   0.55607418  0.89522978  0.04101511
   0.46527554  0.53802707  0.88158842
   0.21138360  0.69638391  0.63817860
   0.25553783  0.46715334  0.31002250
   0.45269813  0.17064170  0.48024448
   0.29027709  0.29699803  0.92030478
   0.82483696  0.71047843  0.47481721
   0.37664250  0.06320950  0.44065755
   0.76649656  0.15962065  0.66635191
unknown system                          
           1
     5.431467   -0.399302   -0.134185
     1.260022    4.865755   -0.543572
     2.518830    0.227650    4.429716
   Nb   H    Sr   H 
   1  11   1   2
Direct configuration=     7
   0.56747125  0.24766360  0.06382942
   0.25444841  0.15548639  0.01056309
   0.87711521  0.04704319  0.08464157
   0.11230115  0.81457962  0.74042027
   0.87254034  0.40619116  0.87172545
   0.62637717  0.42759962  0.31561870
   0.55605793  0.89530327  0.04100036
   0.46528212  0.53801638  0.88152286
   0.21138378  0.69639726  0.63818540
   0.25549723  0.46714983  0.31007118
   0.45279867  0.17071401  0.48025269
   0.29026620  0.29694008  0.92027565
   0.82486929  0.71047305  0.47477421
   0.37656288  0.06320221  0.44077088
   0.76652138  0.15963633  0.66632327
