 running on   32 total cores
 distrk:  each k-point on   32 cores,    1 groups
 distr:  one band on    8 cores,    4 groups
 using from now: INCAR     
 vasp.5.4.4.18Apr17-6-g9f103f2a35 (build Nov 01 2019 12:17:22) complex          
  
 POSCAR found type information on POSCAR  H  Sr H  Nb H  Nb H  Sr H 
 POSCAR found :  9 types and      15 ions
 LDA part: xc-table for Pade appr. of Perdew
 generate k-points for:    9    6    8
 POSCAR, INCAR and KPOINTS ok, starting setup
 FFT: planning ...
 WAVECAR not read
 entering main loop
       N       E                     dE             d eps       ncg     rms          rms(c)
DAV:   1     0.277039901856E+03    0.27704E+03   -0.17640E+04 16560   0.809E+02
DAV:   2    -0.471294031906E+02   -0.32417E+03   -0.31598E+03 20676   0.354E+02
DAV:   3    -0.677497215526E+02   -0.20620E+02   -0.20478E+02 24448   0.744E+01
DAV:   4    -0.688818907319E+02   -0.11322E+01   -0.11299E+01 27616   0.146E+01
DAV:   5    -0.689065750051E+02   -0.24684E-01   -0.24678E-01 24648   0.191E+00    0.451E+01
DAV:   6    -0.652311784324E+02    0.36754E+01   -0.95595E+00 23976   0.180E+01    0.190E+01
DAV:   7    -0.645985925048E+02    0.63259E+00   -0.33398E+00 22696   0.110E+01    0.897E+00
DAV:   8    -0.645152524286E+02    0.83340E-01   -0.19763E+00 23224   0.751E+00    0.446E+00
DAV:   9    -0.644834946078E+02    0.31758E-01   -0.42841E-01 25168   0.428E+00    0.192E+00
DAV:  10    -0.644818079756E+02    0.16866E-02   -0.46967E-02 23896   0.110E+00    0.231E-01
DAV:  11    -0.644816417796E+02    0.16620E-03   -0.89659E-03 23208   0.686E-01    0.246E-01
DAV:  12    -0.644816291786E+02    0.12601E-04   -0.87065E-04 22928   0.235E-01
   1 F= -.64481629E+02 E0= -.64481509E+02  d E =-.644816E+02
 curvature:   0.00 expect dE= 0.000E+00 dE for cont linesearch  0.000E+00
 trial: gam= 0.00000 g(F)=  0.971E-03 g(S)=  0.208E-03 ort = 0.000E+00 (trialstep = 0.100E+01)
 search vector abs. value=  0.118E-02
 bond charge predicted
       N       E                     dE             d eps       ncg     rms          rms(c)
DAV:   1    -0.644815077431E+02    0.13404E-03   -0.90139E-02 19120   0.237E+00    0.273E-01
DAV:   2    -0.644824026760E+02   -0.89493E-03   -0.15242E-02 17448   0.675E-01    0.105E-01
DAV:   3    -0.644823376516E+02    0.65024E-04   -0.51751E-04 18784   0.161E-01
   2 F= -.64482338E+02 E0= -.64482241E+02  d E =-.708473E-03
 trial-energy change:   -0.000708  1 .order   -0.000634   -0.001180   -0.000087
 step:   1.0801(harm=  1.0801)  dis= 0.00326  next Energy=   -64.482266 (dE=-0.637E-03)
 bond charge predicted
       N       E                     dE             d eps       ncg     rms          rms(c)
DAV:   1    -0.644823152850E+02    0.87391E-04   -0.66161E-04 17864   0.211E-01    0.609E-02
DAV:   2    -0.644823120185E+02    0.32665E-05   -0.22255E-04 10512   0.127E-01
   3 F= -.64482312E+02 E0= -.64482217E+02  d E =-.682840E-03
 curvature:  -0.54 expect dE=-0.423E-03 dE for cont linesearch -0.158E-04
 trial: gam= 0.82155 g(F)=  0.673E-03 g(S)=  0.111E-03 ort =-0.186E-03 (trialstep = 0.940E+00)
 search vector abs. value=  0.128E-02
 reached required accuracy - stopping structural energy minimisation
