   12   12   60    1
  0.1198788E+02  0.5846683E-09  0.5870752E-09  0.5857626E-09  0.5000000E-15
  1.000000000000000E-004
  CAR 
 unknown system                          
     40    324     28
 
  0.3742002E-15  0.3742002E-15  0.3742002E-15  0.1562500E-02
    1      -33.753093   1.000000
    2      -33.726565   1.000000
    3      -29.342071   1.000000
    4      -29.336719   1.000000
    5      -29.322219   1.000000
    6      -15.904481   1.000000
    7      -15.893277   1.000000
    8      -15.881005   1.000000
    9      -15.749238   1.000000
   10      -15.742315   1.000000
   11      -15.736479   1.000000
   12       -6.014728   1.000000
   13       -2.936622   1.000000
   14       -2.918211   1.000000
   15       -2.033009   1.000000
   16       -1.955754   1.000000
   17       -1.946554   1.000000
   18       -1.608423   1.000000
   19       -1.459655   1.000000
   20       -1.246847   0.996930
   21        4.324559   0.000000
   22        4.393827   0.000000
   23        4.485727   0.000000
   24        4.700072   0.000000
   25        4.777377   0.000000
   26        5.276667   0.000000
   27        6.262028   0.000000
   28        6.506926   0.000000
 
  0.1250000E+00  0.3472700E-15  0.3712308E-15  0.3125000E-02
    1      -33.752344   1.000000
    2      -33.727367   1.000000
    3      -29.342136   1.000000
    4      -29.336793   1.000000
    5      -29.322098   1.000000
    6      -15.899062   1.000000
    7      -15.888284   1.000000
    8      -15.876101   1.000000
    9      -15.756351   1.000000
   10      -15.749601   1.000000
   11      -15.743118   1.000000
   12       -5.913967   1.000000
   13       -2.970855   1.000000
   14       -2.798849   1.000000
   15       -2.183080   1.000000
   16       -1.992805   1.000000
   17       -1.942800   1.000000
   18       -1.698887   1.000000
   19       -1.386873   0.999996
   20       -1.289446   0.999237
   21        4.170778   0.000000
   22        4.428130   0.000000
   23        4.530145   0.000000
   24        4.658781   0.000000
   25        4.827770   0.000000
   26        5.297420   0.000000
   27        6.133301   0.000000
   28        6.285421   0.000000
 
  0.2500000E+00  0.3321453E-15  0.3608225E-15  0.3125000E-02
    1      -33.750265   1.000000
    2      -33.729585   1.000000
    3      -29.342290   1.000000
    4      -29.336953   1.000000
    5      -29.321810   1.000000
    6      -15.883844   1.000000
    7      -15.874233   1.000000
    8      -15.863646   1.000000
    9      -15.778026   1.000000
   10      -15.766777   1.000000
   11      -15.759939   1.000000
   12       -5.639895   1.000000
   13       -2.917928   1.000000
   14       -2.674565   1.000000
   15       -2.526707   1.000000
   16       -2.058768   1.000000
   17       -2.034345   1.000000
   18       -1.735141   1.000000
   19       -1.395925   0.999998
   20       -1.321173   0.999815
   21        3.945531   0.000000
   22        4.181930   0.000000
   23        4.514858   0.000000
   24        4.643953   0.000000
   25        4.961183   0.000000
   26        5.321203   0.000000
   27        5.950531   0.000000
   28        6.032825   0.000000
 
  0.3750000E+00  0.3586541E-15  0.3330669E-15  0.3125000E-02
    1      -33.747474   1.000000
    2      -33.732485   1.000000
    3      -29.342268   1.000000
    4      -29.336982   1.000000
    5      -29.321259   1.000000
    6      -15.862482   1.000000
    7      -15.854790   1.000000
    8      -15.847783   1.000000
    9      -15.803744   1.000000
   10      -15.787649   1.000000
   11      -15.782119   1.000000
   12       -5.285596   1.000000
   13       -3.081084   1.000000
   14       -2.745586   1.000000
   15       -2.465904   1.000000
   16       -2.209187   1.000000
   17       -2.136182   1.000000
   18       -1.634239   1.000000
   19       -1.488921   1.000000
   20       -1.342660   0.999940
   21        3.758665   0.000000
   22        3.914380   0.000000
   23        4.326294   0.000000
   24        4.679012   0.000000
   25        5.101117   0.000000
   26        5.285683   0.000000
   27        5.445766   0.000000
   28        6.018525   0.000000
 
  0.5000000E+00  0.3853255E-15  0.3885781E-15  0.1562500E-02
    1      -33.745893   1.000000
    2      -33.734106   1.000000
    3      -29.342315   1.000000
    4      -29.336885   1.000000
    5      -29.321116   1.000000
    6      -15.847582   1.000000
    7      -15.843289   1.000000
    8      -15.836707   1.000000
    9      -15.819588   1.000000
   10      -15.799275   1.000000
   11      -15.797499   1.000000
   12       -5.091065   1.000000
   13       -3.309291   1.000000
   14       -2.594919   1.000000
   15       -2.501403   1.000000
   16       -2.262514   1.000000
   17       -2.197809   1.000000
   18       -1.544738   1.000000
   19       -1.498135   1.000000
   20       -1.424197   1.000000
   21        3.676713   0.000000
   22        3.827154   0.000000
   23        4.176714   0.000000
   24        4.916612   0.000000
   25        4.941692   0.000000
   26        5.294766   0.000000
   27        5.521303   0.000000
   28        5.589923   0.000000
 
  0.3712308E-15  0.1000000E+00  0.3677614E-15  0.3125000E-02
    1      -33.752458   1.000000
    2      -33.727241   1.000000
    3      -29.342205   1.000000
    4      -29.336821   1.000000
    5      -29.322142   1.000000
    6      -15.906204   1.000000
    7      -15.893656   1.000000
    8      -15.868709   1.000000
    9      -15.767016   1.000000
   10      -15.741002   1.000000
   11      -15.735350   1.000000
   12       -5.932775   1.000000
   13       -2.936618   1.000000
   14       -2.867953   1.000000
   15       -2.121635   1.000000
   16       -2.019035   1.000000
   17       -1.926784   1.000000
   18       -1.615592   1.000000
   19       -1.462344   1.000000
   20       -1.267295   0.998291
   21        4.041524   0.000000
   22        4.350691   0.000000
   23        4.508619   0.000000
   24        4.735891   0.000000
   25        4.806788   0.000000
   26        5.299712   0.000000
   27        6.047113   0.000000
   28        6.287379   0.000000
 
  0.1250000E+00  0.1000000E+00  0.3747003E-15  0.3125000E-02
    1      -33.752402   1.000000
    2      -33.727297   1.000000
    3      -29.342227   1.000000
    4      -29.336901   1.000000
    5      -29.322269   1.000000
    6      -15.899222   1.000000
    7      -15.889619   1.000000
    8      -15.879172   1.000000
    9      -15.750954   1.000000
   10      -15.750063   1.000000
   11      -15.743313   1.000000
   12       -5.939287   1.000000
   13       -2.962605   1.000000
   14       -2.857577   1.000000
   15       -2.050541   1.000000
   16       -2.010090   1.000000
   17       -1.972085   1.000000
   18       -1.670471   1.000000
   19       -1.414805   0.999999
   20       -1.270906   0.998484
   21        4.150792   0.000000
   22        4.323933   0.000000
   23        4.474986   0.000000
   24        4.631144   0.000000
   25        4.856235   0.000000
   26        5.354607   0.000000
   27        6.094397   0.000000
   28        6.198513   0.000000
 
  0.2500000E+00  0.1000000E+00  0.3764350E-15  0.3125000E-02
    1      -33.750952   1.000000
    2      -33.728835   1.000000
    3      -29.342302   1.000000
    4      -29.336911   1.000000
    5      -29.322090   1.000000
    6      -15.891711   1.000000
    7      -15.880678   1.000000
    8      -15.867343   1.000000
    9      -15.774670   1.000000
   10      -15.762337   1.000000
   11      -15.745234   1.000000
   12       -5.753480   1.000000
   13       -2.962886   1.000000
   14       -2.727708   1.000000
   15       -2.317252   1.000000
   16       -2.070869   1.000000
   17       -1.965192   1.000000
   18       -1.783635   1.000000
   19       -1.333382   0.999901
   20       -1.318468   0.999789
   21        3.969419   0.000000
   22        4.234630   0.000000
   23        4.407241   0.000000
   24        4.688562   0.000000
   25        4.965291   0.000000
   26        5.466370   0.000000
   27        5.909236   0.000000
   28        5.962501   0.000000
 
  0.3750000E+00  0.1000000E+00  0.3374037E-15  0.3125000E-02
    1      -33.748460   1.000000
    2      -33.731439   1.000000
    3      -29.342273   1.000000
    4      -29.336864   1.000000
    5      -29.321559   1.000000
    6      -15.888218   1.000000
    7      -15.858710   1.000000
    8      -15.845058   1.000000
    9      -15.804672   1.000000
   10      -15.786096   1.000000
   11      -15.751384   1.000000
   12       -5.429990   1.000000
   13       -2.926858   1.000000
   14       -2.767882   1.000000
   15       -2.500266   1.000000
   16       -2.188289   1.000000
   17       -2.065911   1.000000
   18       -1.769707   1.000000
   19       -1.384227   0.999995
   20       -1.292266   0.999320
   21        3.773987   0.000000
   22        3.944000   0.000000
   23        4.450151   0.000000
   24        4.543516   0.000000
   25        5.024931   0.000000
   26        5.313358   0.000000
   27        5.640038   0.000000
   28        6.347176   0.000000
 
  0.5000000E+00  0.1000000E+00  0.3573530E-15  0.3125000E-02
    1      -33.746088   1.000000
    2      -33.733904   1.000000
    3      -29.342336   1.000000
    4      -29.336959   1.000000
    5      -29.321182   1.000000
    6      -15.880261   1.000000
    7      -15.847804   1.000000
    8      -15.833130   1.000000
    9      -15.818604   1.000000
   10      -15.798106   1.000000
   11      -15.765106   1.000000
   12       -5.118463   1.000000
   13       -3.227727   1.000000
   14       -2.658660   1.000000
   15       -2.449471   1.000000
   16       -2.352936   1.000000
   17       -2.155999   1.000000
   18       -1.691163   1.000000
   19       -1.407654   0.999999
   20       -1.331193   0.999889
   21        3.662119   0.000000
   22        3.735049   0.000000
   23        4.181639   0.000000
   24        4.723976   0.000000
   25        4.993885   0.000000
   26        5.262740   0.000000
   27        5.580869   0.000000
   28        5.891435   0.000000
 
 -0.3750000E+00  0.1000000E+00  0.3608225E-15  0.3125000E-02
    1      -33.746201   1.000000
    2      -33.733798   1.000000
    3      -29.342342   1.000000
    4      -29.336970   1.000000
    5      -29.321210   1.000000
    6      -15.874952   1.000000
    7      -15.864299   1.000000
    8      -15.844283   1.000000
    9      -15.803199   1.000000
   10      -15.781451   1.000000
   11      -15.775198   1.000000
   12       -5.107481   1.000000
   13       -3.238400   1.000000
   14       -2.636214   1.000000
   15       -2.500444   1.000000
   16       -2.301296   1.000000
   17       -2.186217   1.000000
   18       -1.654321   1.000000
   19       -1.472200   1.000000
   20       -1.309416   0.999677
   21        3.570579   0.000000
   22        3.806854   0.000000
   23        4.134255   0.000000
   24        4.729364   0.000000
   25        5.054588   0.000000
   26        5.354822   0.000000
   27        5.520356   0.000000
   28        5.839242   0.000000
 
 -0.2500000E+00  0.1000000E+00  0.4163336E-15  0.3125000E-02
    1      -33.748668   1.000000
    2      -33.731254   1.000000
    3      -29.342401   1.000000
    4      -29.337008   1.000000
    5      -29.321476   1.000000
    6      -15.888458   1.000000
    7      -15.880019   1.000000
    8      -15.837690   1.000000
    9      -15.808266   1.000000
   10      -15.763780   1.000000
   11      -15.756519   1.000000
   12       -5.411240   1.000000
   13       -2.880718   1.000000
   14       -2.802908   1.000000
   15       -2.553350   1.000000
   16       -2.150266   1.000000
   17       -2.100160   1.000000
   18       -1.722506   1.000000
   19       -1.452139   1.000000
   20       -1.281520   0.998963
   21        3.627138   0.000000
   22        4.038333   0.000000
   23        4.278276   0.000000
   24        4.623362   0.000000
   25        5.186675   0.000000
   26        5.379452   0.000000
   27        5.560610   0.000000
   28        6.286227   0.000000
 
 -0.1250000E+00  0.1000000E+00  0.3608225E-15  0.3125000E-02
    1      -33.751116   1.000000
    2      -33.728689   1.000000
    3      -29.342323   1.000000
    4      -29.336959   1.000000
    5      -29.322038   1.000000
    6      -15.902326   1.000000
    7      -15.890309   1.000000
    8      -15.850030   1.000000
    9      -15.791962   1.000000
   10      -15.746990   1.000000
   11      -15.740621   1.000000
   12       -5.738706   1.000000
   13       -2.924602   1.000000
   14       -2.713600   1.000000
   15       -2.429856   1.000000
   16       -2.079691   1.000000
   17       -1.915864   1.000000
   18       -1.760040   1.000000
   19       -1.379615   0.999993
   20       -1.312896   0.999725
   21        3.813787   0.000000
   22        4.301020   0.000000
   23        4.375122   0.000000
   24        4.709627   0.000000
   25        5.034583   0.000000
   26        5.408774   0.000000
   27        5.916136   0.000000
   28        6.056564   0.000000
 
  0.3747003E-15  0.2000000E+00  0.4302114E-15  0.3125000E-02
    1      -33.750789   1.000000
    2      -33.729006   1.000000
    3      -29.342399   1.000000
    4      -29.336987   1.000000
    5      -29.322110   1.000000
    6      -15.910877   1.000000
    7      -15.897912   1.000000
    8      -15.846163   1.000000
    9      -15.799481   1.000000
   10      -15.737531   1.000000
   11      -15.732065   1.000000
   12       -5.701260   1.000000
   13       -2.899460   1.000000
   14       -2.810927   1.000000
   15       -2.330696   1.000000
   16       -2.140184   1.000000
   17       -1.916417   1.000000
   18       -1.687746   1.000000
   19       -1.421270   1.000000
   20       -1.302219   0.999554
   21        3.536014   0.000000
   22        4.172374   0.000000
   23        4.245607   0.000000
   24        4.769385   0.000000
   25        5.124435   0.000000
   26        5.476041   0.000000
   27        5.647846   0.000000
   28        5.998574   0.000000
 
  0.1250000E+00  0.2000000E+00  0.4024558E-15  0.3125000E-02
    1      -33.751215   1.000000
    2      -33.728521   1.000000
    3      -29.342329   1.000000
    4      -29.336910   1.000000
    5      -29.322325   1.000000
    6      -15.902177   1.000000
    7      -15.890156   1.000000
    8      -15.861166   1.000000
    9      -15.778309   1.000000
   10      -15.747484   1.000000
   11      -15.740789   1.000000
   12       -5.805086   1.000000
   13       -2.916856   1.000000
   14       -2.861713   1.000000
   15       -2.141211   1.000000
   16       -2.077298   1.000000
   17       -1.998079   1.000000
   18       -1.608223   1.000000
   19       -1.452928   1.000000
   20       -1.292569   0.999328
   21        3.756712   0.000000
   22        4.155160   0.000000
   23        4.374722   0.000000
   24        4.665994   0.000000
   25        4.869119   0.000000
   26        5.356633   0.000000
   27        5.868579   0.000000
   28        5.992475   0.000000
 
  0.2500000E+00  0.2000000E+00  0.3747003E-15  0.3125000E-02
    1      -33.750396   1.000000
    2      -33.729357   1.000000
    3      -29.342311   1.000000
    4      -29.336766   1.000000
    5      -29.322256   1.000000
    6      -15.886983   1.000000
    7      -15.881405   1.000000
    8      -15.868917   1.000000
    9      -15.772746   1.000000
   10      -15.761189   1.000000
   11      -15.752509   1.000000
   12       -5.726354   1.000000
   13       -2.959446   1.000000
   14       -2.773206   1.000000
   15       -2.228093   1.000000
   16       -2.110530   1.000000
   17       -2.000209   1.000000
   18       -1.702775   1.000000
   19       -1.363928   0.999982
   20       -1.303300   0.999575
   21        3.852221   0.000000
   22        4.054894   0.000000
   23        4.131500   0.000000
   24        4.693246   0.000000
   25        4.963149   0.000000
   26        5.528470   0.000000
   27        5.803177   0.000000
   28        5.939485   0.000000
 
  0.3750000E+00  0.2000000E+00  0.3885781E-15  0.3125000E-02
    1      -33.748510   1.000000
    2      -33.731340   1.000000
    3      -29.342328   1.000000
    4      -29.336813   1.000000
    5      -29.321941   1.000000
    6      -15.900386   1.000000
    7      -15.859561   1.000000
    8      -15.845828   1.000000
    9      -15.803626   1.000000
   10      -15.785657   1.000000
   11      -15.738165   1.000000
   12       -5.484483   1.000000
   13       -2.932863   1.000000
   14       -2.710396   1.000000
   15       -2.457261   1.000000
   16       -2.266221   1.000000
   17       -1.960460   1.000000
   18       -1.843330   1.000000
   19       -1.326017   0.999855
   20       -1.259530   0.997822
   21        3.657877   0.000000
   22        3.858036   0.000000
   23        4.188971   0.000000
   24        4.569310   0.000000
   25        5.041521   0.000000
   26        5.404873   0.000000
   27        5.727338   0.000000
   28        6.265769   0.000000
 
  0.5000000E+00  0.2000000E+00  0.3816392E-15  0.3125000E-02
    1      -33.746210   1.000000
    2      -33.733740   1.000000
    3      -29.342374   1.000000
    4      -29.336809   1.000000
    5      -29.321495   1.000000
    6      -15.909205   1.000000
    7      -15.850565   1.000000
    8      -15.842516   1.000000
    9      -15.809060   1.000000
   10      -15.795816   1.000000
   11      -15.734833   1.000000
   12       -5.166586   1.000000
   13       -3.040486   1.000000
   14       -2.724631   1.000000
   15       -2.563911   1.000000
   16       -2.372241   1.000000
   17       -2.071081   1.000000
   18       -1.804336   1.000000
   19       -1.364947   0.999983
   20       -1.205284   0.995279
   21        3.521905   0.000000
   22        3.655746   0.000000
   23        4.105255   0.000000
   24        4.477880   0.000000
   25        5.031648   0.000000
   26        5.288234   0.000000
   27        5.781929   0.000000
   28        6.293349   0.000000
 
 -0.3750000E+00  0.2000000E+00  0.4163336E-15  0.3125000E-02
    1      -33.745229   1.000000
    2      -33.734758   1.000000
    3      -29.342397   1.000000
    4      -29.336807   1.000000
    5      -29.321229   1.000000
    6      -15.909403   1.000000
    7      -15.870198   1.000000
    8      -15.862219   1.000000
    9      -15.785505   1.000000
   10      -15.776281   1.000000
   11      -15.741678   1.000000
   12       -4.975212   1.000000
   13       -3.249780   1.000000
   14       -2.656042   1.000000
   15       -2.509571   1.000000
   16       -2.472694   1.000000
   17       -2.140691   1.000000
   18       -1.724476   1.000000
   19       -1.432427   1.000000
   20       -1.192867   0.996778
   21        3.383799   0.000000
   22        3.612958   0.000000
   23        3.990301   0.000000
   24        4.539684   0.000000
   25        5.083154   0.000000
   26        5.320640   0.000000
   27        5.868727   0.000000
   28        5.952285   0.000000
 
 -0.2500000E+00  0.2000000E+00  0.4718448E-15  0.3125000E-02
    1      -33.746829   1.000000
    2      -33.733133   1.000000
    3      -29.342359   1.000000
    4      -29.336835   1.000000
    5      -29.321332   1.000000
    6      -15.902460   1.000000
    7      -15.890856   1.000000
    8      -15.873334   1.000000
    9      -15.771514   1.000000
   10      -15.755108   1.000000
   11      -15.748170   1.000000
   12       -5.122606   1.000000
   13       -3.109389   1.000000
   14       -2.733003   1.000000
   15       -2.560014   1.000000
   16       -2.302373   1.000000
   17       -2.128256   1.000000
   18       -1.709315   1.000000
   19       -1.485205   1.000000
   20       -1.196680   0.996135
   21        3.277787   0.000000
   22        3.815626   0.000000
   23        4.001477   0.000000
   24        4.583021   0.000000
   25        5.129648   0.000000
   26        5.522391   0.000000
   27        5.644286   0.000000
   28        6.206357   0.000000
 
 -0.1250000E+00  0.2000000E+00  0.3885781E-15  0.3125000E-02
    1      -33.749163   1.000000
    2      -33.730715   1.000000
    3      -29.342412   1.000000
    4      -29.336893   1.000000
    5      -29.321671   1.000000
    6      -15.908125   1.000000
    7      -15.897432   1.000000
    8      -15.861151   1.000000
    9      -15.788138   1.000000
   10      -15.741920   1.000000
   11      -15.736031   1.000000
   12       -5.441049   1.000000
   13       -2.854488   1.000000
   14       -2.803007   1.000000
   15       -2.561767   1.000000
   16       -2.204366   1.000000
   17       -1.945338   1.000000
   18       -1.807108   1.000000
   19       -1.416200   0.999999
   20       -1.256772   0.997640
   21        3.341330   0.000000
   22        4.009402   0.000000
   23        4.153756   0.000000
   24        4.648321   0.000000
   25        5.282913   0.000000
   26        5.438110   0.000000
   27        5.754544   0.000000
   28        6.108516   0.000000
 
  0.3712308E-15  0.3000000E+00  0.4440892E-15  0.3125000E-02
    1      -33.748688   1.000000
    2      -33.731164   1.000000
    3      -29.342458   1.000000
    4      -29.336689   1.000000
    5      -29.321818   1.000000
    6      -15.916815   1.000000
    7      -15.903912   1.000000
    8      -15.886018   1.000000
    9      -15.767209   1.000000
   10      -15.732955   1.000000
   11      -15.727559   1.000000
   12       -5.360507   1.000000
   13       -2.950182   1.000000
   14       -2.852703   1.000000
   15       -2.424401   1.000000
   16       -2.278806   1.000000
   17       -1.925715   1.000000
   18       -1.757346   1.000000
   19       -1.357810   0.999974
   20       -1.319381   0.999798
   21        3.060679   0.000000
   22        3.918154   0.000000
   23        4.043826   0.000000
   24        4.568007   0.000000
   25        5.169369   0.000000
   26        5.452515   0.000000
   27        5.767216   0.000000
   28        6.168426   0.000000
 
  0.1250000E+00  0.3000000E+00  0.4163336E-15  0.3125000E-02
    1      -33.749213   1.000000
    2      -33.730571   1.000000
    3      -29.342353   1.000000
    4      -29.336665   1.000000
    5      -29.322097   1.000000
    6      -15.907480   1.000000
    7      -15.895378   1.000000
    8      -15.856101   1.000000
    9      -15.791969   1.000000
   10      -15.742659   1.000000
   11      -15.736481   1.000000
   12       -5.537838   1.000000
   13       -2.912263   1.000000
   14       -2.829595   1.000000
   15       -2.307909   1.000000
   16       -2.229047   1.000000
   17       -2.010012   1.000000
   18       -1.555356   1.000000
   19       -1.488357   1.000000
   20       -1.291494   0.999298
   21        3.286233   0.000000
   22        3.935317   0.000000
   23        4.136537   0.000000
   24        4.604955   0.000000
   25        5.016540   0.000000
   26        5.328790   0.000000
   27        5.649465   0.000000
   28        6.160610   0.000000
 
  0.2500000E+00  0.3000000E+00  0.4440892E-15  0.3125000E-02
    1      -33.748744   1.000000
    2      -33.731037   1.000000
    3      -29.342366   1.000000
    4      -29.336674   1.000000
    5      -29.322377   1.000000
    6      -15.888050   1.000000
    7      -15.877970   1.000000
    8      -15.855070   1.000000
    9      -15.787782   1.000000
   10      -15.765470   1.000000
   11      -15.757087   1.000000
   12       -5.564827   1.000000
   13       -2.964969   1.000000
   14       -2.763038   1.000000
   15       -2.353129   1.000000
   16       -2.148088   1.000000
   17       -2.009277   1.000000
   18       -1.624124   1.000000
   19       -1.391437   0.999997
   20       -1.324667   0.999845
   21        3.504603   0.000000
   22        3.812608   0.000000
   23        4.035540   0.000000
   24        4.632061   0.000000
   25        4.935388   0.000000
   26        5.209054   0.000000
   27        5.705553   0.000000
   28        6.209824   0.000000
 
  0.3750000E+00  0.3000000E+00  0.4163336E-15  0.3125000E-02
    1      -33.747400   1.000000
    2      -33.732416   1.000000
    3      -29.342312   1.000000
    4      -29.336626   1.000000
    5      -29.322207   1.000000
    6      -15.883795   1.000000
    7      -15.862698   1.000000
    8      -15.851786   1.000000
    9      -15.797916   1.000000
   10      -15.783041   1.000000
   11      -15.756816   1.000000
   12       -5.433050   1.000000
   13       -2.990603   1.000000
   14       -2.716658   1.000000
   15       -2.418197   1.000000
   16       -2.257795   1.000000
   17       -2.020664   1.000000
   18       -1.693951   1.000000
   19       -1.332236   0.999895
   20       -1.296381   0.999427
   21        3.541558   0.000000
   22        3.705604   0.000000
   23        3.805414   0.000000
   24        4.679489   0.000000
   25        4.983226   0.000000
   26        5.186142   0.000000
   27        5.779350   0.000000
   28        6.154163   0.000000
 
  0.5000000E+00  0.3000000E+00  0.4024558E-15  0.3125000E-02
    1      -33.745620   1.000000
    2      -33.734280   1.000000
    3      -29.342409   1.000000
    4      -29.336662   1.000000
    5      -29.321883   1.000000
    6      -15.909571   1.000000
    7      -15.853110   1.000000
    8      -15.847641   1.000000
    9      -15.803994   1.000000
   10      -15.793957   1.000000
   11      -15.734241   1.000000
   12       -5.190133   1.000000
   13       -2.992136   1.000000
   14       -2.696125   1.000000
   15       -2.628382   1.000000
   16       -2.383248   1.000000
   17       -1.961878   1.000000
   18       -1.849434   1.000000
   19       -1.336919   0.999918
   20       -1.179378   1.000698
   21        3.389503   0.000000
   22        3.562363   0.000000
   23        3.834087   0.000000
   24        4.501570   0.000000
   25        4.937812   0.000000
   26        5.340856   0.000000
   27        5.784909   0.000000
   28        6.232193   0.000000
 
 -0.3750000E+00  0.3000000E+00  0.4440892E-15  0.3125000E-02
    1      -33.744514   1.000000
    2      -33.735448   1.000000
    3      -29.342475   1.000000
    4      -29.336683   1.000000
    5      -29.321560   1.000000
    6      -15.928011   1.000000
    7      -15.874340   1.000000
    8      -15.868675   1.000000
    9      -15.779267   1.000000
   10      -15.773469   1.000000
   11      -15.722701   1.000000
   12       -4.942690   1.000000
   13       -3.086999   1.000000
   14       -2.895848   1.000000
   15       -2.580136   1.000000
   16       -2.408506   1.000000
   17       -2.067554   1.000000
   18       -1.777094   1.000000
   19       -1.392879   0.999997
   20       -1.124446   1.043562
   21        3.214314   0.000000
   22        3.513151   0.000000
   23        3.823979   0.000000
   24        4.385645   0.000000
   25        5.104570   0.000000
   26        5.283424   0.000000
   27        5.940434   0.000000
   28        6.248369   0.000000
 
 -0.2500000E+00  0.3000000E+00  0.4996004E-15  0.3125000E-02
    1      -33.745383   1.000000
    2      -33.734591   1.000000
    3      -29.342472   1.000000
    4      -29.336754   1.000000
    5      -29.321384   1.000000
    6      -15.932536   1.000000
    7      -15.896748   1.000000
    8      -15.887019   1.000000
    9      -15.755911   1.000000
   10      -15.749788   1.000000
   11      -15.723674   1.000000
   12       -4.884808   1.000000
   13       -3.243012   1.000000
   14       -2.849893   1.000000
   15       -2.526250   1.000000
   16       -2.386561   1.000000
   17       -2.097559   1.000000
   18       -1.704551   1.000000
   19       -1.474657   1.000000
   20       -1.134365   1.034745
   21        3.010117   0.000000
   22        3.651022   0.000000
   23        3.834369   0.000000
   24        4.399847   0.000000
   25        5.105948   0.000000
   26        5.498428   0.000000
   27        5.931325   0.000000
   28        6.116922   0.000000
 
 -0.1250000E+00  0.3000000E+00  0.4163336E-15  0.3125000E-02
    1      -33.747231   1.000000
    2      -33.732696   1.000000
    3      -29.342434   1.000000
    4      -29.336717   1.000000
    5      -29.321459   1.000000
    6      -15.921567   1.000000
    7      -15.910364   1.000000
    8      -15.896727   1.000000
    9      -15.746784   1.000000
   10      -15.735903   1.000000
   11      -15.729283   1.000000
   12       -5.089863   1.000000
   13       -3.135478   1.000000
   14       -2.821787   1.000000
   15       -2.514829   1.000000
   16       -2.301078   1.000000
   17       -2.004226   1.000000
   18       -1.762160   1.000000
   19       -1.455053   1.000000
   20       -1.195960   0.996243
   21        2.948610   0.000000
   22        3.798277   0.000000
   23        3.939475   0.000000
   24        4.486206   0.000000
   25        5.021942   0.000000
   26        5.700311   0.000000
   27        5.946798   0.000000
   28        6.025020   0.000000
 
  0.3747003E-15  0.4000000E+00  0.4996004E-15  0.3125000E-02
    1      -33.746976   1.000000
    2      -33.732937   1.000000
    3      -29.342489   1.000000
    4      -29.336664   1.000000
    5      -29.321606   1.000000
    6      -15.934288   1.000000
    7      -15.919218   1.000000
    8      -15.907487   1.000000
    9      -15.731648   1.000000
   10      -15.727547   1.000000
   11      -15.721439   1.000000
   12       -4.997673   1.000000
   13       -3.270462   1.000000
   14       -2.848903   1.000000
   15       -2.429179   1.000000
   16       -2.321568   1.000000
   17       -1.942546   1.000000
   18       -1.768698   1.000000
   19       -1.389128   0.999996
   20       -1.262922   0.998035
   21        2.733423   0.000000
   22        3.732166   0.000000
   23        3.930540   0.000000
   24        4.375514   0.000000
   25        4.906125   0.000000
   26        5.651060   0.000000
   27        5.911619   0.000000
   28        6.346380   0.000000
 
  0.1250000E+00  0.4000000E+00  0.4440892E-15  0.3125000E-02
    1      -33.747178   1.000000
    2      -33.732677   1.000000
    3      -29.342471   1.000000
    4      -29.336584   1.000000