       N       E                     dE             d eps       ncg     rms          rms(c)
DAV:   1     0.172157527668E+03    0.17216E+03   -0.13516E+04 17152   0.758E+02
DAV:   2    -0.370612707721E+02   -0.20922E+03   -0.20445E+03 20900   0.295E+02
DAV:   3    -0.509455938701E+02   -0.13884E+02   -0.13840E+02 26192   0.588E+01
DAV:   4    -0.517805591272E+02   -0.83497E+00   -0.83338E+00 26376   0.120E+01
DAV:   5    -0.517988665923E+02   -0.18307E-01   -0.18306E-01 26064   0.174E+00    0.414E+01
DAV:   6    -0.491904257572E+02    0.26084E+01   -0.49044E+00 24984   0.134E+01    0.194E+01
DAV:   7    -0.483816020508E+02    0.80882E+00   -0.20661E+00 23200   0.568E+00    0.845E+00
DAV:   8    -0.483689984157E+02    0.12604E-01   -0.52520E-01 25920   0.381E+00    0.327E+00
DAV:   9    -0.483805943850E+02   -0.11596E-01   -0.58867E-02 21380   0.111E+00    0.662E-01
DAV:  10    -0.483815499595E+02   -0.95557E-03   -0.51647E-03 23600   0.472E-01    0.356E-01
DAV:  11    -0.483828788954E+02   -0.13289E-02   -0.80310E-04 17060   0.148E-01    0.878E-02
DAV:  12    -0.483839390722E+02   -0.10602E-02   -0.10236E-03 16408   0.140E-01    0.120E-01
DAV:  13    -0.483839860679E+02   -0.46996E-04   -0.89024E-05 18084   0.549E-02
   1 F= -.48383986E+02 E0= -.48384149E+02  d E =-.483840E+02
       N       E                     dE             d eps       ncg     rms          rms(c)
DAV:   1    -0.484116131824E+02   -0.27674E-01   -0.68123E-01 16840   0.533E+00    0.129E+00
DAV:   2    -0.484004920979E+02    0.11121E-01   -0.56717E-02 26240   0.182E+00    0.430E-01
DAV:   3    -0.483969015082E+02    0.35906E-02   -0.57741E-03 23140   0.437E-01    0.224E-01
DAV:   4    -0.483958793592E+02    0.10221E-02   -0.43980E-03 28240   0.328E-01    0.271E-01
DAV:   5    -0.483959683128E+02   -0.88954E-04   -0.29970E-04 17684   0.812E-02
   2 F= -.48395968E+02 E0= -.48396133E+02  d E =-.119822E-01
       N       E                     dE             d eps       ncg     rms          rms(c)
DAV:   1    -0.484647470876E+02   -0.68868E-01   -0.27561E+00 16248   0.107E+01    0.257E+00
DAV:   2    -0.484172611864E+02    0.47486E-01   -0.23423E-01 26144   0.366E+00    0.901E-01
DAV:   3    -0.484034641865E+02    0.13797E-01   -0.24410E-02 23240   0.888E-01    0.458E-01
DAV:   4    -0.483991559060E+02    0.43083E-02   -0.17601E-02 28008   0.653E-01    0.556E-01
DAV:   5    -0.483995904256E+02   -0.43452E-03   -0.13107E-03 23024   0.163E-01    0.326E-01
DAV:   6    -0.483995892565E+02    0.11690E-05   -0.11207E-03 29064   0.176E-01    0.105E-01
DAV:   7    -0.483995948334E+02   -0.55769E-05   -0.10297E-04 12872   0.505E-02
   3 F= -.48399595E+02 E0= -.48399766E+02  d E =-.156088E-01
       N       E                     dE             d eps       ncg     rms          rms(c)
DAV:   1    -0.484080426791E+02   -0.84534E-02   -0.28059E-01 16296   0.340E+00    0.814E-01
DAV:   2    -0.484033967792E+02    0.46459E-02   -0.22914E-02 26416   0.114E+00    0.279E-01
DAV:   3    -0.484017609843E+02    0.16358E-02   -0.23389E-03 23464   0.283E-01    0.139E-01
DAV:   4    -0.484013259022E+02    0.43508E-03   -0.18218E-03 28124   0.219E-01    0.166E-01
DAV:   5    -0.484013656977E+02   -0.39796E-04   -0.11380E-04 12704   0.540E-02
   4 F= -.48401366E+02 E0= -.48401535E+02  d E =-.173796E-01
       N       E                     dE             d eps       ncg     rms          rms(c)
DAV:   1    -0.484143911542E+02   -0.13065E-01   -0.63404E-01 16240   0.507E+00    0.560E-01
DAV:   2    -0.484113873611E+02    0.30038E-02   -0.20306E-02 22096   0.954E-01    0.413E-01
DAV:   3    -0.484100750727E+02    0.13123E-02   -0.21541E-03 21048   0.295E-01    0.147E-01
DAV:   4    -0.484098939136E+02    0.18116E-03   -0.58516E-04 21280   0.157E-01    0.555E-02
DAV:   5    -0.484098993832E+02   -0.54696E-05   -0.46487E-05 11264   0.490E-02
   5 F= -.48409899E+02 E0= -.48410069E+02  d E =-.853369E-02
       N       E                     dE             d eps       ncg     rms          rms(c)
DAV:   1    -0.484229611241E+02   -0.13067E-01   -0.13781E+00 16240   0.748E+00    0.839E-01
DAV:   2    -0.484171905970E+02    0.57705E-02   -0.44537E-02 22112   0.141E+00    0.621E-01
DAV:   3    -0.484142778582E+02    0.29127E-02   -0.48242E-03 21048   0.436E-01    0.224E-01
DAV:   4    -0.484136657459E+02    0.61211E-03   -0.12777E-03 23288   0.232E-01    0.813E-02
DAV:   5    -0.484136768022E+02   -0.11056E-04   -0.93241E-05 11540   0.679E-02
   6 F= -.48413677E+02 E0= -.48413842E+02  d E =-.123111E-01
       N       E                     dE             d eps       ncg     rms          rms(c)
DAV:   1    -0.484104753744E+02    0.31904E-02   -0.96977E-01 16904   0.752E+00    0.498E-01
DAV:   2    -0.484179008662E+02   -0.74255E-02   -0.10177E-01 18152   0.182E+00    0.278E-01
DAV:   3    -0.484176770482E+02    0.22382E-03   -0.21459E-03 25044   0.277E-01    0.173E-01
DAV:   4    -0.484171695638E+02    0.50748E-03   -0.74784E-04 20764   0.187E-01    0.773E-02
DAV:   5    -0.484171792134E+02   -0.96496E-05   -0.14077E-04 13860   0.763E-02
   7 F= -.48417179E+02 E0= -.48417451E+02  d E =-.350241E-02
       N       E                     dE             d eps       ncg     rms          rms(c)
DAV:   1    -0.484175295957E+02   -0.36003E-03   -0.45527E-02 18632   0.162E+00    0.111E-01
DAV:   2    -0.484178172511E+02   -0.28766E-03   -0.42828E-03 18108   0.376E-01    0.548E-02
DAV:   3    -0.484178039365E+02    0.13315E-04   -0.76627E-05 14712   0.576E-02
   8 F= -.48417804E+02 E0= -.48417804E+02  d E =-.412713E-02
       N       E                     dE             d eps       ncg     rms          rms(c)
DAV:   1    -0.484200868861E+02   -0.22696E-02   -0.35341E-01 17568   0.427E+00    0.394E-01
DAV:   2    -0.484212996756E+02   -0.12128E-02   -0.23705E-02 19824   0.968E-01    0.225E-01
DAV:   3    -0.484210557724E+02    0.24390E-03   -0.92393E-04 25740   0.181E-01    0.106E-01
DAV:   4    -0.484212981383E+02   -0.24237E-03   -0.15333E-04 11828   0.903E-02    0.707E-02
DAV:   5    -0.484213025030E+02   -0.43647E-05   -0.47360E-05 11044   0.640E-02
   9 F= -.48421303E+02 E0= -.48421303E+02  d E =-.349857E-02
       N       E                     dE             d eps       ncg     rms          rms(c)
DAV:   1    -0.484210692660E+02    0.22887E-03   -0.33061E-02 17528   0.131E+00    0.129E-01
DAV:   2    -0.484211896094E+02   -0.12034E-03   -0.22194E-03 20192   0.293E-01    0.661E-02
DAV:   3    -0.484211691864E+02    0.20423E-04   -0.70852E-05 12824   0.539E-02
  10 F= -.48421169E+02 E0= -.48421398E+02  d E =-.336525E-02
       N       E                     dE             d eps       ncg     rms          rms(c)
DAV:   1    -0.484224252705E+02   -0.12357E-02   -0.12289E-01 18560   0.241E+00    0.179E-01
DAV:   2    -0.484231060796E+02   -0.68081E-03   -0.70131E-03 21300   0.521E-01    0.142E-01
DAV:   3    -0.484230593867E+02    0.46693E-04   -0.14153E-04 14228   0.818E-02
  11 F= -.48423059E+02 E0= -.48423059E+02  d E =-.189020E-02
       N       E                     dE             d eps       ncg     rms          rms(c)
DAV:   1    -0.484231127458E+02   -0.66662E-05   -0.12193E-01 18568   0.239E+00    0.188E-01
DAV:   2    -0.484234426813E+02   -0.32994E-03   -0.68894E-03 21576   0.514E-01    0.159E-01
DAV:   3    -0.484233952883E+02    0.47393E-04   -0.15087E-04 14396   0.834E-02
  12 F= -.48423395E+02 E0= -.48423395E+02  d E =-.222610E-02
       N       E                     dE             d eps       ncg     rms          rms(c)
DAV:   1    -0.484239342822E+02   -0.49160E-03   -0.42724E-02 18356   0.141E+00    0.145E-01
DAV:   2    -0.484238996121E+02    0.34670E-04   -0.26921E-03 21560   0.340E-01    0.771E-02
DAV:   3    -0.484238576236E+02    0.41989E-04   -0.10617E-04 11752   0.687E-02
  13 F= -.48423858E+02 E0= -.48424178E+02  d E =-.462335E-03
       N       E                     dE             d eps       ncg     rms          rms(c)
DAV:   1    -0.484248594922E+02   -0.95988E-03   -0.24284E-01 18560   0.332E+00    0.353E-01
DAV:   2    -0.484246424705E+02    0.21702E-03   -0.14530E-02 21900   0.791E-01    0.170E-01
DAV:   3    -0.484244357720E+02    0.20670E-03   -0.71380E-04 24440   0.159E-01    0.998E-02
DAV:   4    -0.484243585336E+02    0.77238E-04   -0.23570E-04 13716   0.101E-01
  14 F= -.48424359E+02 E0= -.48424686E+02  d E =-.963245E-03
