    8    8   60    1
  0.8588049E+01  0.3330981E-09  0.6493714E-09  0.3682760E-09  0.5000000E-15
  1.000000000000000E-004
  CAR 
 unknown system                          
     27    540     20
 
  0.3742002E-15  0.3742002E-15  0.3742002E-15  0.9276438E-03
    1      -32.037853   1.000000
    2      -27.809091   1.000000
    3      -27.750796   1.000000
    4      -27.647063   1.000000
    5      -14.103871   1.000000
    6      -13.894283   1.000000
    7      -13.708460   1.000000
    8       -5.929024   1.000000
    9       -2.804642   1.000000
   10       -1.376427   1.000000
   11       -0.929483   1.000000
   12        2.358196   1.000000
   13        3.714211   0.000025
   14        4.251891   0.000000
   15        4.861591   0.000000
   16        4.999182   0.000000
   17        5.107326   0.000000
   18        5.849222   0.000000
   19        8.906882   0.000000
   20        9.641827   0.000000
 
  0.7142857E-01  0.3754592E-15  0.3747003E-15  0.1855288E-02
    1      -32.032626   1.000000
    2      -27.807312   1.000000
    3      -27.749356   1.000000
    4      -27.661927   1.000000
    5      -14.097011   1.000000
    6      -13.888565   1.000000
    7      -13.770672   1.000000
    8       -5.811405   1.000000
    9       -2.742193   1.000000
   10       -1.372667   1.000000
   11       -0.926416   1.000000
   12        2.341067   1.000000
   13        2.890541   1.000000
   14        4.489519   0.000000
   15        4.847605   0.000000
   16        4.979684   0.000000
   17        5.597864   0.000000
   18        6.144501   0.000000
   19        8.800833   0.000000
   20        9.400639   0.000000
 
  0.1428571E+00  0.3779529E-15  0.3781697E-15  0.1855288E-02
    1      -32.017900   1.000000
    2      -27.802604   1.000000
    3      -27.745267   1.000000
    4      -27.703418   1.000000
    5      -14.077151   1.000000
    6      -13.939824   1.000000
    7      -13.872274   1.000000
    8       -5.477043   1.000000
    9       -2.575156   1.000000
   10       -1.423004   1.000000
   11       -0.857218   1.000000
   12        1.881012   1.000000
   13        2.300428   1.000000
   14        4.181296   0.000000
   15        4.625641   0.000000
   16        5.395630   0.000000
   17        6.449368   0.000000
   18        6.792732   0.000000
   19        8.406185   0.000000
   20        8.961384   0.000000
 
  0.2142857E+00  0.3905296E-15  0.3816392E-15  0.1855288E-02
    1      -31.996416   1.000000
    2      -27.796889   1.000000
    3      -27.762007   1.000000
    4      -27.739391   1.000000
    5      -14.172070   1.000000
    6      -14.043734   1.000000
    7      -13.848885   1.000000
    8       -4.989319   1.000000
    9       -2.355757   1.000000
   10       -1.535046   1.000000
   11       -0.669536   1.000000
   12        1.010890   1.000000
   13        2.203711   1.000000
   14        3.707543   0.000037
   15        4.526164   0.000000
   16        5.848517   0.000000
   17        6.795110   0.000000
   18        7.453720   0.000000
   19        8.028619   0.000000
   20        8.714589   0.000000
 
  0.2857143E+00  0.3820728E-15  0.3955170E-15  0.1855288E-02
    1      -31.972272   1.000000
    2      -27.830648   1.000000
    3      -27.786264   1.000000
    4      -27.733051   1.000000
    5      -14.413992   1.000000
    6      -14.002735   1.000000
    7      -13.822135   1.000000
    8       -4.456724   1.000000
    9       -2.156617   1.000000
   10       -1.574250   1.000000
   11       -0.451719   1.000000
   12        0.320923   1.000000
   13        2.101238   1.000000
   14        3.191569   0.998222
   15        4.539757   0.000000
   16        6.004141   0.000000
   17        6.813408   0.000000
   18        7.367808   0.000000
   19        8.325264   0.000000
   20        8.702520   0.000000
 
  0.3571429E+00  0.3946496E-15  0.3885781E-15  0.1855288E-02
    1      -31.950246   1.000000
    2      -27.888698   1.000000
    3      -27.780408   1.000000
    4      -27.727793   1.000000
    5      -14.621216   1.000000
    6      -13.961565   1.000000
    7      -13.797617   1.000000
    8       -4.032493   1.000000
    9       -1.973287   1.000000
   10       -1.472429   1.000000
   11       -0.487314   1.000000
   12        0.006613   1.000000
   13        2.034286   1.000000
   14        2.722077   1.000000
   15        4.612227   0.000000
   16        5.931193   0.000000
   17        6.562256   0.000000
   18        7.292069   0.000000
   19        8.505877   0.000000
   20        8.871736   0.000000
 
  0.4285714E+00  0.4002874E-15  0.3816392E-15  0.1855288E-02
    1      -31.934846   1.000000
    2      -27.928755   1.000000
    3      -27.775879   1.000000
    4      -27.724041   1.000000
    5      -14.758883   1.000000
    6      -13.930234   1.000000
    7      -13.780167   1.000000
    8       -3.816886   1.000000
    9       -1.675649   1.000000
   10       -1.335797   1.000000
   11       -0.871444   1.000000
   12        0.084584   1.000000
   13        2.016131   1.000000
   14        2.380439   1.000000
   15        4.761660   0.000000
   16        5.685234   0.000000
   17        6.404302   0.000000
   18        7.286909   0.000000
   19        8.504841   0.000000
   20        9.110959   0.000000
 
  0.5000000E+00  0.3781697E-15  0.3885781E-15  0.9276438E-03
    1      -31.929317   1.000000
    2      -27.943044   1.000000
    3      -27.774290   1.000000
    4      -27.722790   1.000000
    5      -14.807044   1.000000
    6      -13.918630   1.000000
    7      -13.773912   1.000000
    8       -3.764325   1.000000
    9       -1.370017   1.000000
   10       -1.275389   1.000000
   11       -1.196937   1.000000
   12        0.129591   1.000000
   13        2.017520   1.000000
   14        2.250909   1.000000
   15        4.901385   0.000000
   16        5.474170   0.000000
   17        6.380583   0.000000
   18        7.288903   0.000000
   19        8.454034   0.000000
   20        9.136401   0.000000
 
  0.3771397E-15  0.1428571E+00  0.3729655E-15  0.1855288E-02
    1      -32.038015   1.000000
    2      -27.808900   1.000000
    3      -27.750313   1.000000
    4      -27.646954   1.000000
    5      -14.113560   1.000000
    6      -13.894520   1.000000
    7      -13.708433   1.000000
    8       -5.806978   1.000000
    9       -2.853561   1.000000
   10       -1.463994   1.000000
   11       -0.865174   1.000000
   12        2.194466   1.000000
   13        3.326603   0.878657
   14        4.245151   0.000000
   15        4.555018   0.000000
   16        4.996482   0.000000
   17        5.298835   0.000000
   18        6.699652   0.000000
   19        8.697332   0.000000
   20        9.245130   0.000000
 
  0.7142857E-01  0.1428571E+00  0.3781697E-15  0.1855288E-02
    1      -32.032901   1.000000
    2      -27.807151   1.000000
    3      -27.748620   1.000000
    4      -27.661910   1.000000
    5      -14.113877   1.000000
    6      -13.889023   1.000000
    7      -13.770231   1.000000
    8       -5.583709   1.000000
    9       -2.863092   1.000000
   10       -1.536644   1.000000
   11       -0.766217   1.000000
   12        1.978570   1.000000
   13        2.610173   1.000000
   14        4.197456   0.000000
   15        4.667016   0.000000
   16        4.935111   0.000000
   17        5.858925   0.000000
   18        7.295868   0.000000
   19        8.428112   0.000000
   20        9.037188   0.000000
 
  0.1428571E+00  0.1428571E+00  0.3781697E-15  0.1855288E-02
    1      -32.018170   1.000000
    2      -27.802498   1.000000
    3      -27.744482   1.000000
    4      -27.703512   1.000000
    5      -14.095032   1.000000
    6      -13.937880   1.000000
    7      -13.872770   1.000000
    8       -5.185396   1.000000
    9       -2.793482   1.000000
   10       -1.592643   1.000000
   11       -0.582783   1.000000
   12        1.499725   1.000000
   13        1.999091   1.000000
   14        4.064329   0.000000
   15        4.351282   0.000000
   16        5.504177   0.000000
   17        6.540563   0.000000
   18        7.743934   0.000000
   19        7.911296   0.000000
   20        9.128391   0.000000
 
  0.2142857E+00  0.1428571E+00  0.3816392E-15  0.1855288E-02
    1      -31.996580   1.000000
    2      -27.796794   1.000000
    3      -27.762148   1.000000
    4      -27.738923   1.000000
    5      -14.168353   1.000000
    6      -14.057834   1.000000
    7      -13.849131   1.000000
    8       -4.703822   1.000000
    9       -2.662108   1.000000
   10       -1.585717   1.000000
   11       -0.340579   1.000000
   12        0.762612   1.000000
   13        1.804117   1.000000
   14        3.628287   0.001446
   15        4.293318   0.000000
   16        6.113957   0.000000
   17        6.956184   0.000000
   18        7.261366   0.000000
   19        8.241558   0.000000
   20        8.709690   0.000000
 
  0.2857143E+00  0.1428571E+00  0.3747003E-15  0.1855288E-02
    1      -31.972313   1.000000
    2      -27.830897   1.000000
    3      -27.786276   1.000000
    4      -27.733104   1.000000
    5      -14.409860   1.000000
    6      -14.010933   1.000000
    7      -13.822141   1.000000
    8       -4.271415   1.000000
    9       -2.435267   1.000000
   10       -1.508030   1.000000
   11       -0.157020   1.000000
   12        0.155916   1.000000
   13        1.766117   1.000000
   14        3.108961   0.998401
   15        4.364434   0.000000
   16        6.319219   0.000000
   17        6.754109   0.000000
   18        7.579782   0.000000
   19        8.080606   0.000000
   20        8.638351   0.000000
 
  0.3571429E+00  0.1428571E+00  0.3885781E-15  0.1855288E-02
    1      -31.950224   1.000000
    2      -27.888675   1.000000
    3      -27.780301   1.000000
    4      -27.727762   1.000000
    5      -14.618138   1.000000
    6      -13.964180   1.000000
    7      -13.797349   1.000000
    8       -3.980057   1.000000
    9       -2.078645   1.000000
   10       -1.404352   1.000000
   11       -0.473408   1.000000
   12        0.089323   1.000000
   13        1.851725   1.000000
   14        2.666212   1.000000
   15        4.502277   0.000000
   16        6.240281   0.000000
   17        6.370902   0.000000
   18        7.541833   0.000000
   19        8.316767   0.000000
   20        8.793728   0.000000
 
  0.4285714E+00  0.1428571E+00  0.3816392E-15  0.1855288E-02
    1      -31.934855   1.000000
    2      -27.928657   1.000000
    3      -27.775855   1.000000
    4      -27.723992   1.000000
    5      -14.758885   1.000000
    6      -13.930461   1.000000
    7      -13.780096   1.000000
    8       -3.807019   1.000000
    9       -1.686231   1.000000
   10       -1.345031   1.000000
   11       -0.861680   1.000000
   12        0.092759   1.000000
   13        1.995753   1.000000
   14        2.389228   1.000000
   15        4.735554   0.000000
   16        5.755152   0.000000
   17        6.387064   0.000000
   18        7.268822   0.000000
   19        8.476869   0.000000
   20        9.033286   0.000000
 
  0.5000000E+00  0.1428571E+00  0.3885781E-15  0.1855288E-02
    1      -31.929406   1.000000
    2      -27.942740   1.000000
    3      -27.774359   1.000000
    4      -27.722457   1.000000
    5      -14.810238   1.000000
    6      -13.917915   1.000000
    7      -13.774215   1.000000
    8       -3.716216   1.000000
    9       -1.481208   1.000000
   10       -1.395554   1.000000
   11       -1.005751   1.000000
   12       -0.011579   1.000000
   13        2.148153   1.000000
   14        2.340030   1.000000
   15        5.009792   0.000000
   16        5.339028   0.000000
   17        6.499059   0.000000
   18        7.050176   0.000000
   19        8.546968   0.000000
   20        9.171987   0.000000
 
 -0.4285714E+00  0.1428571E+00  0.3469447E-15  0.1855288E-02
    1      -31.934970   1.000000
    2      -27.928423   1.000000
    3      -27.775968   1.000000
    4      -27.723630   1.000000
    5      -14.764562   1.000000
    6      -13.928032   1.000000
    7      -13.780613   1.000000
    8       -3.781953   1.000000
    9       -1.662710   1.000000
   10       -1.455627   1.000000
   11       -0.765450   1.000000
   12       -0.173038   1.000000
   13        2.293238   1.000000
   14        2.521366   1.000000
   15        4.965228   0.000000
   16        5.407975   0.000000
   17        6.582490   0.000000
   18        6.909956   0.000000
   19        8.682629   0.000000
   20        9.072309   0.000000
 
 -0.3571429E+00  0.1428571E+00  0.3608225E-15  0.1855288E-02
    1      -31.950324   1.000000
    2      -27.888205   1.000000
    3      -27.780413   1.000000
    4      -27.727339   1.000000
    5      -14.627481   1.000000
    6      -13.955847   1.000000
    7      -13.797830   1.000000
    8       -4.112363   1.000000
    9       -1.726221   1.000000
   10       -1.602841   1.000000
   11       -0.581742   1.000000
   12       -0.137039   1.000000
   13        2.412947   1.000000
   14        2.879373   1.000000
   15        4.870455   0.000000
   16        5.613386   0.000000
   17        6.560150   0.000000
   18        7.035158   0.000000
   19        8.697429   0.000000
   20        8.962886   0.000000
 
 -0.2857143E+00  0.1428571E+00  0.3642919E-15  0.1855288E-02
    1      -31.972245   1.000000
    2      -27.830522   1.000000
    3      -27.786309   1.000000
    4      -27.733158   1.000000
    5      -14.419511   1.000000
    6      -13.993552   1.000000
    7      -13.822115   1.000000
    8       -4.633210   1.000000
    9       -1.959586   1.000000
   10       -1.472998   1.000000
   11       -0.759232   1.000000
   12        0.383009   1.000000
   13        2.503374   1.000000
   14        3.320489   0.919084
   15        4.877404   0.000000
   16        5.744212   0.000000
   17        6.513217   0.000000
   18        7.304596   0.000000
   19        8.324873   0.000000
   20        8.807916   0.000000
 
 -0.2142857E+00  0.1428571E+00  0.3677614E-15  0.1855288E-02
    1      -31.996293   1.000000
    2      -27.796890   1.000000
    3      -27.762000   1.000000
    4      -27.739599   1.000000
    5      -14.174879   1.000000
    6      -14.033033   1.000000
    7      -13.848650   1.000000
    8       -5.165061   1.000000
    9       -2.255821   1.000000
   10       -1.279225   1.000000
   11       -0.963793   1.000000
   12        1.105701   1.000000
   13        2.527060   1.000000
   14        3.790252   0.000000
   15        4.984625   0.000000
   16        5.704806   0.000000
   17        6.189902   0.000000
   18        7.334540   0.000000
   19        8.287463   0.000000
   20        8.666532   0.000000
 
 -0.1428571E+00  0.1428571E+00  0.3712308E-15  0.1855288E-02
    1      -32.017784   1.000000
    2      -27.802643   1.000000
    3      -27.745318   1.000000
    4      -27.703371   1.000000
    5      -14.069067   1.000000
    6      -13.940898   1.000000
    7      -13.872044   1.000000
    8       -5.581554   1.000000
    9       -2.531503   1.000000
   10       -1.259806   1.000000
   11       -1.003520   1.000000
   12        1.957129   1.000000
   13        2.482028   1.000000
   14        4.237187   0.000000
   15        5.064841   0.000000
   16        5.366516   0.000000
   17        5.821309   0.000000
   18        6.662038   0.000000
   19        8.698729   0.000000
   20        9.005008   0.000000
 
 -0.7142857E-01  0.1428571E+00  0.3729655E-15  0.1855288E-02
    1      -32.032638   1.000000
    2      -27.807306   1.000000
    3      -27.749299   1.000000
    4      -27.661892   1.000000
    5      -14.097337   1.000000
    6      -13.888551   1.000000
    7      -13.770734   1.000000
    8       -5.807478   1.000000
    9       -2.743190   1.000000
   10       -1.375895   1.000000
   11       -0.925834   1.000000
   12        2.333479   1.000000
   13        2.901111   1.000000
   14        4.476069   0.000000
   15        4.826638   0.000000
   16        4.988324   0.000000
   17        5.575561   0.000000
   18        6.208532   0.000000
   19        8.782651   0.000000
   20        9.467565   0.000000
 
  0.3524741E-15  0.2857143E+00  0.3764350E-15  0.1855288E-02
    1      -32.038399   1.000000
    2      -27.808730   1.000000
    3      -27.749416   1.000000
    4      -27.646926   1.000000
    5      -14.135844   1.000000
    6      -13.895167   1.000000
    7      -13.708637   1.000000
    8       -5.480571   1.000000
    9       -3.081556   1.000000
   10       -1.614401   1.000000
   11       -0.639418   1.000000
   12        1.620905   1.000000
   13        2.889139   1.000000
   14        4.223804   0.000000
   15        4.353645   0.000000
   16        5.006606   0.000000
   17        5.560759   0.000000
   18        8.025308   0.000000
   19        8.658594   0.000000
   20        8.699047   0.000000
 
  0.7142857E-01  0.2857143E+00  0.3712308E-15  0.1855288E-02
    1      -32.033255   1.000000
    2      -27.807004   1.000000
    3      -27.747736   1.000000
    4      -27.661934   1.000000
    5      -14.134967   1.000000
    6      -13.889645   1.000000
    7      -13.769961   1.000000
    8       -5.214650   1.000000
    9       -3.183514   1.000000
   10       -1.643786   1.000000
   11       -0.452398   1.000000
   12        1.269529   1.000000
   13        2.435595   1.000000
   14        4.087403   0.000000
   15        4.652828   0.000000
   16        4.906918   0.000000
   17        5.950378   0.000000
   18        8.048980   0.000000
   19        8.587085   0.000000
   20        9.101124   0.000000
 
  0.1428571E+00  0.2857143E+00  0.3816392E-15  0.1855288E-02
    1      -32.018403   1.000000
    2      -27.802418   1.000000
    3      -27.743936   1.000000
    4      -27.703565   1.000000
    5      -14.109903   1.000000
    6      -13.936767   1.000000
    7      -13.873188   1.000000
    8       -4.860265   1.000000
    9       -3.129720   1.000000
   10       -1.625524   1.000000
   11       -0.231412   1.000000
   12        0.906346   1.000000
   13        1.885325   1.000000
   14        4.031452   0.000000
   15        4.263982   0.000000
   16        5.600727   0.000000
   17        6.520102   0.000000
   18        7.371288   0.000000
   19        8.795042   0.000000
   20        9.305016   0.000000
 
  0.2142857E+00  0.2857143E+00  0.3747003E-15  0.1855288E-02
    1      -31.996666   1.000000
    2      -27.796692   1.000000
    3      -27.762146   1.000000
    4      -27.738774   1.000000
    5      -14.166551   1.000000
    6      -14.065082   1.000000
    7      -13.849192   1.000000
    8       -4.524982   1.000000
    9       -2.875478   1.000000
   10       -1.568599   1.000000
   11       -0.067686   1.000000
   12        0.486562   1.000000
   13        1.648121   1.000000
   14        3.603155   0.003048
   15        4.235569   0.000000
   16        6.365741   0.000000
   17        6.679493   0.000000
   18        7.243705   0.000000
   19        8.379028   0.000000
   20        8.838220   0.000000
 
  0.2857143E+00  0.2857143E+00  0.3885781E-15  0.1855288E-02
    1      -31.972332   1.000000
    2      -27.830781   1.000000
    3      -27.786264   1.000000
    4      -27.732947   1.000000
    5      -14.410054   1.000000
    6      -14.011455   1.000000
    7      -13.822077   1.000000
    8       -4.251317   1.000000
    9       -2.454714   1.000000
   10       -1.509011   1.000000
   11       -0.142898   1.000000
   12        0.154367   1.000000
   13        1.741883   1.000000
   14        3.115866   0.998004
   15        4.360844   0.000000
   16        6.364755   0.000000
   17        6.737559   0.000000
   18        7.600390   0.000000
   19        8.018505   0.000000
   20        8.645249   0.000000
 
  0.3571429E+00  0.2857143E+00  0.3955170E-15  0.1855288E-02
    1      -31.950272   1.000000
    2      -27.888494   1.000000
    3      -27.780257   1.000000
    4      -27.727471   1.000000
    5      -14.621204   1.000000
    6      -13.962014   1.000000
    7      -13.797382   1.000000
    8       -4.002470   1.000000
    9       -2.005363   1.000000
   10       -1.472851   1.000000
   11       -0.469996   1.000000
   12        0.017761   1.000000
   13        1.986400   1.000000
   14        2.738717   1.000000
   15        4.578467   0.000000
   16        6.084234   0.000000
   17        6.542283   0.000000
   18        7.211566   0.000000
   19        8.490863   0.000000
   20        8.744689   0.000000
 
  0.4285714E+00  0.2857143E+00  0.3747003E-15  0.1855288E-02
    1      -31.934990   1.000000
    2      -27.928207   1.000000
    3      -27.775920   1.000000
    4      -27.723527   1.000000
    5      -14.764424   1.000000
    6      -13.928498   1.000000
    7      -13.780552   1.000000
    8       -3.759421   1.000000
    9       -1.684442   1.000000
   10       -1.473988   1.000000
   11       -0.745156   1.000000
   12       -0.161057   1.000000
   13        2.232209   1.000000
   14        2.555584   1.000000
   15        4.857157   0.000000
   16        5.610396   0.000000
   17        6.566573   0.000000
   18        6.856077   0.000000
   19        8.569701   0.000000
   20        9.052415   0.000000
 
  0.5000000E+00  0.2857143E+00  0.3885781E-15  0.1855288E-02
    1      -31.929600   1.000000
    2      -27.942300   1.000000
    3      -27.774455   1.000000
    4      -27.721940   1.000000
    5      -14.817594   1.000000
    6      -13.916458   1.000000
    7      -13.774843   1.000000
    8       -3.606804   1.000000
    9       -1.678506   1.000000
   10       -1.400159   1.000000
   11       -0.833403   1.000000
   12       -0.389247   1.000000
   13        2.456948   1.000000
   14        2.572824   1.000000
   15        4.962029   0.000000
   16        5.428164   0.000000
   17        6.495587   0.000000
   18        6.796807   0.000000
   19        8.671359   0.000000
   20        9.046459   0.000000
 
 -0.4285714E+00  0.2857143E+00  0.3538836E-15  0.1855288E-02
    1      -31.935142   1.000000
    2      -27.927949   1.000000
    3      -27.775990   1.000000
    4      -27.723051   1.000000
    5      -14.771653   1.000000
    6      -13.925530   1.000000
    7      -13.781027   1.000000
    8       -3.732378   1.000000
    9       -1.697360   1.000000
   10       -1.413277   1.000000
   11       -0.728801   1.000000
   12       -0.528314   1.000000
   13        2.648989   1.000000
   14        2.735562   1.000000
   15        4.864773   0.000000
   16        5.598940   0.000000
   17        6.374907   0.000000
   18        6.890559   0.000000
   19        8.538886   0.000000
   20        8.697657   0.000000
 
 -0.3571429E+00  0.2857143E+00  0.3712308E-15  0.1855288E-02
    1      -31.950406   1.000000
    2      -27.887972   1.000000
    3      -27.780446   1.000000
    4      -27.727160   1.000000
    5      -14.632820   1.000000
    6      -13.951982   1.000000
    7      -13.798024   1.000000
    8       -4.164077   1.000000
    9       -1.740673   1.000000
   10       -1.337220   1.000000
   11       -0.910240   1.000000
   12       -0.166296   1.000000
   13        2.711706   1.000000
   14        3.035482   0.999940
   15        4.903917   0.000000
   16        5.773449   0.000000
   17        6.303601   0.000000
   18        7.020443   0.000000
   19        8.158310   0.000000
   20        8.743707   0.000000
 
 -0.2857143E+00  0.2857143E+00  0.3747003E-15  0.1855288E-02
    1      -31.972245   1.000000
    2      -27.830336   1.000000
    3      -27.786302   1.000000
    4      -27.733094   1.000000
    5      -14.421985   1.000000
    6      -13.989940   1.000000
    7      -13.822002   1.000000
    8       -4.692397   1.000000
    9       -1.956572   1.000000
   10       -1.178578   1.000000
   11       -1.059446   1.000000
   12        0.401474   1.000000
   13        2.662357   1.000000
   14        3.391676   0.252290
   15        5.012000   0.000000
   16        5.955203   0.000000
   17        6.154129   0.000000
   18        7.168143   0.000000
   19        8.190370   0.000000
   20        8.740402   0.000000
 
 -0.2142857E+00  0.2857143E+00  0.3747003E-15  0.1855288E-02
    1      -31.996313   1.000000
    2      -27.796775   1.000000
    3      -27.762100   1.000000
    4      -27.739558   1.000000
    5      -14.175367   1.000000
    6      -14.033731   1.000000
    7      -13.848542   1.000000
    8       -5.156842   1.000000
    9       -2.257427   1.000000
   10       -1.299559   1.000000
   11       -0.947940   1.000000
   12        1.106964   1.000000
   13        2.508158   1.000000
   14        3.794520   0.000000
   15        4.907428   0.000000
   16        5.796855   0.000000
   17        6.248252   0.000000
   18        7.289075   0.000000
   19        8.352902   0.000000
   20        8.634690   0.000000
 
 -0.1428571E+00  0.2857143E+00  0.3720982E-15  0.1855288E-02
    1      -32.017932   1.000000
    2      -27.802624   1.000000
    3      -27.745154   1.000000
    4      -27.703479   1.000000
    5      -14.078187   1.000000
    6      -13.940072   1.000000
    7      -13.872308   1.000000
    8       -5.464619   1.000000
    9       -2.578664   1.000000
   10       -1.435945   1.000000
   11       -0.851654   1.000000
   12        1.882242   1.000000
   13        2.281017   1.000000
   14        4.180069   0.000000
   15        4.613250   0.000000
   16        5.359554   0.000000
   17        6.502442   0.000000
   18        6.862613   0.000000
   19        8.436348   0.000000
   20        8.963339   0.000000
 
 -0.7142857E-01  0.2857143E+00  0.3755676E-15  0.1855288E-02
    1      -32.032918   1.000000
    2      -27.807102   1.000000
    3      -27.748520   1.000000
    4      -27.661894   1.000000
    5      -14.114497   1.000000
    6      -13.889034   1.000000
    7      -13.770439   1.000000
    8       -5.574808   1.000000
    9       -2.866345   1.000000
   10       -1.542897   1.000000
   11       -0.763406   1.000000
   12        1.961004   1.000000
   13        2.626798   1.000000
   14        4.198316   0.000000
   15        4.661678   0.000000
   16        4.920726   0.000000
   17        5.835133   0.000000
   18        7.386454   0.000000
   19        8.451732   0.000000
   20        9.031846   0.000000
 
  0.3642919E-15  0.4285714E+00  0.3747003E-15  0.1855288E-02
    1      -32.038705   1.000000
    2      -27.808645   1.000000
    3      -27.748620   1.000000
    4      -27.646894   1.000000
    5      -14.153156   1.000000
    6      -13.895781   1.000000
    7      -13.708804   1.000000
    8       -5.117698   1.000000
    9       -3.427048   1.000000
   10       -1.669282   1.000000
   11       -0.291487   1.000000
   12        0.953294   1.000000
   13        2.703866   1.000000
   14        4.177769   0.000000
   15        4.388862   0.000000
   16        5.014722   0.000000
   17        5.580469   0.000000
   18        8.307292   0.000000
   19        9.025712   0.000000
   20        9.347415   0.000000
 
  0.7142857E-01  0.4285714E+00  0.3816392E-15  0.1855288E-02
    1      -32.033423   1.000000
    2      -27.806950   1.000000
    3      -27.747315   1.000000
    4      -27.661896   1.000000
    5      -14.144360   1.000000
    6      -13.889977   1.000000
    7      -13.769816   1.000000
    8       -4.982503   1.000000
    9       -3.419696   1.000000
   10       -1.660281   1.000000
   11       -0.188250   1.000000
   12        0.825660   1.000000
   13        2.375414   1.000000
   14        4.087182   0.000000
   15        4.655912   0.000000
   16        4.894571   0.000000
   17        5.933276   0.000000
   18        7.898469   0.000000
   19        9.230207   0.000000
   20        9.565424   0.000000
 
  0.1428571E+00  0.4285714E+00  0.3747003E-15  0.1855288E-02
    1      -32.018420   1.000000
    2      -27.802462   1.000000
    3      -27.743943   1.000000
    4      -27.703627   1.000000
    5      -14.110408   1.000000
    6      -13.936852   1.000000
    7      -13.873255   1.000000
    8       -4.848473   1.000000
    9       -3.141148   1.000000
   10       -1.627013   1.000000
   11       -0.224289   1.000000
   12        0.894357   1.000000
   13        1.881082   1.000000
   14        4.028131   0.000000
   15        4.282961   0.000000
   16        5.573187   0.000000
   17        6.505949   0.000000
   18        7.391294   0.000000
   19        8.922837   0.000000
   20        9.261506   0.000000
 
  0.2142857E+00  0.4285714E+00  0.3816392E-15  0.1855288E-02
    1      -31.996621   1.000000
    2      -27.796683   1.000000
    3      -27.762292   1.000000
    4      -27.738895   1.000000
    5      -14.169047   1.000000
    6      -14.058890   1.000000
    7      -13.849145   1.000000
    8       -4.678699   1.000000
    9       -2.686039   1.000000
   10       -1.592013   1.000000
   11       -0.325769   1.000000
   12        0.759573   1.000000
   13        1.768424   1.000000
   14        3.638523   0.000999
   15        4.298682   0.000000
   16        6.090021   0.000000
   17        6.959172   0.000000
   18        7.296386   0.000000
   19        8.285424   0.000000
   20        8.723391   0.000000
 
  0.2857143E+00  0.4285714E+00  0.3885781E-15  0.1855288E-02
    1      -31.972320   1.000000
    2      -27.830639   1.000000
    3      -27.786336   1.000000
    4      -27.732966   1.000000
    5      -14.414640   1.000000
    6      -14.004051   1.000000
    7      -13.822058   1.000000
    8       -4.424041   1.000000
    9       -2.192419   1.000000
   10       -1.582177   1.000000
   11       -0.426859   1.000000
   12        0.318878   1.000000
   13        2.041536   1.000000
   14        3.209241   1.005752
   15        4.512117   0.000000
   16        6.111095   0.000000
   17        6.914546   0.000000
   18        7.198468   0.000000
   19        8.379796   0.000000
   20        8.621228   0.000000
 
  0.3571429E+00  0.4285714E+00  0.3885781E-15  0.1855288E-02
    1      -31.950363   1.000000
    2      -27.888087   1.000000
    3      -27.780361   1.000000