 running on   16 total cores
 distrk:  each k-point on   16 cores,    1 groups
 distr:  one band on    1 cores,   16 groups
 using from now: INCAR     
 vasp.5.4.4.18Apr17-6-g9f103f2a35 (build Nov 01 2019 12:17:22) complex          
  
 POSCAR found type information on POSCAR  Sr Nb H 
 POSCAR found :  3 types and      24 ions

 ----------------------------------------------------------------------------- 
|                                                                             |
|           W    W    AA    RRRRR   N    N  II  N    N   GGGG   !!!           |
|           W    W   A  A   R    R  NN   N  II  NN   N  G    G  !!!           |
|           W    W  A    A  R    R  N N  N  II  N N  N  G       !!!           |
|           W WW W  AAAAAA  RRRRR   N  N N  II  N  N N  G  GGG   !            |
|           WW  WW  A    A  R   R   N   NN  II  N   NN  G    G                |
|           W    W  A    A  R    R  N    N  II  N    N   GGGG   !!!           |
|                                                                             |
|      For optimal performance we recommend to set                            |
|        NCORE= 4 - approx SQRT( number of cores)                             |
|      NCORE specifies how many cores store one orbital (NPAR=cpu/NCORE).     |
|      This setting can  greatly improve the performance of VASP for DFT.     |
|      The default,   NCORE=1            might be grossly inefficient         |
|      on modern multi-core architectures or massively parallel machines.     |
|      Do your own testing !!!!                                               |
|      Unfortunately you need to use the default for GW and RPA calculations. |
|      (for HF NCORE is supported but not extensively tested yet)             |
|                                                                             |
 ----------------------------------------------------------------------------- 

 LDA part: xc-table for Pade appr. of Perdew
 POSCAR, INCAR and KPOINTS ok, starting setup
 FFT: planning ...
 WAVECAR not read
 entering main loop
       N       E                     dE             d eps       ncg     rms          rms(c)
DAV:   1     0.181232831765E+03    0.18123E+03   -0.18718E+04  5760   0.788E+02
DAV:   2    -0.673504303102E+02   -0.24858E+03   -0.23440E+03  6096   0.217E+02
DAV:   3    -0.821287615350E+02   -0.14778E+02   -0.14638E+02  9792   0.514E+01
DAV:   4    -0.824183992960E+02   -0.28964E+00   -0.28903E+00  7376   0.483E+00
DAV:   5    -0.824247549855E+02   -0.63557E-02   -0.63549E-02  8768   0.689E-01    0.390E+01
RMM:   6    -0.813519544787E+02    0.10728E+01   -0.10180E+01  5921   0.102E+01    0.214E+01
RMM:   7    -0.857225341584E+02   -0.43706E+01   -0.68117E+00  6069   0.981E+00    0.116E+01
RMM:   8    -0.859141866408E+02   -0.19165E+00   -0.56890E-01  6005   0.511E+00    0.682E+00
RMM:   9    -0.859370276450E+02   -0.22841E-01   -0.10519E-01  5917   0.151E+00    0.288E+00
RMM:  10    -0.859438391571E+02   -0.68115E-02   -0.28176E-02  5838   0.126E+00    0.220E+00
RMM:  11    -0.859462982437E+02   -0.24591E-02   -0.14033E-02  5528   0.554E-01    0.755E-01
RMM:  12    -0.859466929091E+02   -0.39467E-03   -0.21354E-03  4833   0.396E-01
   1 F= -.85946693E+02 E0= -.85946693E+02  d E =-.859467E+02  mag=     0.0111
 curvature:   0.00 expect dE= 0.000E+00 dE for cont linesearch  0.000E+00
 trial: gam= 0.00000 g(F)=  0.434E-02 g(S)=  0.185E+00 ort = 0.000E+00 (trialstep = 0.100E+01)
 search vector abs. value=  0.189E+00
 bond charge predicted
       N       E                     dE             d eps       ncg     rms          rms(c)
DAV:   1    -0.862927832373E+02   -0.34648E+00   -0.39396E+00  7856   0.941E+00    0.497E+00
RMM:   2    -0.861306524361E+02    0.16213E+00   -0.42816E-01  6238   0.259E+00    0.110E+00
RMM:   3    -0.861012292063E+02    0.29423E-01   -0.37254E-02  5963   0.124E+00    0.860E-01
RMM:   4    -0.860958428779E+02    0.53863E-02   -0.11830E-02  5412   0.585E-01    0.846E-01
RMM:   5    -0.860957762028E+02    0.66675E-04   -0.29128E-03  4901   0.375E-01
   2 F= -.86095776E+02 E0= -.86095776E+02  d E =-.149083E+00  mag=     0.0002
 trial-energy change:   -0.149083  1 .order   -0.162731   -0.189075   -0.136387
 step:   3.5886(harm=  3.5886)  dis= 0.01710  next Energy=   -86.285949 (dE=-0.339E+00)
 bond charge predicted
       N       E                     dE             d eps       ncg     rms          rms(c)
DAV:   1    -0.875074068772E+02   -0.14116E+01   -0.25992E+01  7120   0.239E+01    0.125E+01
RMM:   2    -0.864570576523E+02    0.10503E+01   -0.29037E+00  6126   0.662E+00    0.306E+00
RMM:   3    -0.862080202994E+02    0.24904E+00   -0.27499E-01  5916   0.353E+00    0.233E+00
RMM:   4    -0.861763776915E+02    0.31643E-01   -0.69741E-02  6193   0.124E+00    0.258E+00
RMM:   5    -0.861717404656E+02    0.46372E-02   -0.23606E-02  6065   0.923E-01    0.112E+00
RMM:   6    -0.861690804527E+02    0.26600E-02   -0.40056E-02  6845   0.647E-01    0.430E-01
RMM:   7    -0.861701132432E+02   -0.10328E-02   -0.10893E-02  5729   0.460E-01
   3 F= -.86170113E+02 E0= -.86170113E+02  d E =-.223420E+00  mag=    -0.0000
 curvature:  -1.79 expect dE=-0.115E+01 dE for cont linesearch -0.225E-01
 ZBRENT: interpolating
 opt :   2.9072  next Energy=   -86.186714 (dE=-0.240E+00)
 bond charge predicted
       N       E                     dE             d eps       ncg     rms          rms(c)
DAV:   1    -0.862851456821E+02   -0.11607E+00   -0.17929E+00  8352   0.603E+00    0.326E+00
RMM:   2    -0.862083399014E+02    0.76806E-01   -0.20088E-01  6205   0.177E+00    0.785E-01
RMM:   3    -0.861944430253E+02    0.13897E-01   -0.18236E-02  5880   0.737E-01    0.496E-01
RMM:   4    -0.861907601800E+02    0.36828E-02   -0.68448E-03  5292   0.417E-01    0.445E-01
RMM:   5    -0.861908513473E+02   -0.91167E-04   -0.15992E-03  4853   0.247E-01
   4 F= -.86190851E+02 E0= -.86190851E+02  d E =-.244158E+00  mag=    -0.0000
 curvature:  -1.32 expect dE=-0.559E+00 dE for cont linesearch -0.324E-02
 trial: gam= 2.35151 g(F)=  0.409E+00 g(S)=  0.145E-01 ort =-0.215E-01 (trialstep = 0.191E+00)
 search vector abs. value=  0.137E+01
 bond charge predicted
       N       E                     dE             d eps       ncg     rms          rms(c)
DAV:   1    -0.862931825017E+02   -0.10242E+00   -0.12432E+00  8288   0.496E+00    0.191E+00
RMM:   2    -0.862616233430E+02    0.31559E-01   -0.10162E-01  6238   0.133E+00    0.575E-01
RMM:   3    -0.862554854453E+02    0.61379E-02   -0.91172E-03  5693   0.661E-01    0.357E-01
RMM:   4    -0.862539659645E+02    0.15195E-02   -0.30264E-03  4705   0.283E-01    0.369E-01
RMM:   5    -0.862538978089E+02    0.68156E-04   -0.82385E-04  4235   0.214E-01
   5 F= -.86253898E+02 E0= -.86253898E+02  d E =-.630465E-01  mag=     0.0000
 ZBRENT: can't locate minimum, use default step
 trial-energy change:   -0.063046  1 .order   -0.062347   -0.071153   -0.053541
 step:   0.7641(harm=  0.7717)  dis= 0.03080  next Energy=   -86.334585 (dE=-0.144E+00)
 bond charge predicted
       N       E                     dE             d eps       ncg     rms          rms(c)
DAV:   1    -0.866284793023E+02   -0.37451E+00   -0.10835E+01  7328   0.147E+01    0.594E+00
RMM:   2    -0.863404764155E+02    0.28800E+00   -0.86178E-01  6202   0.397E+00    0.172E+00
RMM:   3    -0.862797658290E+02    0.60711E-01   -0.80105E-02  5886   0.203E+00    0.112E+00
RMM:   4    -0.862686688841E+02    0.11097E-01   -0.25791E-02  6103   0.773E-01    0.113E+00
RMM:   5    -0.862676928585E+02    0.97603E-03   -0.85674E-03  5751   0.600E-01
   6 F= -.86267693E+02 E0= -.86267693E+02  d E =-.768415E-01  mag=    -0.0000
 curvature:  -1.42 expect dE=-0.416E+00 dE for cont linesearch -0.243E-01
 ZBRENT: interpolating
 opt :   0.5616  next Energy=   -86.283197 (dE=-0.923E-01)
 bond charge predicted
       N       E                     dE             d eps       ncg     rms          rms(c)
DAV:   1    -0.863402213410E+02   -0.71552E-01   -0.14889E+00  8336   0.533E+00    0.208E+00
RMM:   2    -0.863033395134E+02    0.36882E-01   -0.11766E-01  6184   0.140E+00    0.583E-01
RMM:   3    -0.862965252147E+02    0.68143E-02   -0.10591E-02  5762   0.679E-01    0.356E-01
RMM:   4    -0.862946947435E+02    0.18305E-02   -0.41349E-03  4832   0.314E-01    0.351E-01
RMM:   5    -0.862947450839E+02   -0.50340E-04   -0.90299E-04  4299   0.222E-01
   7 F= -.86294745E+02 E0= -.86294745E+02  d E =-.103894E+00  mag=     0.0000
 curvature:  -0.90 expect dE=-0.882E-01 dE for cont linesearch -0.304E-02
 trial: gam= 0.00000 g(F)=  0.901E-01 g(S)=  0.750E-02 ort =-0.678E-01 (trialstep = 0.265E+00)
 search vector abs. value=  0.976E-01
 bond charge predicted
       N       E                     dE             d eps       ncg     rms          rms(c)
DAV:   1    -0.863152162042E+02   -0.20521E-01   -0.14365E-01  6064   0.160E+00    0.311E-01
RMM:   2    -0.863151808992E+02    0.35305E-04   -0.51048E-03  5363   0.300E-01
   8 F= -.86315181E+02 E0= -.86315181E+02  d E =-.204358E-01  mag=    -0.0000
 trial-energy change:   -0.020436  1 .order   -0.020846   -0.025870   -0.015821
 step:   0.6826(harm=  0.6826)  dis= 0.01175  next Energy=   -86.328046 (dE=-0.333E-01)
 bond charge predicted
       N       E                     dE             d eps       ncg     rms          rms(c)
DAV:   1    -0.863282834665E+02   -0.13067E-01   -0.35933E-01  6448   0.254E+00    0.476E-01
RMM:   2    -0.863280458736E+02    0.23759E-03   -0.12701E-02  5720   0.447E-01    0.349E-01
RMM:   3    -0.863275607368E+02    0.48514E-03   -0.10314E-03  3681   0.325E-01
   9 F= -.86327561E+02 E0= -.86327561E+02  d E =-.328157E-01  mag=     0.0000
 curvature:  -0.34 expect dE=-0.306E-01 dE for cont linesearch -0.846E-04
 trial: gam= 0.86890 g(F)=  0.847E-01 g(S)=  0.498E-02 ort = 0.492E-02 (trialstep = 0.198E+00)
 search vector abs. value=  0.172E+00
 bond charge predicted
       N       E                     dE             d eps       ncg     rms          rms(c)
DAV:   1    -0.863445386010E+02   -0.16493E-01   -0.12685E-01  6592   0.146E+00    0.315E-01
RMM:   2    -0.863445140004E+02    0.24601E-04   -0.45522E-03  4962   0.269E-01
  10 F= -.86344514E+02 E0= -.86344514E+02  d E =-.169533E-01  mag=     0.0000
 ZBRENT: can't locate minimum, use default step
 trial-energy change:   -0.016953  1 .order   -0.017011   -0.018594   -0.015428
 step:   0.7915(harm=  1.1619)  dis= 0.02320  next Energy=   -86.382153 (dE=-0.546E-01)
 bond charge predicted
       N       E                     dE             d eps       ncg     rms          rms(c)
DAV:   1    -0.863786324308E+02   -0.34094E-01   -0.11703E+00  5760   0.437E+00    0.104E+00
RMM:   2    -0.863778349225E+02    0.79751E-03   -0.41454E-02  5810   0.795E-01    0.775E-01
RMM:   3    -0.863769310636E+02    0.90386E-03   -0.61335E-03  5258   0.773E-01
  11 F= -.86376931E+02 E0= -.86376931E+02  d E =-.493703E-01  mag=    -0.0000
 curvature:  -0.91 expect dE=-0.194E-01 dE for cont linesearch -0.632E-02
 trial: gam=-0.08655 g(F)=  0.167E-01 g(S)=  0.473E-02 ort = 0.346E-01 (trialstep = 0.317E+00)
 search vector abs. value=  0.167E-01
 bond charge predicted
       N       E                     dE             d eps       ncg     rms          rms(c)
DAV:   1    -0.863824407397E+02   -0.46058E-02   -0.44001E-02  7680   0.105E+00    0.311E-01
RMM:   2    -0.863821595061E+02    0.28123E-03   -0.37199E-03  4590   0.261E-01
  12 F= -.86382160E+02 E0= -.86382160E+02  d E =-.522844E-02  mag=    -0.0000
 ZBRENT: can't locate minimum, use default step
 trial-energy change:   -0.005228  1 .order   -0.005131   -0.005823   -0.004439
 step:   1.2663(harm=  1.3320)  dis= 0.01008  next Energy=   -86.389180 (dE=-0.122E-01)
 bond charge predicted
       N       E                     dE             d eps       ncg     rms          rms(c)
DAV:   1    -0.863923238133E+02   -0.98831E-02   -0.38268E-01  5792   0.309E+00    0.712E-01
RMM:   2    -0.863895504489E+02    0.27734E-02   -0.34334E-02  6076   0.733E-01    0.271E-01
RMM:   3    -0.863884377342E+02    0.11127E-02   -0.25201E-03  4917   0.502E-01
  13 F= -.86388438E+02 E0= -.86388438E+02  d E =-.115067E-01  mag=    -0.0000
 curvature:  -0.60 expect dE=-0.278E-01 dE for cont linesearch -0.175E-03
 trial: gam= 1.96177 g(F)=  0.340E-01 g(S)=  0.123E-01 ort = 0.220E-02 (trialstep = 0.709E-01)
 search vector abs. value=  0.119E+00
 reached required accuracy - stopping structural energy minimisation
