Automatically generated mesh
      38
Reciprocal lattice
    0.00000000000000    0.00000000000000    0.00000000000000             1
    0.16666666666667    0.00000000000000    0.00000000000000             2
    0.33333333333333    0.00000000000000    0.00000000000000             2
    0.50000000000000    0.00000000000000    0.00000000000000             1
    0.00000000000000    0.33333333333333    0.00000000000000             2
    0.16666666666667    0.33333333333333    0.00000000000000             2
    0.33333333333333    0.33333333333333    0.00000000000000             2
    0.50000000000000    0.33333333333333    0.00000000000000             2
   -0.33333333333333    0.33333333333333    0.00000000000000             2
   -0.16666666666667    0.33333333333333    0.00000000000000             2
    0.00000000000000    0.00000000000000    0.25000000000000             2
    0.16666666666667    0.00000000000000    0.25000000000000             2
    0.33333333333333    0.00000000000000    0.25000000000000             2
    0.50000000000000    0.00000000000000    0.25000000000000             2
   -0.33333333333333    0.00000000000000    0.25000000000000             2
   -0.16666666666667    0.00000000000000    0.25000000000000             2
    0.00000000000000    0.33333333333333    0.25000000000000             2
    0.16666666666667    0.33333333333333    0.25000000000000             2
    0.33333333333333    0.33333333333333    0.25000000000000             2
    0.50000000000000    0.33333333333333    0.25000000000000             2
   -0.33333333333333    0.33333333333333    0.25000000000000             2
   -0.16666666666667    0.33333333333333    0.25000000000000             2
    0.00000000000000   -0.33333333333333    0.25000000000000             2
    0.16666666666667   -0.33333333333333    0.25000000000000             2
    0.33333333333333   -0.33333333333333    0.25000000000000             2
    0.50000000000000   -0.33333333333333    0.25000000000000             2
   -0.33333333333333   -0.33333333333333    0.25000000000000             2
   -0.16666666666667   -0.33333333333333    0.25000000000000             2
    0.00000000000000    0.00000000000000    0.50000000000000             1
    0.16666666666667    0.00000000000000    0.50000000000000             2
    0.33333333333333    0.00000000000000    0.50000000000000             2
    0.50000000000000    0.00000000000000    0.50000000000000             1
    0.00000000000000    0.33333333333333    0.50000000000000             2
    0.16666666666667    0.33333333333333    0.50000000000000             2
    0.33333333333333    0.33333333333333    0.50000000000000             2
    0.50000000000000    0.33333333333333    0.50000000000000             2
   -0.33333333333333    0.33333333333333    0.50000000000000             2
   -0.16666666666667    0.33333333333333    0.50000000000000             2
Tetrahedra
       216    0.00231481481481
         2         1         5         6        18
         2         1         2         6        18
         2         1         2        12        18
         2         1         5        17        18
         2         1        11        17        18
         2         1        11        12        18
         2         2         6         7        19
         2         2         3         7        19
         2         2         3        13        19
         2         2         6        18        19
         2         2        12        18        19
         2         2        12        13        19
         2         3         7         8        20
         2         3         4         8        20
         2         3         4        14        20
         2         3         7        19        20
         2         3        13        19        20
         2         3        13        14        20
         2         4         8         9        21
         2         3         4         9        21
         2         3         4        15        21
         2         4         8        20        21
         2         4        14        20        21
         2         4        14        15        21
         2         3         9        10        22
         2         2         3        10        22
         2         2         3        16        22
         2         3         9        21        22
         2         3        15        21        22
         2         3        15        16        22
         2         2         5        10        17
         2         1         2         5        17
         2         1         2        11        17
         2         2        10        17        22
         2         2        16        17        22
         2         2        11        16        17
         2         5         5        10        24
         2         5         6        10        24
         2         5         6        18        24
         2         5         5        23        24
         2         5        17        23        24
         2         5        17        18        24
         2         6         9        10        25
         2         6         7         9        25
         2         6         7        19        25
         2         6        10        24        25
         2         6        18        24        25
         2         6        18        19        25
         2         7         8         9        26
         2         7         8         8        26
         2         7         8        20        26
         2         7         9        25        26
         2         7        19        25        26
         2         7        19        20        26
         2         7         8         8        27
         2         7         8         9        27
         2         8         9        21        27
         2         8         8        26        27
         2         8        20        26        27
         2         8        20        21        27
         2         6         7         9        28
         2         6         9        10        28
         2         9        10        22        28
         2         7         9        27        28
         2         9        21        27        28
         2         9        21        22        28
         2         5         6        10        23
         2         5         5        10        23
         2         5        10        17        23
         2         6        10        23        28
         2        10        22        23        28
         2        10        17        22        23
         2         1         2         5        12
         2         2         5        10        12
         2         5        10        12        24
         2         1         5        11        12
         2         5        11        12        23
         2         5        12        23        24
         2         2         3        10        13
         2         3         9        10        13
         2         9        10        13        25
         2         2        10        12        13
         2        10        12        13        24
         2        10        13        24        25
         2         3         4         9        14
         2         4         8         9        14
         2         8         9        14        26
         2         3         9        13        14
         2         9        13        14        25
         2         9        14        25        26
         2         3         4         8        15
         2         3         7         8        15
         2         7         8        15        27
         2         4         8        14        15
         2         8        14        15        26
         2         8        15        26        27
         2         2         3         7        16
         2         2         6         7        16
         2         6         7        16        28
         2         3         7        15        16
         2         7        15        16        27
         2         7        16        27        28
         2         1         2         6        11
         2         1         5         6        11
         2         5         6        11        23
         2         2         6        11        16
         2         6        11        16        28
         2         6        11        23        28
         2        11        17        18        34
         2        11        12        18        34
         2        11        12        30        34
         2        11        17        33        34
         2        11        29        33        34
         2        11        29        30        34
         2        12        18        19        35
         2        12        13        19        35
         2        12        13        31        35
         2        12        18        34        35
         2        12        30        34        35
         2        12        30        31        35
         2        13        19        20        36
         2        13        14        20        36
         2        13        14        32        36
         2        13        19        35        36
         2        13        31        35        36
         2        13        31        32        36
         2        14        20        21        37
         2        14        15        21        37
         2        14        15        31        37
         2        14        20        36        37
         2        14        32        36        37
         2        14        31        32        37
         2        15        21        22        38
         2        15        16        22        38
         2        15        16        30        38
         2        15        21        37        38
         2        15        31        37        38
         2        15        30        31        38
         2        16        17        22        33
         2        11        16        17        33
         2        11        16        29        33
         2        16        22        33        38
         2        16        30        33        38
         2        16        29        30        33
         2        17        23        24        38
         2        17        18        24        38
         2        17        18        34        38
         2        17        23        33        38
         2        17        33        33        38
         2        17        33        34        38
         2        18        24        25        37
         2        18        19        25        37
         2        18        19        35        37
         2        18        24        37        38
         2        18        34        37        38
         2        18        34        35        37
         2        19        25        26        36
         2        19        20        26        36
         2        19        20        36        36
         2        19        25        36        37
         2        19        35        36        37
         2        19        35        36        36
         2        20        26        27        35
         2        20        21        27        35
         2        20        21        35        37
         2        20        26        35        36
         2        20        35        36        36
         2        20        35        36        37
         2        21        27        28        34
         2        21        22        28        34
         2        21        22        34        38
         2        21        27        34        35
         2        21        34        35        37
         2        21        34        37        38
         2        22        23        28        33
         2        17        22        23        33
         2        17        22        33        33
         2        22        28        33        34
         2        22        33        34        38
         2        22        33        33        38
         2        11        12        23        30
         2        12        23        24        30
         2        23        24        30        38
         2        11        23        29        30
         2        23        29        30        33
         2        23        30        33        38
         2        12        13        24        31
         2        13        24        25        31
         2        24        25        31        37
         2        12        24        30        31
         2        24        30        31        38
         2        24        31        37        38
         2        13        14        25        32
         2        14        25        26        32
         2        25        26        32        36
         2        13        25        31        32
         2        25        31        32        37
         2        25        32        36        37
         2        14        15        26        31
         2        15        26        27        31
         2        26        27        31        35
         2        14        26        31        32
         2        26        31        32        36
         2        26        31        35        36
         2        15        16        27        30
         2        16        27        28        30
         2        27        28        30        34
         2        15        27        30        31
         2        27        30        31        35
         2        27        30        34        35
         2        11        16        28        29
         2        11        23        28        29
         2        23        28        29        33
         2        16        28        29        30
         2        28        29        30        34
         2        28        29        33        34
