 running on   16 total cores
 distrk:  each k-point on   16 cores,    1 groups
 distr:  one band on    1 cores,   16 groups
 using from now: INCAR     
 vasp.5.4.4.18Apr17-6-g9f103f2a35 (build Nov 01 2019 12:17:22) complex          
  
 POSCAR found type information on POSCAR  Sr Nb H 
 POSCAR found :  3 types and      17 ions

 ----------------------------------------------------------------------------- 
|                                                                             |
|           W    W    AA    RRRRR   N    N  II  N    N   GGGG   !!!           |
|           W    W   A  A   R    R  NN   N  II  NN   N  G    G  !!!           |
|           W    W  A    A  R    R  N N  N  II  N N  N  G       !!!           |
|           W WW W  AAAAAA  RRRRR   N  N N  II  N  N N  G  GGG   !            |
|           WW  WW  A    A  R   R   N   NN  II  N   NN  G    G                |
|           W    W  A    A  R    R  N    N  II  N    N   GGGG   !!!           |
|                                                                             |
|      For optimal performance we recommend to set                            |
|        NCORE= 4 - approx SQRT( number of cores)                             |
|      NCORE specifies how many cores store one orbital (NPAR=cpu/NCORE).     |
|      This setting can  greatly improve the performance of VASP for DFT.     |
|      The default,   NCORE=1            might be grossly inefficient         |
|      on modern multi-core architectures or massively parallel machines.     |
|      Do your own testing !!!!                                               |
|      Unfortunately you need to use the default for GW and RPA calculations. |
|      (for HF NCORE is supported but not extensively tested yet)             |
|                                                                             |
 ----------------------------------------------------------------------------- 

 LDA part: xc-table for Pade appr. of Perdew
 POSCAR, INCAR and KPOINTS ok, starting setup
 FFT: planning ...
 WAVECAR not read
 entering main loop
       N       E                     dE             d eps       ncg     rms          rms(c)
DAV:   1     0.390125167294E+03    0.39013E+03   -0.25520E+04  7296   0.109E+03
DAV:   2    -0.415750220835E+02   -0.43170E+03   -0.40872E+03  7616   0.351E+02
DAV:   3    -0.705575270238E+02   -0.28983E+02   -0.28411E+02 12400   0.814E+01
DAV:   4    -0.717034716175E+02   -0.11459E+01   -0.11419E+01 10640   0.111E+01
DAV:   5    -0.717328946854E+02   -0.29423E-01   -0.29445E-01 11376   0.167E+00    0.494E+01
RMM:   6    -0.710371460743E+02    0.69575E+00   -0.13185E+01  8191   0.134E+01    0.203E+01
RMM:   7    -0.706630024549E+02    0.37414E+00   -0.22674E+00  8294   0.658E+00    0.101E+01
RMM:   8    -0.706199946172E+02    0.43008E-01   -0.32639E-01  8441   0.314E+00    0.546E+00
RMM:   9    -0.706457747824E+02   -0.25780E-01   -0.11972E-01  8601   0.155E+00    0.194E+00
RMM:  10    -0.706461977685E+02   -0.42299E-03   -0.25216E-02  7977   0.905E-01    0.851E-01
RMM:  11    -0.706463337646E+02   -0.13600E-03   -0.68760E-03  7089   0.462E-01
   1 F= -.70646334E+02 E0= -.70646334E+02  d E =-.706463E+02  mag=     0.6800
 curvature:   0.00 expect dE= 0.000E+00 dE for cont linesearch  0.000E+00
 trial: gam= 0.00000 g(F)=  0.343E-02 g(S)=  0.110E+00 ort = 0.000E+00 (trialstep = 0.100E+01)
 search vector abs. value=  0.114E+00
 bond charge predicted
       N       E                     dE             d eps       ncg     rms          rms(c)
DAV:   1    -0.710059366296E+02   -0.35974E+00   -0.61678E+00  9728   0.140E+01    0.608E+00
RMM:   2    -0.707627798972E+02    0.24316E+00   -0.82848E-01  8482   0.445E+00    0.148E+00
RMM:   3    -0.707151345355E+02    0.47645E-01   -0.74209E-02  8297   0.189E+00    0.970E-01
RMM:   4    -0.707013231125E+02    0.13811E-01   -0.28905E-02  7664   0.975E-01    0.988E-01
RMM:   5    -0.706999757688E+02    0.13473E-02   -0.72892E-03  6628   0.723E-01    0.676E-01
RMM:   6    -0.706967803656E+02    0.31954E-02   -0.61222E-03  6658   0.342E-01    0.211E-01
RMM:   7    -0.706960966244E+02    0.68374E-03   -0.21259E-03  6004   0.250E-01
   2 F= -.70696097E+02 E0= -.70696097E+02  d E =-.497629E-01  mag=     0.8444
 trial-energy change:   -0.049763  1 .order   -0.077242   -0.113580   -0.040904
 step:   1.5628(harm=  1.5628)  dis= 0.00444  next Energy=   -70.735087 (dE=-0.888E-01)
 bond charge predicted
       N       E                     dE             d eps       ncg     rms          rms(c)
DAV:   1    -0.707892633446E+02   -0.92483E-01   -0.19181E+00  7616   0.776E+00    0.342E+00
RMM:   2    -0.707130918559E+02    0.76171E-01   -0.25198E-01  8375   0.246E+00    0.791E-01
RMM:   3    -0.707001380414E+02    0.12954E-01   -0.22591E-02  7939   0.106E+00    0.506E-01
RMM:   4    -0.706965168061E+02    0.36212E-02   -0.99626E-03  6967   0.588E-01    0.535E-01
RMM:   5    -0.706967673277E+02   -0.25052E-03   -0.22428E-03  5713   0.458E-01
   3 F= -.70696767E+02 E0= -.70696767E+02  d E =-.504336E-01  mag=     0.8937
 curvature:  -0.78 expect dE=-0.227E-01 dE for cont linesearch -0.150E-02
 trial: gam= 0.12587 g(F)=  0.230E-01 g(S)=  0.612E-02 ort = 0.148E-01 (trialstep = 0.111E+01)
 search vector abs. value=  0.346E-01
 bond charge predicted
       N       E                     dE             d eps       ncg     rms          rms(c)
DAV:   1    -0.707252247507E+02   -0.28708E-01   -0.23651E+00  8576   0.102E+01    0.139E+00
RMM:   2    -0.707210439395E+02    0.41808E-02   -0.25337E-01  8246   0.215E+00    0.539E-01
RMM:   3    -0.707169606192E+02    0.40833E-02   -0.14862E-02  7461   0.119E+00    0.463E-01
RMM:   4    -0.707164172372E+02    0.54338E-03   -0.61497E-03  7124   0.383E-01
   4 F= -.70716417E+02 E0= -.70716417E+02  d E =-.196499E-01  mag=     0.9039
 trial-energy change:   -0.019650  1 .order   -0.025034   -0.034418   -0.015650
 step:   2.0403(harm=  2.0403)  dis= 0.02308  next Energy=   -70.728326 (dE=-0.316E-01)
 bond charge predicted
       N       E                     dE             d eps       ncg     rms          rms(c)
DAV:   1    -0.707242392993E+02   -0.72787E-02   -0.16393E+00  8640   0.846E+00    0.104E+00
RMM:   2    -0.707205299881E+02    0.37093E-02   -0.17222E-01  8249   0.176E+00    0.541E-01
RMM:   3    -0.707177266233E+02    0.28034E-02   -0.91813E-03  7077   0.918E-01    0.529E-01
RMM:   4    -0.707172592747E+02    0.46735E-03   -0.33736E-03  6444   0.314E-01
   5 F= -.70717259E+02 E0= -.70717259E+02  d E =-.204919E-01  mag=     0.9128
 curvature:  -1.14 expect dE=-0.391E-01 dE for cont linesearch -0.124E-03
 trial: gam= 1.30194 g(F)=  0.265E-01 g(S)=  0.783E-02 ort =-0.194E-02 (trialstep = 0.511E+00)
 search vector abs. value=  0.879E-01
 bond charge predicted
       N       E                     dE             d eps       ncg     rms          rms(c)
DAV:   1    -0.707429403553E+02   -0.25214E-01   -0.83292E-01 10256   0.521E+00    0.120E+00
RMM:   2    -0.707278643467E+02    0.15076E-01   -0.75735E-02  8185   0.127E+00    0.477E-01
RMM:   3    -0.707244997502E+02    0.33646E-02   -0.53080E-03  7219   0.639E-01    0.295E-01
RMM:   4    -0.707235277026E+02    0.97205E-03   -0.42842E-03  6432   0.359E-01    0.326E-01
RMM:   5    -0.707236222900E+02   -0.94587E-04   -0.96078E-04  5190   0.303E-01
   6 F= -.70723622E+02 E0= -.70723622E+02  d E =-.636302E-02  mag=     0.9234
 trial-energy change:   -0.006363  1 .order   -0.011211   -0.016230   -0.006192
 step:   0.8263(harm=  0.8263)  dis= 0.01465  next Energy=   -70.730380 (dE=-0.131E-01)
 bond charge predicted
       N       E                     dE             d eps       ncg     rms          rms(c)
DAV:   1    -0.707310791137E+02   -0.75514E-02   -0.31535E-01 10016   0.317E+00    0.726E-01
RMM:   2    -0.707256726960E+02    0.54064E-02   -0.29377E-02  8168   0.786E-01    0.279E-01
RMM:   3    -0.707244997992E+02    0.11729E-02   -0.16953E-03  5471   0.397E-01    0.251E-01
RMM:   4    -0.707242131104E+02    0.28669E-03   -0.11642E-03  4778   0.191E-01
   7 F= -.70724213E+02 E0= -.70724213E+02  d E =-.695384E-02  mag=     0.9282
 curvature:  -1.14 expect dE=-0.106E-01 dE for cont linesearch -0.296E-03
 trial: gam=-0.11388 g(F)=  0.871E-02 g(S)=  0.552E-03 ort = 0.477E-02 (trialstep = 0.574E+00)
 search vector abs. value=  0.931E-02
 reached required accuracy - stopping structural energy minimisation
