  24  24   0   0
  0.7044592E+01  0.3515117E-09  0.5658668E-09  0.8605643E-09  0.5000000E-15
  1.000000000000000E-004
  CAR 
 unknown system                          
     10.43099184    -36.61098529  301      0.63043075      1.00000000
    -36.611  0.0000E+00  0.0000E+00
    -36.454  0.0000E+00  0.0000E+00
    -36.297  0.0000E+00  0.0000E+00
    -36.141  0.0000E+00  0.0000E+00
    -35.984  0.0000E+00  0.0000E+00
    -35.827  0.0000E+00  0.0000E+00
    -35.670  0.0000E+00  0.0000E+00
    -35.513  0.0000E+00  0.0000E+00
    -35.357  0.3667E-33  0.5751E-34
    -35.200  0.2108E-22  0.3306E-23
    -35.043  0.7782E-14  0.1220E-14
    -34.886  0.1659E-07  0.2601E-08
    -34.729  0.1428E-03  0.2240E-04
    -34.572 -0.5680E-02 -0.8682E-03
    -34.416  0.1570E+00  0.2375E-01
    -34.259  0.6128E-01  0.3335E-01
    -34.102 -0.1502E-03  0.3333E-01
    -33.945  0.1771E-04  0.3333E-01
    -33.788  0.3624E-09  0.3333E-01
    -33.632  0.3433E-16  0.3333E-01
    -33.475  0.0000E+00  0.3333E-01
    -33.318  0.0000E+00  0.3333E-01
    -33.161  0.0000E+00  0.3333E-01
    -33.004  0.0000E+00  0.3333E-01
    -32.848  0.0000E+00  0.3333E-01
    -32.691  0.0000E+00  0.3333E-01
    -32.534  0.0000E+00  0.3333E-01
    -32.377  0.0000E+00  0.3333E-01
    -32.220  0.0000E+00  0.3333E-01
    -32.064  0.0000E+00  0.3333E-01
    -31.907  0.0000E+00  0.3333E-01
    -31.750  0.0000E+00  0.3333E-01
    -31.593  0.0000E+00  0.3333E-01
    -31.436  0.0000E+00  0.3333E-01
    -31.280  0.7197E-36  0.3333E-01
    -31.123  0.1548E-24  0.3333E-01
    -30.966  0.2125E-15  0.3333E-01
    -30.809  0.1687E-08  0.3333E-01
    -30.652  0.5675E-04  0.3334E-01
    -30.496 -0.2635E-02  0.3293E-01
    -30.339  0.1351E+00  0.5412E-01
    -30.182  0.2773E+00  0.9759E-01
    -30.025  0.2358E+00  0.1346E+00
    -29.868 -0.8044E-02  0.1333E+00
    -29.711  0.1854E-03  0.1333E+00
    -29.555  0.1765E-07  0.1333E+00
    -29.398  0.8017E-14  0.1333E+00
    -29.241  0.0000E+00  0.1333E+00
    -29.084  0.0000E+00  0.1333E+00
    -28.927  0.0000E+00  0.1333E+00
    -28.771  0.0000E+00  0.1333E+00
    -28.614  0.0000E+00  0.1333E+00
    -28.457  0.0000E+00  0.1333E+00
    -28.300  0.0000E+00  0.1333E+00
    -28.143  0.0000E+00  0.1333E+00
    -27.987  0.0000E+00  0.1333E+00
    -27.830  0.0000E+00  0.1333E+00
    -27.673  0.0000E+00  0.1333E+00
    -27.516  0.0000E+00  0.1333E+00
    -27.359  0.0000E+00  0.1333E+00
    -27.203  0.0000E+00  0.1333E+00
    -27.046  0.0000E+00  0.1333E+00
    -26.889  0.0000E+00  0.1333E+00
    -26.732  0.0000E+00  0.1333E+00
    -26.575  0.0000E+00  0.1333E+00
    -26.419  0.0000E+00  0.1333E+00
    -26.262  0.0000E+00  0.1333E+00
    -26.105  0.0000E+00  0.1333E+00
    -25.948  0.0000E+00  0.1333E+00
    -25.791  0.0000E+00  0.1333E+00
    -25.635  0.0000E+00  0.1333E+00
    -25.478  0.0000E+00  0.1333E+00
    -25.321  0.0000E+00  0.1333E+00
    -25.164  0.0000E+00  0.1333E+00
    -25.007  0.0000E+00  0.1333E+00
    -24.850  0.0000E+00  0.1333E+00
    -24.694  0.0000E+00  0.1333E+00
    -24.537  0.0000E+00  0.1333E+00
    -24.380  0.0000E+00  0.1333E+00
    -24.223  0.0000E+00  0.1333E+00
    -24.066  0.0000E+00  0.1333E+00
    -23.910  0.0000E+00  0.1333E+00
    -23.753  0.0000E+00  0.1333E+00
    -23.596  0.0000E+00  0.1333E+00
    -23.439  0.0000E+00  0.1333E+00
    -23.282  0.0000E+00  0.1333E+00
    -23.126  0.0000E+00  0.1333E+00
    -22.969  0.0000E+00  0.1333E+00
    -22.812  0.0000E+00  0.1333E+00
    -22.655  0.0000E+00  0.1333E+00
    -22.498  0.0000E+00  0.1333E+00
    -22.342  0.0000E+00  0.1333E+00
    -22.185  0.0000E+00  0.1333E+00
    -22.028  0.0000E+00  0.1333E+00
    -21.871  0.0000E+00  0.1333E+00
    -21.714  0.0000E+00  0.1333E+00
    -21.558  0.0000E+00  0.1333E+00
    -21.401  0.0000E+00  0.1333E+00
    -21.244  0.0000E+00  0.1333E+00
    -21.087  0.0000E+00  0.1333E+00
    -20.930  0.0000E+00  0.1333E+00
    -20.774  0.0000E+00  0.1333E+00
    -20.617  0.0000E+00  0.1333E+00
    -20.460  0.0000E+00  0.1333E+00
    -20.303  0.0000E+00  0.1333E+00
    -20.146  0.0000E+00  0.1333E+00
    -19.989  0.0000E+00  0.1333E+00
    -19.833  0.0000E+00  0.1333E+00
    -19.676  0.0000E+00  0.1333E+00
    -19.519  0.0000E+00  0.1333E+00
    -19.362  0.0000E+00  0.1333E+00
    -19.205  0.0000E+00  0.1333E+00
    -19.049  0.0000E+00  0.1333E+00
    -18.892  0.0000E+00  0.1333E+00
    -18.735  0.0000E+00  0.1333E+00
    -18.578  0.0000E+00  0.1333E+00
    -18.421  0.0000E+00  0.1333E+00
    -18.265  0.0000E+00  0.1333E+00
    -18.108  0.0000E+00  0.1333E+00
    -17.951  0.0000E+00  0.1333E+00
    -17.794  0.6905E-28  0.1333E+00
    -17.637  0.3257E-18  0.1333E+00
    -17.481  0.9288E-11  0.1333E+00
    -17.324  0.1279E-05  0.1333E+00
    -17.167  0.1606E-03  0.1334E+00
    -17.010  0.7207E-02  0.1345E+00
    -16.853  0.5975E-01  0.1439E+00
    -16.697  0.3643E-01  0.1496E+00
    -16.540  0.2358E+00  0.1866E+00
    -16.383  0.2339E+00  0.2232E+00
    -16.226  0.5517E-01  0.2319E+00
    -16.069  0.9242E-02  0.2333E+00
    -15.913  0.4528E-04  0.2333E+00
    -15.756  0.2838E-05  0.2333E+00
    -15.599  0.5046E-10  0.2333E+00
    -15.442  0.4291E-17  0.2333E+00
    -15.285  0.0000E+00  0.2333E+00
    -15.128  0.0000E+00  0.2333E+00
    -14.972  0.0000E+00  0.2333E+00
    -14.815  0.0000E+00  0.2333E+00
    -14.658  0.0000E+00  0.2333E+00
    -14.501  0.0000E+00  0.2333E+00
    -14.344  0.0000E+00  0.2333E+00
    -14.188  0.0000E+00  0.2333E+00
    -14.031  0.0000E+00  0.2333E+00
    -13.874  0.0000E+00  0.2333E+00
    -13.717  0.0000E+00  0.2333E+00
    -13.560  0.0000E+00  0.2333E+00
    -13.404  0.0000E+00  0.2333E+00
    -13.247  0.0000E+00  0.2333E+00
    -13.090  0.0000E+00  0.2333E+00
    -12.933  0.0000E+00  0.2333E+00
    -12.776  0.0000E+00  0.2333E+00
    -12.620  0.0000E+00  0.2333E+00
    -12.463  0.0000E+00  0.2333E+00
    -12.306  0.0000E+00  0.2333E+00
    -12.149  0.0000E+00  0.2333E+00
    -11.992  0.0000E+00  0.2333E+00
    -11.836  0.0000E+00  0.2333E+00
    -11.679  0.0000E+00  0.2333E+00
    -11.522  0.0000E+00  0.2333E+00
    -11.365  0.0000E+00  0.2333E+00
    -11.208  0.0000E+00  0.2333E+00
    -11.052  0.0000E+00  0.2333E+00
    -10.895  0.2658E-37  0.2333E+00
    -10.738  0.3642E-26  0.2333E+00
    -10.581  0.3158E-17  0.2333E+00
    -10.424  0.1589E-10  0.2333E+00
    -10.267  0.3749E-06  0.2333E+00
    -10.111  0.9534E-05  0.2333E+00
     -9.954  0.5723E-03  0.2334E+00
     -9.797  0.1307E-01  0.2355E+00
     -9.640  0.1628E-01  0.2380E+00
     -9.483  0.2468E-01  0.2419E+00
     -9.327  0.1750E-01  0.2446E+00
     -9.170  0.2306E-01  0.2483E+00
     -9.013  0.2080E-01  0.2515E+00
     -8.856  0.1498E-01  0.2539E+00
     -8.699  0.3789E-01  0.2598E+00
     -8.543  0.4749E-01  0.2673E+00
     -8.386  0.4394E-01  0.2741E+00
     -8.229  0.3664E-01  0.2799E+00
     -8.072  0.5073E-01  0.2878E+00
     -7.915  0.4284E-01  0.2946E+00
     -7.759  0.5975E-01  0.3039E+00
     -7.602  0.2336E-01  0.3076E+00
     -7.445  0.4868E-01  0.3152E+00
     -7.288  0.2953E-01  0.3199E+00
     -7.131  0.4525E-01  0.3270E+00
     -6.975  0.2934E-01  0.3316E+00
     -6.818  0.5517E-01  0.3402E+00
     -6.661  0.5691E-01  0.3491E+00
     -6.504  0.7880E-01  0.3615E+00
     -6.347  0.5616E-01  0.3703E+00
     -6.191  0.8221E-01  0.3832E+00
     -6.034  0.8491E-01  0.3965E+00
     -5.877  0.8678E-01  0.4101E+00
     -5.720  0.7165E-01  0.4213E+00
     -5.563  0.7272E-01  0.4327E+00
     -5.406  0.1071E+00  0.4495E+00
     -5.250  0.1189E+00  0.4682E+00
     -5.093  0.4044E-01  0.4745E+00
     -4.936  0.6152E-01  0.4842E+00
     -4.779  0.6593E-01  0.4945E+00
     -4.622  0.6110E-01  0.5041E+00
     -4.466  0.5575E-01  0.5128E+00
     -4.309  0.7297E-01  0.5243E+00
     -4.152  0.4649E-01  0.5316E+00
     -3.995  0.1070E-01  0.5332E+00
     -3.838  0.4812E-01  0.5408E+00
     -3.682  0.4822E-01  0.5483E+00
     -3.525  0.8106E-01  0.5611E+00
     -3.368  0.6799E-01  0.5717E+00
     -3.211  0.9741E-01  0.5870E+00
     -3.054  0.6414E-01  0.5971E+00
     -2.898  0.4067E-01  0.6034E+00
     -2.741  0.5674E-01  0.6123E+00
     -2.584  0.9450E-01  0.6271E+00
     -2.427  0.7718E-01  0.6392E+00
     -2.270  0.1006E+00  0.6550E+00
     -2.114  0.6309E-01  0.6649E+00
     -1.957  0.1262E-01  0.6669E+00
     -1.800  0.3010E-01  0.6716E+00
     -1.643  0.5855E-01  0.6808E+00
     -1.486  0.2408E-01  0.6846E+00
     -1.330  0.1729E-02  0.6848E+00
     -1.173  0.2019E-02  0.6852E+00
     -1.016  0.1765E-01  0.6879E+00
     -0.859  0.1756E-01  0.6907E+00
     -0.702  0.1413E-02  0.6909E+00
     -0.545 -0.7446E-04  0.6909E+00
     -0.389  0.5779E-02  0.6918E+00
     -0.232  0.1936E-01  0.6948E+00
     -0.075  0.2601E-01  0.6989E+00
      0.082  0.3925E-01  0.7051E+00
      0.239  0.2685E-01  0.7093E+00
      0.395  0.9693E-02  0.7108E+00
      0.552  0.1717E-01  0.7135E+00
      0.709  0.3021E-01  0.7182E+00
      0.866 -0.2846E-03  0.7182E+00
      1.023 -0.1492E-02  0.7179E+00
      1.179  0.3680E-01  0.7237E+00
      1.336  0.3230E-02  0.7242E+00
      1.493 -0.1093E-02  0.7241E+00
      1.650  0.3184E-01  0.7290E+00
      1.807  0.1247E-01  0.7310E+00
      1.963  0.1843E-01  0.7339E+00
      2.120  0.7936E-02  0.7351E+00
      2.277  0.5731E-02  0.7360E+00
      2.434  0.2645E-02  0.7364E+00
      2.591  0.2844E-01  0.7409E+00
      2.747  0.1672E-01  0.7435E+00
      2.904  0.1634E-01  0.7461E+00
      3.061  0.9685E-01  0.7613E+00
      3.218  0.9824E-01  0.7767E+00
      3.375  0.7240E-01  0.7880E+00
      3.532  0.8473E-01  0.8013E+00
      3.688  0.6997E-01  0.8123E+00
      3.845  0.6072E-01  0.8218E+00
      4.002  0.9239E-01  0.8363E+00
      4.159  0.7438E-01  0.8480E+00
      4.316  0.9738E-01  0.8632E+00
      4.472  0.1022E+00  0.8793E+00
      4.629  0.8277E-01  0.8922E+00
      4.786  0.7600E-01  0.9042E+00
      4.943  0.7492E-01  0.9159E+00
      5.100  0.9741E-01  0.9312E+00
      5.256  0.7889E-01  0.9435E+00
      5.413  0.8715E-01  0.9572E+00
      5.570  0.8499E-01  0.9705E+00
      5.727  0.9607E-01  0.9856E+00
      5.884  0.9638E-01  0.1001E+01
      6.040  0.1034E+00  0.1017E+01
      6.197  0.8270E-01  0.1030E+01
      6.354  0.1259E+00  0.1050E+01
      6.511  0.1205E+00  0.1069E+01
      6.668  0.9621E-01  0.1084E+01
      6.824  0.8898E-01  0.1098E+01
      6.981  0.1114E+00  0.1115E+01
      7.138  0.9092E-01  0.1129E+01
      7.295  0.1019E+00  0.1145E+01
      7.452  0.9780E-01  0.1161E+01
      7.608  0.9206E-01  0.1175E+01
      7.765  0.6892E-01  0.1186E+01
      7.922  0.4075E-01  0.1192E+01
      8.079  0.2894E-01  0.1197E+01
      8.236  0.1737E-01  0.1200E+01
      8.393  0.3208E-02  0.1200E+01
      8.549 -0.7306E-04  0.1200E+01
      8.706  0.3116E-05  0.1200E+01
      8.863  0.4089E-09  0.1200E+01
      9.020  0.2160E-15  0.1200E+01
      9.177  0.0000E+00  0.1200E+01
      9.333  0.0000E+00  0.1200E+01
      9.490  0.0000E+00  0.1200E+01
      9.647  0.0000E+00  0.1200E+01
      9.804  0.0000E+00  0.1200E+01
      9.961  0.0000E+00  0.1200E+01
     10.117  0.0000E+00  0.1200E+01
     10.274  0.0000E+00  0.1200E+01
     10.431  0.0000E+00  0.1200E+01
