       N       E                     dE             d eps       ncg     rms          rms(c)
DAV:   1     0.439526715797E+03    0.43953E+03   -0.23306E+04 22528   0.864E+02
DAV:   2    -0.740190085915E+02   -0.51355E+03   -0.49714E+03 26880   0.409E+02
DAV:   3    -0.104442802866E+03   -0.30424E+02   -0.29939E+02 34912   0.935E+01
DAV:   4    -0.105613310166E+03   -0.11705E+01   -0.11651E+01 36288   0.168E+01
DAV:   5    -0.105655239103E+03   -0.41929E-01   -0.41892E-01 38384   0.301E+00    0.595E+01
DAV:   6    -0.982252857121E+02    0.74300E+01   -0.19646E+01 33528   0.261E+01    0.227E+01
DAV:   7    -0.977217498684E+02    0.50354E+00   -0.51793E+00 32832   0.121E+01    0.889E+00
DAV:   8    -0.975012839340E+02    0.22047E+00   -0.18664E+00 33296   0.976E+00    0.508E+00
DAV:   9    -0.974699408173E+02    0.31343E-01   -0.35333E-01 32344   0.354E+00    0.161E+00
DAV:  10    -0.974707734038E+02   -0.83259E-03   -0.54057E-02 36944   0.146E+00    0.531E-01
DAV:  11    -0.974709342963E+02   -0.16089E-03   -0.14957E-02 31912   0.958E-01    0.259E-01
DAV:  12    -0.974706893798E+02    0.24492E-03   -0.37059E-03 31080   0.425E-01    0.954E-02
DAV:  13    -0.974706897815E+02   -0.40176E-06   -0.83236E-04 25800   0.195E-01
   1 F= -.97470690E+02 E0= -.97470967E+02  d E =-.974707E+02
       N       E                     dE             d eps       ncg     rms          rms(c)
DAV:   1    -0.974711614583E+02   -0.47208E-03   -0.37886E-02 25448   0.140E+00    0.292E-01
DAV:   2    -0.974712663994E+02   -0.10494E-03   -0.62336E-03 27552   0.495E-01    0.924E-02
DAV:   3    -0.974712277051E+02    0.38694E-04   -0.52556E-04 24144   0.185E-01
   2 F= -.97471228E+02 E0= -.97471502E+02  d E =-.537924E-03
       N       E                     dE             d eps       ncg     rms          rms(c)
DAV:   1    -0.974712662557E+02    0.14369E-06   -0.43333E-02 24696   0.150E+00    0.302E-01
DAV:   2    -0.974712589724E+02    0.72833E-05   -0.71143E-03 27264   0.535E-01    0.101E-01
DAV:   3    -0.974711812922E+02    0.77680E-04   -0.53088E-04 26304   0.183E-01
   3 F= -.97471181E+02 E0= -.97471451E+02  d E =-.491511E-03
