Automatically generated mesh
      72
Reciprocal lattice
    0.08333333333333    0.12500000000000    0.08333333333333             2
    0.25000000000000    0.12500000000000    0.08333333333333             2
    0.41666666666667    0.12500000000000    0.08333333333333             2
   -0.41666666666667    0.12500000000000    0.08333333333333             2
   -0.25000000000000    0.12500000000000    0.08333333333333             2
   -0.08333333333333    0.12500000000000    0.08333333333333             2
    0.08333333333333    0.37500000000000    0.08333333333333             2
    0.25000000000000    0.37500000000000    0.08333333333333             2
    0.41666666666667    0.37500000000000    0.08333333333333             2
   -0.41666666666667    0.37500000000000    0.08333333333333             2
   -0.25000000000000    0.37500000000000    0.08333333333333             2
   -0.08333333333333    0.37500000000000    0.08333333333333             2
    0.08333333333333   -0.37500000000000    0.08333333333333             2
    0.25000000000000   -0.37500000000000    0.08333333333333             2
    0.41666666666667   -0.37500000000000    0.08333333333333             2
   -0.41666666666667   -0.37500000000000    0.08333333333333             2
   -0.25000000000000   -0.37500000000000    0.08333333333333             2
   -0.08333333333333   -0.37500000000000    0.08333333333333             2
    0.08333333333333   -0.12500000000000    0.08333333333333             2
    0.25000000000000   -0.12500000000000    0.08333333333333             2
    0.41666666666667   -0.12500000000000    0.08333333333333             2
   -0.41666666666667   -0.12500000000000    0.08333333333333             2
   -0.25000000000000   -0.12500000000000    0.08333333333333             2
   -0.08333333333333   -0.12500000000000    0.08333333333333             2
    0.08333333333333    0.12500000000000    0.25000000000000             2
    0.25000000000000    0.12500000000000    0.25000000000000             2
    0.41666666666667    0.12500000000000    0.25000000000000             2
   -0.41666666666667    0.12500000000000    0.25000000000000             2
   -0.25000000000000    0.12500000000000    0.25000000000000             2
   -0.08333333333333    0.12500000000000    0.25000000000000             2
    0.08333333333333    0.37500000000000    0.25000000000000             2
    0.25000000000000    0.37500000000000    0.25000000000000             2
    0.41666666666667    0.37500000000000    0.25000000000000             2
   -0.41666666666667    0.37500000000000    0.25000000000000             2
   -0.25000000000000    0.37500000000000    0.25000000000000             2
   -0.08333333333333    0.37500000000000    0.25000000000000             2
    0.08333333333333   -0.37500000000000    0.25000000000000             2
    0.25000000000000   -0.37500000000000    0.25000000000000             2
    0.41666666666667   -0.37500000000000    0.25000000000000             2
   -0.41666666666667   -0.37500000000000    0.25000000000000             2
   -0.25000000000000   -0.37500000000000    0.25000000000000             2
   -0.08333333333333   -0.37500000000000    0.25000000000000             2
    0.08333333333333   -0.12500000000000    0.25000000000000             2
    0.25000000000000   -0.12500000000000    0.25000000000000             2
    0.41666666666667   -0.12500000000000    0.25000000000000             2
   -0.41666666666667   -0.12500000000000    0.25000000000000             2
   -0.25000000000000   -0.12500000000000    0.25000000000000             2
   -0.08333333333333   -0.12500000000000    0.25000000000000             2
    0.08333333333333    0.12500000000000    0.41666666666667             2
    0.25000000000000    0.12500000000000    0.41666666666667             2
    0.41666666666667    0.12500000000000    0.41666666666667             2
   -0.41666666666667    0.12500000000000    0.41666666666667             2
   -0.25000000000000    0.12500000000000    0.41666666666667             2
   -0.08333333333333    0.12500000000000    0.41666666666667             2
    0.08333333333333    0.37500000000000    0.41666666666667             2
    0.25000000000000    0.37500000000000    0.41666666666667             2
    0.41666666666667    0.37500000000000    0.41666666666667             2
   -0.41666666666667    0.37500000000000    0.41666666666667             2
   -0.25000000000000    0.37500000000000    0.41666666666667             2
   -0.08333333333333    0.37500000000000    0.41666666666667             2
    0.08333333333333   -0.37500000000000    0.41666666666667             2
    0.25000000000000   -0.37500000000000    0.41666666666667             2
    0.41666666666667   -0.37500000000000    0.41666666666667             2
   -0.41666666666667   -0.37500000000000    0.41666666666667             2
   -0.25000000000000   -0.37500000000000    0.41666666666667             2
   -0.08333333333333   -0.37500000000000    0.41666666666667             2
    0.08333333333333   -0.12500000000000    0.41666666666667             2
    0.25000000000000   -0.12500000000000    0.41666666666667             2
    0.41666666666667   -0.12500000000000    0.41666666666667             2
   -0.41666666666667   -0.12500000000000    0.41666666666667             2
   -0.25000000000000   -0.12500000000000    0.41666666666667             2
   -0.08333333333333   -0.12500000000000    0.41666666666667             2
Tetrahedra
       432    0.00115740740741
         2         2         7         8        31
         2         1         2         7        31
         2         1         2        25        31
         2         2         8        31        32
         2         2        26        31        32
         2         2        25        26        31
         2         3         8         9        32
         2         2         3         8        32
         2         2         3        26        32
         2         3         9        32        33
         2         3        27        32        33
         2         3        26        27        32
         2         4         9        10        33
         2         3         4         9        33
         2         3         4        27        33
         2         4        10        33        34
         2         4        28        33        34
         2         4        27        28        33
         2         5        10        11        34
         2         4         5        10        34
         2         4         5        28        34
         2         5        11        34        35
         2         5        29        34        35
         2         5        28        29        34
         2         6        11        12        35
         2         5         6        11        35
         2         5         6        29        35
         2         6        12        35        36
         2         6        30        35        36
         2         6        29        30        35
         2         1         7        12        36
         2         1         6        12        36
         2         1         6        30        36
         2         1         7        31        36
         2         1        25        31        36
         2         1        25        30        36
         2         8        13        14        37
         2         7         8        13        37
         2         7         8        31        37
         2         8        14        37        38
         2         8        32        37        38
         2         8        31        32        37
         2         9        14        15        38
         2         8         9        14        38
         2         8         9        32        38
         2         9        15        38        39
         2         9        33        38        39
         2         9        32        33        38
         2        10        15        16        39
         2         9        10        15        39
         2         9        10        33        39
         2        10        16        39        40
         2        10        34        39        40
         2        10        33        34        39
         2        11        16        17        40
         2        10        11        16        40
         2        10        11        34        40
         2        11        17        40        41
         2        11        35        40        41
         2        11        34        35        40
         2        12        17        18        41
         2        11        12        17        41
         2        11        12        35        41
         2        12        18        41        42
         2        12        36        41        42
         2        12        35        36        41
         2         7        13        18        42
         2         7        12        18        42
         2         7        12        36        42
         2         7        13        37        42
         2         7        31        37        42
         2         7        31        36        42
         2        14        19        20        43
         2        13        14        19        43
         2        13        14        37        43
         2        14        20        43        44
         2        14        38        43        44
         2        14        37        38        43
         2        15        20        21        44
         2        14        15        20        44
         2        14        15        38        44
         2        15        21        44        45
         2        15        39        44        45
         2        15        38        39        44
         2        16        21        22        45
         2        15        16        21        45
         2        15        16        39        45
         2        16        22        45        46
         2        16        40        45        46
         2        16        39        40        45
         2        17        22        23        46
         2        16        17        22        46
         2        16        17        40        46
         2        17        23        46        47
         2        17        41        46        47
         2        17        40        41        46
         2        18        23        24        47
         2        17        18        23        47
         2        17        18        41        47
         2        18        24        47        48
         2        18        42        47        48
         2        18        41        42        47
         2        13        19        24        48
         2        13        18        24        48
         2        13        18        42        48
         2        13        19        43        48
         2        13        37        43        48
         2        13        37        42        48
         2         1         2        20        25
         2         1        19        20        25
         2        19        20        25        43
         2         2        20        25        26
         2        20        25        26        44
         2        20        25        43        44
         2         2         3        21        26
         2         2        20        21        26
         2        20        21        26        44
         2         3        21        26        27
         2        21        26        27        45
         2        21        26        44        45
         2         3         4        22        27
         2         3        21        22        27
         2        21        22        27        45
         2         4        22        27        28
         2        22        27        28        46
         2        22        27        45        46
         2         4         5        23        28
         2         4        22        23        28
         2        22        23        28        46
         2         5        23        28        29
         2        23        28        29        47
         2        23        28        46        47
         2         5         6        24        29
         2         5        23        24        29
         2        23        24        29        47
         2         6        24        29        30
         2        24        29        30        48
         2        24        29        47        48
         2         1         6        19        30
         2         6        19        24        30
         2        19        24        30        48
         2         1        19        25        30
         2        19        25        30        43
         2        19        30        43        48
         2        26        31        32        55
         2        25        26        31        55
         2        25        26        49        55
         2        26        32        55        56
         2        26        50        55        56
         2        26        49        50        55
         2        27        32        33        56
         2        26        27        32        56
         2        26        27        50        56
         2        27        33        56        57
         2        27        51        56        57
         2        27        50        51        56
         2        28        33        34        57
         2        27        28        33        57
         2        27        28        51        57
         2        28        34        57        58
         2        28        52        57        58
         2        28        51        52        57
         2        29        34        35        58
         2        28        29        34        58
         2        28        29        52        58
         2        29        35        58        59
         2        29        53        58        59
         2        29        52        53        58
         2        30        35        36        59
         2        29        30        35        59
         2        29        30        53        59
         2        30        36        59        60
         2        30        54        59        60
         2        30        53        54        59
         2        25        31        36        60
         2        25        30        36        60
         2        25        30        54        60
         2        25        31        55        60
         2        25        49        55        60
         2        25        49        54        60
         2        32        37        38        61
         2        31        32        37        61
         2        31        32        55        61
         2        32        38        61        62
         2        32        56        61        62
         2        32        55        56        61
         2        33        38        39        62
         2        32        33        38        62
         2        32        33        56        62
         2        33        39        62        63
         2        33        57        62        63
         2        33        56        57        62
         2        34        39        40        63
         2        33        34        39        63
         2        33        34        57        63
         2        34        40        63        64
         2        34        58        63        64
         2        34        57        58        63
         2        35        40        41        64
         2        34        35        40        64
         2        34        35        58        64
         2        35        41        64        65
         2        35        59        64        65
         2        35        58        59        64
         2        36        41        42        65
         2        35        36        41        65
         2        35        36        59        65
         2        36        42        65        66
         2        36        60        65        66
         2        36        59        60        65
         2        31        37        42        66
         2        31        36        42        66
         2        31        36        60        66
         2        31        37        61        66
         2        31        55        61        66
         2        31        55        60        66
         2        38        43        44        67
         2        37        38        43        67
         2        37        38        61        67
         2        38        44        67        68
         2        38        62        67        68
         2        38        61        62        67
         2        39        44        45        68
         2        38        39        44        68
         2        38        39        62        68
         2        39        45        68        69
         2        39        63        68        69
         2        39        62        63        68
         2        40        45        46        69
         2        39        40        45        69
         2        39        40        63        69
         2        40        46        69        70
         2        40        64        69        70
         2        40        63        64        69
         2        41        46        47        70
         2        40        41        46        70
         2        40        41        64        70
         2        41        47        70        71
         2        41        65        70        71
         2        41        64        65        70
         2        42        47        48        71
         2        41        42        47        71
         2        41        42        65        71
         2        42        48        71        72
         2        42        66        71        72
         2        42        65        66        71
         2        37        43        48        72
         2        37        42        48        72
         2        37        42        66        72
         2        37        43        67        72
         2        37        61        67        72
         2        37        61        66        72
         2        25        26        44        49
         2        25        43        44        49
         2        43        44        49        67
         2        26        44        49        50
         2        44        49        50        68
         2        44        49        67        68
         2        26        27        45        50
         2        26        44        45        50
         2        44        45        50        68
         2        27        45        50        51
         2        45        50        51        69
         2        45        50        68        69
         2        27        28        46        51
         2        27        45        46        51
         2        45        46        51        69
         2        28        46        51        52
         2        46        51        52        70
         2        46        51        69        70
         2        28        29        47        52
         2        28        46        47        52
         2        46        47        52        70
         2        29        47        52        53
         2        47        52        53        71
         2        47        52        70        71
         2        29        30        48        53
         2        29        47        48        53
         2        47        48        53        71
         2        30        48        53        54
         2        48        53        54        72
         2        48        53        71        72
         2        25        30        43        54
         2        30        43        48        54
         2        43        48        54        72
         2        25        43        49        54
         2        43        49        54        67
         2        43        54        67        72
         2        50        55        56        66
         2        49        50        55        66
         2        49        50        66        72
         2        50        56        65        66
         2        50        65        66        71
         2        50        66        71        72
         2        51        56        57        65
         2        50        51        56        65
         2        50        51        65        71
         2        51        57        64        65
         2        51        64        65        70
         2        51        65        70        71
         2        52        57        58        64
         2        51        52        57        64
         2        51        52        64        70
         2        52        58        63        64
         2        52        63        64        69
         2        52        64        69        70
         2        53        58        59        63
         2        52        53        58        63
         2        52        53        63        69
         2        53        59        62        63
         2        53        62        63        68
         2        53        63        68        69
         2        54        59        60        62
         2        53        54        59        62
         2        53        54        62        68
         2        54        60        61        62
         2        54        61        62        67
         2        54        62        67        68
         2        49        55        60        61
         2        49        54        60        61
         2        49        54        61        67
         2        49        55        61        66
         2        49        61        66        72
         2        49        61        67        72
         2        56        60        61        62
         2        55        56        60        61
         2        55        56        60        66
         2        56        59        60        62
         2        56        59        60        65
         2        56        60        65        66
         2        57        59        62        63
         2        56        57        59        62
         2        56        57        59        65
         2        57        58        59        63
         2        57        58        59        64
         2        57        59        64        65
         2        58        58        63        64
         2        57        58        58        63
         2        57        58        58        64
         2        55        55        61        66
         2        55        55        60        66
         2        55        55        60        61
         2        49        50        68        72
         2        49        67        68        72
         2        54        67        68        72
         2        50        68        71        72
         2        53        68        71        72
         2        53        54        68        72
         2        50        51        69        71
         2        50        68        69        71
         2        53        68        69        71
         2        51        69        70        71
         2        52        69        70        71
         2        52        53        69        71
         2        51        52        70        70
         2        51        69        70        70
         2        52        69        70        70
         2        49        54        67        67
         2        54        67        67        72
         2        49        67        67        72
         2         7        17        18        23
         2         7        18        23        24
         2         1         7        23        24
         2         7         8        17        23
         2         2         7         8        23
         2         1         2         7        23
         2         8        16        17        22
         2         8        17        22        23
         2         2         8        22        23
         2         8         9        16        22
         2         3         8         9        22
         2         2         3         8        22
         2         9        15        16        21
         2         9        16        21        22
         2         3         9        21        22
         2         9        10        15        21
         2         4         9        10        21
         2         3         4         9        21
         2        10        14        15        20
         2        10        15        20        21
         2         4        10        20        21
         2        10        11        14        20
         2         5        10        11        20
         2         4         5        10        20
         2        11        13        14        19
         2        11        14        19        20
         2         5        11        19        20
         2        11        12        13        19
         2         6        11        12        19
         2         5         6        11        19
         2        12        13        18        24
         2        12        13        19        24
         2         6        12        19        24
         2         7        12        18        24
         2         1         7        12        24
         2         1         6        12        24
         2        11        12        13        17
         2        12        13        17        18
         2         7        13        17        18
         2        11        13        14        17
         2         8        13        14        17
         2         7         8        13        17
         2        10        11        14        16
         2        11        14        16        17
         2         8        14        16        17
         2        10        14        15        16
         2         9        14        15        16
         2         8         9        14        16
         2         9        10        15        15
         2        10        15        15        16
         2         9        15        15        16
         2         7        12        18        18
         2         7        13        18        18
         2        12        13        18        18
         2         1         5        23        24
         2         1         5         6        24
         2         1         5         6        19
         2         1         2         5        23
         2         1         2         5        20
         2         1         5        19        20
         2         2         4        22        23
         2         2         4         5        23
         2         2         4         5        20
         2         2         3         4        22
         2         2         3         4        21
         2         2         4        20        21
         2         3         3        21        22
         2         3         3         4        22
         2         3         3         4        21
         2         6         6        19        24
         2         1         6         6        19
         2         1         6         6        24
