 running on   16 total cores
 distrk:  each k-point on   16 cores,    1 groups
 distr:  one band on    1 cores,   16 groups
 using from now: INCAR     
 vasp.5.4.4.18Apr17-6-g9f103f2a35 (build Nov 01 2019 12:17:22) complex          
  
 POSCAR found type information on POSCAR  Sr Nb H 
 POSCAR found :  3 types and       8 ions

 ----------------------------------------------------------------------------- 
|                                                                             |
|           W    W    AA    RRRRR   N    N  II  N    N   GGGG   !!!           |
|           W    W   A  A   R    R  NN   N  II  NN   N  G    G  !!!           |
|           W    W  A    A  R    R  N N  N  II  N N  N  G       !!!           |
|           W WW W  AAAAAA  RRRRR   N  N N  II  N  N N  G  GGG   !            |
|           WW  WW  A    A  R   R   N   NN  II  N   NN  G    G                |
|           W    W  A    A  R    R  N    N  II  N    N   GGGG   !!!           |
|                                                                             |
|      For optimal performance we recommend to set                            |
|        NCORE= 4 - approx SQRT( number of cores)                             |
|      NCORE specifies how many cores store one orbital (NPAR=cpu/NCORE).     |
|      This setting can  greatly improve the performance of VASP for DFT.     |
|      The default,   NCORE=1            might be grossly inefficient         |
|      on modern multi-core architectures or massively parallel machines.     |
|      Do your own testing !!!!                                               |
|      Unfortunately you need to use the default for GW and RPA calculations. |
|      (for HF NCORE is supported but not extensively tested yet)             |
|                                                                             |
 ----------------------------------------------------------------------------- 


 ----------------------------------------------------------------------------- 
|                                                                             |
|  ADVICE TO THIS USER RUNNING 'VASP/VAMP'   (HEAR YOUR MASTER'S VOICE ...):  |
|                                                                             |
|      You have a (more or less) 'small supercell' and for smaller cells      |
|      it is recommended  to use the reciprocal-space projection scheme!      |
|      The real space optimization is not  efficient for small cells and it   |
|      is also less accurate ...                                              |
|      Therefore set LREAL=.FALSE. in the  INCAR file                         |
|                                                                             |
 ----------------------------------------------------------------------------- 

 LDA part: xc-table for Pade appr. of Perdew
 POSCAR, INCAR and KPOINTS ok, starting setup
 FFT: planning ...
 WAVECAR not read
 entering main loop
       N       E                     dE             d eps       ncg     rms          rms(c)
DAV:   1     0.133824225294E+03    0.13382E+03   -0.12621E+04 12672   0.797E+02
DAV:   2    -0.273284623540E+02   -0.16115E+03   -0.15152E+03 14864   0.233E+02
DAV:   3    -0.340799483974E+02   -0.67515E+01   -0.66910E+01 21936   0.439E+01
DAV:   4    -0.341443740579E+02   -0.64426E-01   -0.64464E-01 13840   0.301E+00
DAV:   5    -0.341457463113E+02   -0.13723E-02   -0.13736E-02 19872   0.363E-01    0.351E+01
RMM:   6    -0.336264671622E+02    0.51928E+00   -0.32646E+00 13480   0.792E+00    0.150E+01
RMM:   7    -0.333728050874E+02    0.25366E+00   -0.40872E-01 13421   0.419E+00    0.757E+00
RMM:   8    -0.333768057304E+02   -0.40006E-02   -0.83047E-02 13717   0.184E+00    0.408E+00
RMM:   9    -0.333831054695E+02   -0.62997E-02   -0.20887E-02 13446   0.948E-01    0.161E+00
RMM:  10    -0.333849385032E+02   -0.18330E-02   -0.76991E-03 13405   0.635E-01    0.880E-01
RMM:  11    -0.333856238696E+02   -0.68537E-03   -0.13804E-03 11857   0.255E-01    0.224E-01
RMM:  12    -0.333862177351E+02   -0.59387E-03   -0.59689E-04 10099   0.172E-01    0.124E-01
RMM:  13    -0.333866808684E+02   -0.46313E-03   -0.33607E-04  9241   0.126E-01    0.605E-02
RMM:  14    -0.333869626604E+02   -0.28179E-03   -0.22197E-04  8217   0.105E-01
   1 F= -.33386963E+02 E0= -.33386963E+02  d E =-.333870E+02  mag=     0.0420
 curvature:   0.00 expect dE= 0.000E+00 dE for cont linesearch  0.000E+00
 trial: gam= 0.00000 g(F)=  0.302E-02 g(S)=  0.397E-01 ort = 0.000E+00 (trialstep = 0.100E+01)
 search vector abs. value=  0.428E-01
 bond charge predicted
       N       E                     dE             d eps       ncg     rms          rms(c)
DAV:   1    -0.335426716349E+02   -0.15599E+00   -0.22980E+00 18560   0.988E+00    0.396E+00
RMM:   2    -0.334355425036E+02    0.10713E+00   -0.19868E-01 13009   0.251E+00    0.917E-01
RMM:   3    -0.334172241132E+02    0.18318E-01   -0.18205E-02 13477   0.115E+00    0.890E-01
RMM:   4    -0.334145817394E+02    0.26424E-02   -0.81476E-03 13502   0.544E-01    0.807E-01
RMM:   5    -0.334149114304E+02   -0.32969E-03   -0.50169E-03 13141   0.416E-01    0.271E-01
RMM:   6    -0.334152121795E+02   -0.30075E-03   -0.38036E-03 12641   0.264E-01
   2 F= -.33415212E+02 E0= -.33415212E+02  d E =-.282495E-01  mag=     0.0165
 trial-energy change:   -0.028250  1 .order   -0.029691   -0.042761   -0.016621
 step:   1.6358(harm=  1.6358)  dis= 0.00747  next Energy=   -33.421938 (dE=-0.350E-01)
 bond charge predicted
       N       E                     dE             d eps       ncg     rms          rms(c)
DAV:   1    -0.334682896989E+02   -0.53378E-01   -0.89985E-01 12848   0.617E+00    0.244E+00
RMM:   2    -0.334263014020E+02    0.41988E-01   -0.74032E-02 12885   0.156E+00    0.555E-01
RMM:   3    -0.334195185339E+02    0.67829E-02   -0.73243E-03 13369   0.721E-01    0.541E-01
RMM:   4    -0.334186721692E+02    0.84636E-03   -0.35611E-03 12443   0.365E-01    0.496E-01
RMM:   5    -0.334189523848E+02   -0.28022E-03   -0.20443E-03 12003   0.265E-01
   3 F= -.33418952E+02 E0= -.33418952E+02  d E =-.319897E-01  mag=     0.0094
 curvature:  -0.82 expect dE=-0.818E-02 dE for cont linesearch -0.502E-03
 trial: gam= 0.11396 g(F)=  0.964E-02 g(S)=  0.356E-03 ort = 0.513E-02 (trialstep = 0.113E+01)
 search vector abs. value=  0.117E-01
 bond charge predicted
       N       E                     dE             d eps       ncg     rms          rms(c)
DAV:   1    -0.334284742309E+02   -0.98021E-02   -0.15041E+00 15760   0.837E+00    0.663E-01
RMM:   2    -0.334272296376E+02    0.12446E-02   -0.50436E-02 13389   0.104E+00    0.272E-01
RMM:   3    -0.334259524480E+02    0.12772E-02   -0.24512E-03 11672   0.557E-01    0.329E-01
RMM:   4    -0.334259304586E+02    0.21989E-04   -0.55938E-04 10206   0.147E-01
   4 F= -.33425930E+02 E0= -.33425930E+02  d E =-.697807E-02  mag=     0.0077
 trial-energy change:   -0.006978  1 .order   -0.007916   -0.011928   -0.003903
 step:   1.6754(harm=  1.6754)  dis= 0.00975  next Energy=   -33.427817 (dE=-0.886E-02)
 bond charge predicted
       N       E                     dE             d eps       ncg     rms          rms(c)
DAV:   1    -0.334266961937E+02   -0.74375E-03   -0.35310E-01 17968   0.409E+00    0.306E-01
RMM:   2    -0.334266085964E+02    0.87597E-04   -0.12744E-02 13314   0.519E-01    0.140E-01
RMM:   3    -0.334262849557E+02    0.32364E-03   -0.63764E-04 10008   0.293E-01
   5 F= -.33426285E+02 E0= -.33426285E+02  d E =-.733257E-02  mag=     0.0071
 curvature:  -0.93 expect dE=-0.492E-02 dE for cont linesearch -0.185E-04
 trial: gam= 0.60007 g(F)=  0.357E-02 g(S)=  0.173E-02 ort =-0.484E-03 (trialstep = 0.124E+01)
 search vector abs. value=  0.894E-02
 bond charge predicted
       N       E                     dE             d eps       ncg     rms          rms(c)
DAV:   1    -0.334397556757E+02   -0.13147E-01   -0.46024E-01 19728   0.409E+00    0.745E-01
RMM:   2    -0.334316446106E+02    0.81111E-02   -0.18345E-02 13679   0.700E-01    0.379E-01
RMM:   3    -0.334299415806E+02    0.17030E-02   -0.14707E-03 11732   0.307E-01    0.274E-01
RMM:   4    -0.334295494391E+02    0.39214E-03   -0.14732E-03 11390   0.203E-01
   6 F= -.33429549E+02 E0= -.33429549E+02  d E =-.326448E-02  mag=     0.0069
 trial-energy change:   -0.003264  1 .order   -0.004628   -0.006202   -0.003053
 step:   2.4362(harm=  2.4362)  dis= 0.02293  next Energy=   -33.432393 (dE=-0.611E-02)
 bond charge predicted
       N       E                     dE             d eps       ncg     rms          rms(c)
DAV:   1    -0.334386299554E+02   -0.86884E-02   -0.42497E-01 19856   0.394E+00    0.763E-01
RMM:   2    -0.334315424647E+02    0.70875E-02   -0.16600E-02 13667   0.658E-01    0.300E-01
RMM:   3    -0.334300145486E+02    0.15279E-02   -0.12467E-03 11407   0.291E-01    0.213E-01
RMM:   4    -0.334296920618E+02    0.32249E-03   -0.11672E-03 11174   0.183E-01
   7 F= -.33429692E+02 E0= -.33429692E+02  d E =-.340711E-02  mag=     0.0078
 curvature:  -2.17 expect dE=-0.354E-02 dE for cont linesearch -0.214E-05
 trial: gam= 0.15170 g(F)=  0.137E-02 g(S)=  0.259E-03 ort =-0.938E-04 (trialstep = 0.148E+01)
 search vector abs. value=  0.181E-02
 reached required accuracy - stopping structural energy minimisation
