       N       E                     dE             d eps       ncg     rms          rms(c)
DAV:   1    -0.152233925968E+02   -0.15223E+02   -0.32929E+03 15888   0.352E+02
DAV:   2    -0.416159996926E+02   -0.26393E+02   -0.25432E+02 21664   0.897E+01
DAV:   3    -0.425412398587E+02   -0.92524E+00   -0.92509E+00 18920   0.163E+01
DAV:   4    -0.425437270860E+02   -0.24872E-02   -0.24872E-02 20960   0.100E+00
DAV:   5    -0.425437409167E+02   -0.13831E-04   -0.13831E-04 18864   0.650E-02    0.967E+00
DAV:   6    -0.413189880444E+02    0.12248E+01   -0.31394E-01 18624   0.302E+00    0.558E+00
DAV:   7    -0.406798120099E+02    0.63918E+00   -0.89415E-01 20704   0.521E+00    0.557E-01
DAV:   8    -0.406990280982E+02   -0.19216E-01   -0.38132E-02 17048   0.123E+00    0.300E-01
DAV:   9    -0.406973558593E+02    0.16722E-02   -0.45778E-03 22176   0.413E-01    0.750E-02
DAV:  10    -0.406973650074E+02   -0.91482E-05   -0.18305E-04 17904   0.916E-02
   1 F= -.40697365E+02 E0= -.40697566E+02  d E =-.406974E+02
       N       E                     dE             d eps       ncg     rms          rms(c)
DAV:   1    -0.406984841135E+02   -0.11283E-02   -0.42541E-02 20520   0.133E+00    0.912E-02
DAV:   2    -0.406985706829E+02   -0.86569E-04   -0.19295E-03 18320   0.279E-01    0.695E-02
DAV:   3    -0.406985042146E+02    0.66468E-04   -0.16004E-04 21664   0.133E-01
   2 F= -.40698504E+02 E0= -.40698704E+02  d E =-.113921E-02
       N       E                     dE             d eps       ncg     rms          rms(c)
DAV:   1    -0.406987186600E+02   -0.14798E-03   -0.34448E-03 19872   0.363E-01    0.297E-02
DAV:   2    -0.406987126043E+02    0.60557E-05   -0.92147E-05 11480   0.647E-02
   3 F= -.40698713E+02 E0= -.40698912E+02  d E =-.134760E-02
       N       E                     dE             d eps       ncg     rms          rms(c)
DAV:   1    -0.406999245400E+02   -0.12059E-02   -0.67936E-03 18752   0.495E-01    0.286E-02
DAV:   2    -0.406999360524E+02   -0.11512E-04   -0.15684E-04 18608   0.744E-02
   4 F= -.40699936E+02 E0= -.40700136E+02  d E =-.122345E-02
       N       E                     dE             d eps       ncg     rms          rms(c)
DAV:   1    -0.407028570360E+02   -0.29325E-02   -0.60716E-02 19128   0.147E+00    0.841E-02
DAV:   2    -0.407029339281E+02   -0.76892E-04   -0.10105E-03 19776   0.189E-01    0.543E-02
DAV:   3    -0.407029271553E+02    0.67729E-05   -0.65372E-05 16032   0.561E-02
   5 F= -.40702927E+02 E0= -.40703126E+02  d E =-.421455E-02
       N       E                     dE             d eps       ncg     rms          rms(c)
DAV:   1    -0.407055181460E+02   -0.25842E-02   -0.24306E-01 19088   0.295E+00    0.166E-01
DAV:   2    -0.407058674584E+02   -0.34931E-03   -0.43923E-03 19888   0.392E-01    0.108E-01
DAV:   3    -0.407058427396E+02    0.24719E-04   -0.26701E-04 21080   0.110E-01
   6 F= -.40705843E+02 E0= -.40706040E+02  d E =-.713014E-02
       N       E                     dE             d eps       ncg     rms          rms(c)
DAV:   1    -0.407073534029E+02   -0.14859E-02   -0.54699E-02 17048   0.144E+00    0.748E-02
DAV:   2    -0.407074774186E+02   -0.12402E-03   -0.18453E-03 21312   0.263E-01    0.589E-02
DAV:   3    -0.407074300605E+02    0.47358E-04   -0.80469E-05 18160   0.897E-02
   7 F= -.40707430E+02 E0= -.40707627E+02  d E =-.158732E-02
       N       E                     dE             d eps       ncg     rms          rms(c)
DAV:   1    -0.407074660366E+02    0.11382E-04   -0.69213E-04 16064   0.154E-01    0.111E-02
DAV:   2    -0.407074649999E+02    0.10366E-05   -0.16876E-05  7976   0.268E-02
   8 F= -.40707465E+02 E0= -.40707662E+02  d E =-.162226E-02
       N       E                     dE             d eps       ncg     rms          rms(c)
DAV:   1    -0.407090658773E+02   -0.15998E-02   -0.17971E-02 17376   0.818E-01    0.437E-02
DAV:   2    -0.407091090985E+02   -0.43221E-04   -0.51831E-04 21072   0.128E-01
   9 F= -.40709109E+02 E0= -.40709305E+02  d E =-.164410E-02
       N       E                     dE             d eps       ncg     rms          rms(c)
DAV:   1    -0.407121565970E+02   -0.30907E-02   -0.15975E-01 17648   0.245E+00    0.134E-01
DAV:   2    -0.407125124883E+02   -0.35589E-03   -0.41866E-03 20976   0.365E-01    0.913E-02
DAV:   3    -0.407125088531E+02    0.36352E-05   -0.25088E-04 19640   0.880E-02
  10 F= -.40712509E+02 E0= -.40712704E+02  d E =-.504385E-02
       N       E                     dE             d eps       ncg     rms          rms(c)
DAV:   1    -0.407134155069E+02   -0.90302E-03   -0.26380E-02 19296   0.102E+00    0.715E-02
DAV:   2    -0.407134520743E+02   -0.36567E-04   -0.10667E-03 19144   0.203E-01    0.519E-02
DAV:   3    -0.407134140084E+02    0.38066E-04   -0.90030E-05 17296   0.860E-02
  11 F= -.40713414E+02 E0= -.40713609E+02  d E =-.905155E-03
       N       E                     dE             d eps       ncg     rms          rms(c)
DAV:   1    -0.407134797812E+02   -0.27707E-04   -0.10231E-03 18072   0.192E-01    0.157E-02
DAV:   2    -0.407134775731E+02    0.22081E-05   -0.21900E-05  7968   0.308E-02
  12 F= -.40713478E+02 E0= -.40713673E+02  d E =-.968720E-03
