unknown system                          
           1
     5.049281   -0.528398    0.548350
     0.364885    4.933748    0.840199
     0.067732    0.812496    4.902583
   Sr   Nb   H 
   1   1  13
Direct configuration=     1
   0.07168600  0.30901400  0.75356400
   0.64920800  0.94241300  0.47243300
   0.56609100  0.33711800  0.32435000
   0.40981000  0.68349400  0.42594900
   0.68871100  0.96229200  0.10360100
   0.51210700  0.27252000  0.20156300
   0.31789000  0.97525200  0.61242300
   0.62072900  0.69925800  0.87722900
   0.92076400  0.88490000  0.68326800
   0.63161100  0.20609100  0.65128700
   0.18810000  0.62377400  0.11648700
   0.10319600  0.69134300  0.99793600
   0.84556900  0.65484300  0.43540800
   0.54765600  0.60208400  0.79947700
   0.94040900  0.18091000  0.28436100
unknown system                          
           1
     5.097787   -0.534719    0.552937
     0.367008    4.981671    0.849260
     0.067592    0.821348    4.950045
   Sr   Nb   H 
   1   1  13
Direct configuration=     2
   0.07139393  0.30893478  0.75308426
   0.64953835  0.94258866  0.47205215
   0.56568305  0.33652478  0.32349750
   0.41010408  0.68386699  0.42609836
   0.68852790  0.96246171  0.10446455
   0.51262375  0.27298422  0.20267882
   0.31848084  0.97515726  0.61231760
   0.62055380  0.69815499  0.87659168
   0.92007957  0.88490370  0.68305490
   0.63166816  0.20553357  0.65104153
   0.18770167  0.62442026  0.11573101
   0.10367858  0.69088649  0.99886997
   0.84529799  0.65550758  0.43557448
   0.54807578  0.60249845  0.79994841
   0.94012953  0.18088257  0.28433078
unknown system                          
           1
     5.222986   -0.551036    0.564778
     0.372488    5.105369    0.872646
     0.067230    0.844198    5.072549
   Sr   Nb   H 
   1   1  13
Direct configuration=     3
   0.07064697  0.30873232  0.75185782
   0.65038284  0.94303810  0.47107852
   0.56463931  0.33500838  0.32131838
   0.41085623  0.68482064  0.42648006
   0.68806031  0.96289504  0.10667199
   0.51394564  0.27417076  0.20553118
   0.31999124  0.97491545  0.61204837
   0.62010485  0.69533537  0.87496302
   0.91832972  0.88491286  0.68250995
   0.63181381  0.20410867  0.65041432
   0.18668347  0.62607253  0.11379791
   0.10491240  0.68971927  0.00125797
   0.84460570  0.65720631  0.43599961
   0.54914946  0.60355801  0.80115341
   0.93941504  0.18081228  0.28425348
unknown system                          
           1
     5.182311   -0.545735    0.560931
     0.370707    5.065181    0.865048
     0.067347    0.836774    5.032749
   Sr   Nb   H 
   1   1  13
Direct configuration=     4
   0.07088403  0.30879648  0.75224668
   0.65011510  0.94289530  0.47138722
   0.56497088  0.33548905  0.32200908
   0.41061748  0.68451819  0.42635916
   0.68820819  0.96275805  0.10597224
   0.51352585  0.27379472  0.20462696
   0.31951241  0.97499181  0.61213357
   0.62024804  0.69622922  0.87547892
   0.91888464  0.88491020  0.68268286
   0.63176802  0.20456034  0.65061291
   0.18700622  0.62554856  0.11441116
   0.10452111  0.69008947  0.00050056
   0.84482479  0.65666789  0.43586518
   0.54880863  0.60322204  0.80077147
   0.93964162  0.18083469  0.28427803
unknown system                          
           1
     5.214949   -0.552929    0.571415
     0.369870    5.093149    0.872776
     0.072907    0.841707    5.073433
   Sr   Nb   H 
   1   1  13
Direct configuration=     5
   0.06879356  0.30783541  0.74991617
   0.65092970  0.94286724  0.47354163
   0.56515383  0.33317416  0.32229717
   0.41355542  0.68743841  0.42761773
   0.68764187  0.96340886  0.11110629
   0.51453819  0.27251308  0.20645075
   0.32447484  0.97506490  0.61026970
   0.62048055  0.69600229  0.87283254
   0.91485164  0.88627172  0.67998104
   0.63293524  0.20063870  0.64833789
   0.18806958  0.62535738  0.11524774
   0.10367526  0.69049799 -0.00033661
   0.84246989  0.66026972  0.43737462
   0.54948512  0.60512461  0.79936620
   0.93648232  0.17884156  0.28533314
unknown system                          
           1
     5.239093   -0.558250    0.579171
     0.369250    5.113837    0.878493
     0.077020    0.845355    5.103528
   Sr   Nb   H 
   1   1  13
Direct configuration=     6
   0.06725824  0.30712635  0.74820879
   0.65152691  0.94284756  0.47512171
   0.56528716  0.33147109  0.32250953
   0.41571524  0.68958941  0.42853656
   0.68722217  0.96388821  0.11487418
   0.51528048  0.27157112  0.20778861
   0.32812386  0.97512194  0.60889629
   0.62065327  0.69583501  0.87089038
   0.91188966  0.88727011  0.67800220
   0.63379326  0.19775366  0.64666902
   0.18885053  0.62521763  0.11586054
   0.10305427  0.69079780 -0.00095020
   0.84073929  0.66291844  0.43848318
   0.54998416  0.60652473  0.79833325
   0.93415850  0.17737294  0.28611197
unknown system                          
           1
     5.253600   -0.560926    0.583882
     0.369019    5.125626    0.884713
     0.079915    0.850203    5.121554
   Sr   Nb   H 
   1   1  13
Direct configuration=     7
   0.06607332  0.30655435  0.74692148
   0.65133026  0.94300485  0.47483765
   0.56554000  0.33045145  0.32290083
   0.41713016  0.69090418  0.42930543
   0.68702483  0.96421611  0.11738418
   0.51574104  0.27059961  0.20854158
   0.33012797  0.97530232  0.60828803
   0.62107498  0.69618674  0.86997223
   0.91048109  0.88794861  0.67709403
   0.63449025  0.19621695  0.64598966
   0.18822107  0.62602308  0.11466525
   0.10377959  0.69010291  0.00018429
   0.83982965  0.66425782  0.43941601
   0.54993801  0.60704597  0.79726851
   0.93275478  0.17649106  0.28656685
unknown system                          
           1
     5.277790   -0.565387    0.591738
     0.368635    5.145284    0.895085
     0.084741    0.858286    5.151610
   Sr   Nb   H 
   1   1  13
Direct configuration=     8
   0.06410394  0.30560295  0.74478451
   0.65100357  0.94326664  0.47436563
   0.56595976  0.32875486  0.32355225
   0.41948262  0.69309190  0.43057959
   0.68669487  0.96475972  0.12155476
   0.51650591  0.26898292  0.20979368
   0.33346077  0.97560398  0.60727483
   0.62177701  0.69677283  0.86844557
   0.90813997  0.88907738  0.67558550
   0.63564914  0.19366105  0.64486225
   0.18717566  0.62736369  0.11267856
   0.10498446  0.68894632  0.00206966
   0.83831691  0.66648510  0.44096512
   0.54986229  0.60791396  0.79549854
   0.93042012  0.17502271  0.28732556
unknown system                          
           1
     5.281789   -0.566183    0.593671
     0.367995    5.146010    0.899982
     0.086574    0.862486    5.155529
   Sr   Nb   H 
   1   1  13
Direct configuration=     9
   0.06352277  0.30531844  0.74416682
   0.65076395  0.94340300  0.47392342
   0.56619841  0.32855315  0.32382798
   0.41958151  0.69305824  0.43094201
   0.68680219  0.96493094  0.12157831
   0.51660887  0.26841343  0.20989832
   0.33302378  0.97590429  0.60764665
   0.62193862  0.69707788  0.86812084
   0.90840347  0.88929670  0.67576132
   0.63592866  0.19383709  0.64518896
   0.18726648  0.62742631  0.11262604
   0.10490868  0.68889968  0.00204868
   0.83850570  0.66609344  0.44140780
   0.54968690  0.60800341  0.79505800
   0.93039700  0.17509000  0.28714083
unknown system                          
           1
     5.293787   -0.568571    0.599473
     0.366075    5.148187    0.914673
     0.092073    0.875088    5.167286
   Sr   Nb   H 
   1   1  13
Direct configuration=    10
   0.06178100  0.30446605  0.74231623
   0.65004604  0.94381298  0.47259742
   0.56691352  0.32794747  0.32465507
   0.41987765  0.69295649  0.43202863
   0.68712396  0.96544462  0.12164833
   0.51691717  0.26670470  0.21021362
   0.33171362  0.97680426  0.60876100
   0.62242349  0.69799384  0.86714621
   0.90919330  0.88995441  0.67628758
   0.63676637  0.19436460  0.64616771
   0.18753882  0.62761431  0.11246832
   0.10468151  0.68875975  0.00198597
   0.83907112  0.66491752  0.44273600
   0.54916157  0.60827270  0.79373708
   0.93032787  0.17529229  0.28658682
unknown system                          
           1
     5.296484   -0.569166    0.601116
     0.365231    5.146944    0.919986
     0.093865    0.879670    5.169519
   Sr   Nb   H 
   1   1  13
Direct configuration=    11
   0.06108466  0.30415055  0.74157864
   0.65029534  0.94379259  0.47336996
   0.56713146  0.32755847  0.32471297
   0.41987904  0.69280891  0.43246086
   0.68727010  0.96573455  0.12139396
   0.51712753  0.26622443  0.21053126
   0.33124688  0.97719213  0.60913857
   0.62239235  0.69815197  0.86638229
   0.90922406  0.89023914  0.67625262
   0.63702819  0.19443833  0.64629498
   0.18758571  0.62775646  0.11228521
   0.10464617  0.68862647  0.00205748
   0.83921081  0.66455489  0.44323220
   0.54911870  0.60866803  0.79340437
   0.93029599  0.17540908  0.28624063
unknown system                          
           1
     5.304573   -0.570952    0.606047
     0.362700    5.143213    0.935924
     0.099241    0.893415    5.176219
   Sr   Nb   H 
   1   1  13
Direct configuration=    12
   0.05899720  0.30320534  0.73936805
   0.65104222  0.94372942  0.47568686
   0.56778473  0.32639088  0.32488775
   0.41988278  0.69236484  0.43375770
   0.68770864  0.96660544  0.12062993
   0.51775783  0.26478218  0.21148540
   0.32984722  0.97835512  0.61027010
   0.62229967  0.69862856  0.86409059
   0.90931647  0.89109380  0.67614677
   0.63781317  0.19465938  0.64667621
   0.18772652  0.62818362  0.11173547
   0.10454009  0.68822624  0.00227242
   0.83962911  0.66346526  0.44472156
   0.54899061  0.60985540  0.79240520
   0.93020074  0.17576051  0.28520197
unknown system                          
           1
     5.304857   -0.570931    0.609106
     0.362546    5.140744    0.940021
     0.102599    0.896859    5.176274
   Sr   Nb   H 
   1   1  13
Direct configuration=    13
   0.05830426  0.30288651  0.73864626
   0.65097762  0.94380003  0.47548434
   0.56801972  0.32595432  0.32467977
   0.42002856  0.69228845  0.43447576
   0.68780952  0.96696694  0.12093648
   0.51812724  0.26438130  0.21204104
   0.32990654  0.97876023  0.61056304
   0.62235956  0.69874462  0.86356566
   0.90923834  0.89129652  0.67610456
   0.63805070  0.19456019  0.64664458
   0.18792059  0.62829485  0.11166062
   0.10437513  0.68808243  0.00226581
   0.83957537  0.66344807  0.44534094
   0.54868570  0.60997864  0.79209933
   0.93015813  0.17586289  0.28482781
unknown system                          
           1
     5.305626   -0.570875    0.617415
     0.362126    5.134037    0.951146
     0.111721    0.906213    5.176422
   Sr   Nb   H 
   1   1  13
Direct configuration=    14
   0.05642361  0.30202140  0.73668756
   0.65080253  0.94399229  0.47493416
   0.56865821  0.32476843  0.32411549
   0.42042331  0.69207941  0.43642621
   0.68808300  0.96794872  0.12176811
   0.51912956  0.26329084  0.21355073
   0.33006718  0.97986053  0.61135768
   0.62252305  0.69906115  0.86213938
   0.90902624  0.89184747  0.67598951
   0.63869579  0.19429079  0.64655851
   0.18844773  0.62859731  0.11145672
   0.10392716  0.68769159  0.00224847
   0.83942846  0.66340005  0.44702351
   0.54785814  0.61031412  0.79126867
   0.93004303  0.17614190  0.28381130
unknown system                          
           1
     5.305601   -0.570423    0.622269
     0.362752    5.132842    0.955885
     0.116834    0.910224    5.177549
   Sr   Nb   H 
   1   1  13
Direct configuration=    15
   0.05582151  0.30176848  0.73605328
   0.65088576  0.94387657  0.47526553
   0.56911175  0.32470122  0.32412112
   0.42053321  0.69193707  0.43730003
   0.68820169  0.96842498  0.12200598
   0.51930466  0.26287481  0.21357736
   0.33040723  0.98027610  0.61158156
   0.62258402  0.69906705  0.86170803
   0.90874943  0.89195061  0.67583428
   0.63885295  0.19405411  0.64632781
   0.18855089  0.62885783  0.11117336
   0.10385096  0.68739454  0.00244655
   0.83928412  0.66353807  0.44763405
   0.54737866  0.61030079  0.79101695
   0.93002014  0.17628376  0.28329012
unknown system                          
           1
     5.305543   -0.569349    0.633801
     0.364239    5.130001    0.967143
     0.128981    0.919753    5.180227
   Sr   Nb   H 
   1   1  13
Direct configuration=    16
   0.05439255  0.30116863  0.73454831
   0.65108281  0.94360087  0.47605287
   0.57018924  0.32454157  0.32413362
   0.42079248  0.69159696  0.43937610
   0.68848301  0.96955638  0.12256975
   0.51972069  0.26188607  0.21364120
   0.33121449  0.98126332  0.61211174
   0.62272979  0.69908199  0.86068308
   0.90809212  0.89219600  0.67546587
   0.63922690  0.19349215  0.64577991
   0.18879648  0.62947759  0.11049932
   0.10366960  0.68668814  0.00291800
   0.83893987  0.66386475  0.44908455
   0.54624010  0.61026956  0.79042004
   0.92996686  0.17662202  0.28205165
