       N       E                     dE             d eps       ncg     rms          rms(c)
DAV:   1     0.300794509349E+03    0.30079E+03   -0.19973E+04  8064   0.862E+02
DAV:   2    -0.445681773882E+02   -0.34536E+03   -0.32552E+03  8160   0.288E+02
DAV:   3    -0.641137641434E+02   -0.19546E+02   -0.19272E+02 13712   0.666E+01
DAV:   4    -0.644527733356E+02   -0.33901E+00   -0.33837E+00 10128   0.607E+00
DAV:   5    -0.644605040239E+02   -0.77307E-02   -0.77292E-02 12384   0.902E-01    0.453E+01
RMM:   6    -0.649703938092E+02   -0.50989E+00   -0.56526E+00  8841   0.887E+00    0.182E+01
RMM:   7    -0.642800163496E+02    0.69038E+00   -0.92939E-01  8676   0.463E+00    0.674E+00
RMM:   8    -0.642299545084E+02    0.50062E-01   -0.19565E-01  8590   0.252E+00    0.382E+00
RMM:   9    -0.642272882929E+02    0.26662E-02   -0.43400E-02  8405   0.104E+00    0.162E+00
RMM:  10    -0.642318779992E+02   -0.45897E-02   -0.11635E-02  7802   0.720E-01    0.701E-01
RMM:  11    -0.642333656207E+02   -0.14876E-02   -0.29422E-03  7569   0.299E-01    0.381E-01
RMM:  12    -0.642337714588E+02   -0.40584E-03   -0.75643E-04  6311   0.183E-01
   1 F= -.64233771E+02 E0= -.64233771E+02  d E =-.642338E+02  mag=    -0.0002
       N       E                     dE             d eps       ncg     rms          rms(c)
DAV:   1    -0.644829436615E+02   -0.24958E+00   -0.34368E+00 10784   0.107E+01    0.569E+00
RMM:   2    -0.643108827999E+02    0.17206E+00   -0.35787E-01  8621   0.284E+00    0.953E-01
RMM:   3    -0.642907478757E+02    0.20135E-01   -0.25707E-02  8625   0.124E+00    0.688E-01
RMM:   4    -0.642866377076E+02    0.41102E-02   -0.10028E-02  8146   0.515E-01    0.770E-01
RMM:   5    -0.642866375833E+02    0.12436E-06   -0.36822E-03  7097   0.415E-01
   2 F= -.64286638E+02 E0= -.64286638E+02  d E =-.528661E-01  mag=    -0.0000
       N       E                     dE             d eps       ncg     rms          rms(c)
DAV:   1    -0.644781021978E+02   -0.19146E+00   -0.32342E+00  8064   0.103E+01    0.549E+00
RMM:   2    -0.643112451438E+02    0.16686E+00   -0.33227E-01  8541   0.276E+00    0.936E-01
RMM:   3    -0.642921296469E+02    0.19115E-01   -0.24775E-02  8614   0.123E+00    0.653E-01
RMM:   4    -0.642885626679E+02    0.35670E-02   -0.10740E-02  8349   0.519E-01    0.757E-01
RMM:   5    -0.642888948412E+02   -0.33217E-03   -0.42207E-03  7218   0.408E-01
   3 F= -.64288895E+02 E0= -.64288895E+02  d E =-.551234E-01  mag=    -0.0000
       N       E                     dE             d eps       ncg     rms          rms(c)
DAV:   1    -0.643808713424E+02   -0.92309E-01   -0.24307E+00  9408   0.885E+00    0.261E+00
RMM:   2    -0.643210597108E+02    0.59812E-01   -0.20915E-01  8888   0.205E+00    0.814E-01
RMM:   3    -0.643141571481E+02    0.69026E-02   -0.11956E-02  8350   0.892E-01    0.571E-01
RMM:   4    -0.643133870117E+02    0.77014E-03   -0.84133E-03  7994   0.408E-01    0.559E-01
RMM:   5    -0.643137664114E+02   -0.37940E-03   -0.15236E-03  6882   0.287E-01
   4 F= -.64313766E+02 E0= -.64313766E+02  d E =-.248716E-01  mag=    -0.0000
       N       E                     dE             d eps       ncg     rms          rms(c)
DAV:   1    -0.643498146236E+02   -0.36428E-01   -0.11436E+00 10896   0.607E+00    0.177E+00
RMM:   2    -0.643215089043E+02    0.28306E-01   -0.98744E-02  8870   0.141E+00    0.569E-01
RMM:   3    -0.643183139388E+02    0.31950E-02   -0.55099E-03  8003   0.615E-01    0.425E-01
RMM:   4    -0.643179014858E+02    0.41245E-03   -0.37354E-03  7283   0.279E-01
   5 F= -.64317901E+02 E0= -.64317901E+02  d E =-.290066E-01  mag=    -0.0000
       N       E                     dE             d eps       ncg     rms          rms(c)
DAV:   1    -0.643356449365E+02   -0.17331E-01   -0.25581E+00  9600   0.105E+01    0.101E+00
RMM:   2    -0.643474084056E+02   -0.11763E-01   -0.22745E-01  8160   0.187E+00    0.594E-01
RMM:   3    -0.643421791477E+02    0.52293E-02   -0.14505E-02  7720   0.127E+00    0.497E-01
RMM:   4    -0.643421007891E+02    0.78359E-04   -0.32644E-03  7670   0.258E-01
   6 F= -.64342101E+02 E0= -.64342101E+02  d E =-.241993E-01  mag=    -0.0000
       N       E                     dE             d eps       ncg     rms          rms(c)
DAV:   1    -0.643421467127E+02    0.32435E-04   -0.12476E-02 12000   0.745E-01    0.147E-01
RMM:   2    -0.643422126760E+02   -0.65963E-04   -0.97416E-04  5317   0.133E-01
   7 F= -.64342213E+02 E0= -.64342213E+02  d E =-.243112E-01  mag=    -0.0000
       N       E                     dE             d eps       ncg     rms          rms(c)
DAV:   1    -0.643525562423E+02   -0.10410E-01   -0.64282E-01  9536   0.498E+00    0.104E+00
RMM:   2    -0.643522093578E+02    0.34688E-03   -0.50554E-02  8562   0.956E-01    0.715E-01
RMM:   3    -0.643505257986E+02    0.16836E-02   -0.63240E-03  8116   0.768E-01    0.340E-01
RMM:   4    -0.643505695076E+02   -0.43709E-04   -0.82270E-04  6056   0.152E-01
   8 F= -.64350570E+02 E0= -.64350570E+02  d E =-.835683E-02  mag=    -0.0000
       N       E                     dE             d eps       ncg     rms          rms(c)
DAV:   1    -0.643514461142E+02   -0.92032E-03   -0.71885E-02 12032   0.171E+00    0.245E-01
RMM:   2    -0.643513456246E+02    0.10049E-03   -0.59384E-03  8123   0.323E-01
   9 F= -.64351346E+02 E0= -.64351346E+02  d E =-.913295E-02  mag=    -0.0000
       N       E                     dE             d eps       ncg     rms          rms(c)
DAV:   1    -0.643646173972E+02   -0.13171E-01   -0.54287E-01  9440   0.370E+00    0.487E-01
RMM:   2    -0.643610013178E+02    0.36161E-02   -0.26358E-02  8159   0.686E-01    0.300E-01
RMM:   3    -0.643591429322E+02    0.18584E-02   -0.30085E-03  7568   0.544E-01    0.145E-01
RMM:   4    -0.643589234646E+02    0.21947E-03   -0.12017E-03  6355   0.157E-01
  10 F= -.64358923E+02 E0= -.64358923E+02  d E =-.757784E-02  mag=    -0.0000
       N       E                     dE             d eps       ncg     rms          rms(c)
DAV:   1    -0.643638023945E+02   -0.46595E-02   -0.30391E-01 11584   0.278E+00    0.340E-01
RMM:   2    -0.643621254692E+02    0.16769E-02   -0.14830E-02  8176   0.515E-01    0.211E-01
RMM:   3    -0.643611553258E+02    0.97014E-03   -0.14798E-03  6697   0.395E-01    0.119E-01
RMM:   4    -0.643610554823E+02    0.99843E-04   -0.73713E-04  5368   0.122E-01
  11 F= -.64361055E+02 E0= -.64361055E+02  d E =-.970986E-02  mag=     0.0000
       N       E                     dE             d eps       ncg     rms          rms(c)
DAV:   1    -0.643741307364E+02   -0.12975E-01   -0.85110E-01  9440   0.586E+00    0.119E+00
RMM:   2    -0.643700047263E+02    0.41260E-02   -0.70869E-02  8861   0.116E+00    0.363E-01
RMM:   3    -0.643681142485E+02    0.18905E-02   -0.42511E-03  7405   0.634E-01    0.239E-01
RMM:   4    -0.643679594934E+02    0.15476E-03   -0.13259E-03  6467   0.184E-01
  12 F= -.64367959E+02 E0= -.64367959E+02  d E =-.690401E-02  mag=     0.0000
       N       E                     dE             d eps       ncg     rms          rms(c)
DAV:   1    -0.643698533242E+02   -0.17391E-02   -0.24780E-01 11680   0.320E+00    0.580E-01
RMM:   2    -0.643686373414E+02    0.12160E-02   -0.20784E-02  8714   0.623E-01    0.196E-01
RMM:   3    -0.643680910312E+02    0.54631E-03   -0.11711E-03  6325   0.351E-01
  13 F= -.64368091E+02 E0= -.64368091E+02  d E =-.703555E-02  mag=     0.0000
