 running on   32 total cores
 distrk:  each k-point on   32 cores,    1 groups
 distr:  one band on    8 cores,    4 groups
 using from now: INCAR     
 vasp.5.4.4.18Apr17-6-g9f103f2a35 (build Nov 01 2019 12:17:22) complex          
  
 POSCAR found type information on POSCAR  H  Sr H  Sr H  Nb H  Nb H  Sr
 POSCAR found : 10 types and      24 ions

 ----------------------------------------------------------------------------- 
|                                                                             |
|  ADVICE TO THIS USER RUNNING 'VASP/VAMP'   (HEAR YOUR MASTER'S VOICE ...):  |
|                                                                             |
|      You have a (more or less) 'large supercell' and for larger cells       |
|      it might be more efficient to use real space projection opertators     |
|      So try LREAL= Auto  in the INCAR   file.                               |
|      Mind:          For very  accurate calculation you might also keep the  |
|      reciprocal projection scheme          (i.e. LREAL=.FALSE.)             |
|                                                                             |
 ----------------------------------------------------------------------------- 

 LDA part: xc-table for Pade appr. of Perdew
 generate k-points for:    7    7    6
 POSCAR, INCAR and KPOINTS ok, starting setup
 FFT: planning ...
 WAVECAR not read
 entering main loop
       N       E                     dE             d eps       ncg     rms          rms(c)
DAV:   1     0.380653992203E+03    0.38065E+03   -0.25388E+04 17184   0.770E+02
DAV:   2    -0.669448504934E+02   -0.44760E+03   -0.42796E+03 22104   0.317E+02
DAV:   3    -0.992759615254E+02   -0.32331E+02   -0.32111E+02 23936   0.695E+01
DAV:   4    -0.101837529678E+03   -0.25616E+01   -0.25557E+01 30448   0.183E+01
DAV:   5    -0.101905881876E+03   -0.68352E-01   -0.68342E-01 24800   0.287E+00    0.581E+01
DAV:   6    -0.958497135299E+02    0.60562E+01   -0.12838E+01 23680   0.177E+01    0.253E+01
DAV:   7    -0.947103914105E+02    0.11393E+01   -0.36601E+00 21336   0.698E+00    0.131E+01
DAV:   8    -0.947093104342E+02    0.10810E-02   -0.12448E+00 27040   0.405E+00    0.420E+00
DAV:   9    -0.947064942985E+02    0.28161E-02   -0.86575E-02 23864   0.947E-01    0.254E+00
DAV:  10    -0.946915605738E+02    0.14934E-01   -0.63206E-02 21144   0.990E-01    0.376E-01
DAV:  11    -0.946918080978E+02   -0.24752E-03   -0.77455E-03 26680   0.378E-01    0.110E-01
DAV:  12    -0.946920374453E+02   -0.22935E-03   -0.80478E-04 20664   0.106E-01    0.874E-02
DAV:  13    -0.946920897965E+02   -0.52351E-04   -0.68742E-05 13088   0.411E-02
   1 F= -.94692090E+02 E0= -.94692578E+02  d E =-.946921E+02
 curvature:   0.00 expect dE= 0.000E+00 dE for cont linesearch  0.000E+00
 trial: gam= 0.00000 g(F)=  0.943E-03 g(S)=  0.740E-03 ort = 0.000E+00 (trialstep = 0.100E+01)
 search vector abs. value=  0.168E-02
 bond charge predicted
       N       E                     dE             d eps       ncg     rms          rms(c)
DAV:   1    -0.946924449895E+02   -0.40754E-03   -0.11029E-01 19936   0.187E+00    0.352E-01
DAV:   2    -0.946931673024E+02   -0.72231E-03   -0.16621E-02 18944   0.522E-01    0.140E-01
DAV:   3    -0.946929779327E+02    0.18937E-03   -0.56868E-04 21496   0.121E-01    0.775E-02
DAV:   4    -0.946929257009E+02    0.52232E-04   -0.15836E-04 12656   0.657E-02
   2 F= -.94692926E+02 E0= -.94693395E+02  d E =-.835904E-03
 trial-energy change:   -0.000836  1 .order   -0.000911   -0.001683   -0.000138
 step:   1.0890(harm=  1.0890)  dis= 0.00348  next Energy=   -94.693006 (dE=-0.917E-03)
 bond charge predicted
       N       E                     dE             d eps       ncg     rms          rms(c)
DAV:   1    -0.946929299236E+02    0.48009E-04   -0.92571E-04 20072   0.184E-01    0.629E-02
DAV:   2    -0.946929259312E+02    0.39923E-05   -0.13055E-04 14184   0.489E-02
   3 F= -.94692926E+02 E0= -.94693393E+02  d E =-.836135E-03
 curvature:  -0.54 expect dE=-0.559E-03 dE for cont linesearch -0.442E-06
 trial: gam= 0.63210 g(F)=  0.779E-03 g(S)=  0.248E-03 ort =-0.370E-04 (trialstep = 0.102E+01)
 search vector abs. value=  0.165E-02
 reached required accuracy - stopping structural energy minimisation
