       N       E                     dE             d eps       ncg     rms          rms(c)
DAV:   1     0.206628166910E+03    0.20663E+03   -0.14566E+04 15120   0.699E+02
DAV:   2    -0.159648330763E+02   -0.22259E+03   -0.21207E+03 16792   0.282E+02
DAV:   3    -0.331639563575E+02   -0.17199E+02   -0.16920E+02 20880   0.594E+01
DAV:   4    -0.344276551285E+02   -0.12637E+01   -0.12561E+01 22640   0.154E+01
DAV:   5    -0.344453823595E+02   -0.17727E-01   -0.17724E-01 20344   0.186E+00    0.852E+01
DAV:   6    -0.306019169608E+02    0.38435E+01   -0.44839E+01 21584   0.346E+01    0.427E+01
DAV:   7    -0.311465066411E+02   -0.54459E+00   -0.44967E+01 21352   0.325E+01    0.234E+01
DAV:   8    -0.283755959715E+02    0.27709E+01   -0.19050E+01 22480   0.268E+01    0.552E+00
DAV:   9    -0.283819549193E+02   -0.63589E-02   -0.60541E-01 17048   0.414E+00    0.247E+00
DAV:  10    -0.283762020802E+02    0.57528E-02   -0.12007E-01 20520   0.231E+00    0.994E-01
DAV:  11    -0.283767665404E+02   -0.56446E-03   -0.20602E-02 19632   0.711E-01    0.459E-01
DAV:  12    -0.283779418665E+02   -0.11753E-02   -0.21570E-03 18008   0.298E-01    0.177E-01
DAV:  13    -0.283783604715E+02   -0.41860E-03   -0.52801E-04 15488   0.116E-01    0.674E-02
DAV:  14    -0.283784193089E+02   -0.58837E-04   -0.15127E-04 11696   0.805E-02
   1 F= -.28378419E+02 E0= -.28378380E+02  d E =-.283784E+02
       N       E                     dE             d eps       ncg     rms          rms(c)
DAV:   1    -0.884351915312E+01    0.19535E+02   -0.41705E+03 14064   0.304E+02    0.531E+01
DAV:   2    -0.440410915762E+02   -0.35198E+02   -0.46915E+02 17584   0.104E+02    0.430E+01
DAV:   3    -0.385736098675E+02    0.54675E+01   -0.61477E+01 21944   0.347E+01    0.216E+01
DAV:   4    -0.364663673170E+02    0.21072E+01   -0.83531E+00 19040   0.145E+01    0.181E+01
DAV:   5    -0.359259335455E+02    0.54043E+00   -0.72747E+00 22848   0.803E+00    0.144E+01
DAV:   6    -0.356484011385E+02    0.27753E+00   -0.62082E+00 19520   0.903E+00    0.730E+00
DAV:   7    -0.355721490008E+02    0.76252E-01   -0.18140E+00 19968   0.452E+00    0.919E-01
DAV:   8    -0.355903033178E+02   -0.18154E-01   -0.89302E-02 20088   0.145E+00    0.713E-01
DAV:   9    -0.355961906894E+02   -0.58874E-02   -0.10449E-02 17440   0.497E-01    0.232E-01
DAV:  10    -0.355967926977E+02   -0.60201E-03   -0.17217E-03 18200   0.185E-01    0.132E-01
DAV:  11    -0.355968803100E+02   -0.87612E-04   -0.38378E-04 15200   0.867E-02
   2 F= -.35596880E+02 E0= -.35596496E+02  d E =-.721846E+01
       N       E                     dE             d eps       ncg     rms          rms(c)
DAV:   1    -0.356025020659E+02   -0.57094E-02   -0.15626E+00 13600   0.824E+00    0.927E-01
DAV:   2    -0.356244161596E+02   -0.21914E-01   -0.30072E-01 16008   0.255E+00    0.864E-01
DAV:   3    -0.356186000285E+02    0.58161E-02   -0.56532E-02 18600   0.821E-01    0.433E-01
DAV:   4    -0.356179234897E+02    0.67654E-03   -0.51480E-03 18408   0.279E-01    0.269E-01
DAV:   5    -0.356177686401E+02    0.15485E-03   -0.14142E-03 21040   0.170E-01    0.959E-02
DAV:   6    -0.356177778594E+02   -0.92193E-05   -0.15635E-04 12576   0.635E-02
   3 F= -.35617778E+02 E0= -.35617326E+02  d E =-.723936E+01
       N       E                     dE             d eps       ncg     rms          rms(c)
DAV:   1    -0.325239675575E+02    0.30938E+01   -0.11568E+03 13568   0.188E+02    0.399E+01
DAV:   2    -0.412246118348E+02   -0.87006E+01   -0.12463E+02 16600   0.527E+01    0.254E+01
DAV:   3    -0.419690593597E+02   -0.74445E+00   -0.40122E+01 25456   0.178E+01    0.201E+01
DAV:   4    -0.402726780851E+02    0.16964E+01   -0.89277E+00 19328   0.830E+00    0.137E+01
DAV:   5    -0.401211132569E+02    0.15156E+00   -0.12224E+00 18000   0.505E+00    0.348E+00
DAV:   6    -0.401160064951E+02    0.51068E-02   -0.23784E-01 22056   0.169E+00    0.170E+00
DAV:   7    -0.401149156940E+02    0.10908E-02   -0.48620E-02 18520   0.924E-01    0.381E-01
DAV:   8    -0.401137150149E+02    0.12007E-02   -0.14507E-02 19288   0.358E-01    0.149E-01
DAV:   9    -0.401136741954E+02    0.40820E-04   -0.10829E-03 16952   0.118E-01    0.602E-02
DAV:  10    -0.401137036679E+02   -0.29473E-04   -0.98022E-05 11696   0.460E-02
   4 F= -.40113704E+02 E0= -.40113180E+02  d E =-.449593E+01
       N       E                     dE             d eps       ncg     rms          rms(c)
DAV:   1    -0.401113686210E+02    0.23056E-02   -0.60687E+01 13568   0.412E+01    0.567E+00
DAV:   2    -0.402859590978E+02   -0.17459E+00   -0.33452E+00 16808   0.999E+00    0.243E+00
DAV:   3    -0.403198473707E+02   -0.33888E-01   -0.89415E-01 22008   0.282E+00    0.228E+00
DAV:   4    -0.402543106439E+02    0.65537E-01   -0.56297E-01 19104   0.181E+00    0.862E-01
DAV:   5    -0.402540974819E+02    0.21316E-03   -0.26339E-02 21944   0.635E-01    0.334E-01
DAV:   6    -0.402547934630E+02   -0.69598E-03   -0.31842E-03 22256   0.206E-01    0.150E-01
DAV:   7    -0.402549956812E+02   -0.20222E-03   -0.44107E-04 15152   0.817E-02    0.413E-02
DAV:   8    -0.402550118377E+02   -0.16156E-04   -0.63026E-05 11216   0.419E-02
   5 F= -.40255012E+02 E0= -.40254014E+02  d E =-.463723E+01
       N       E                     dE             d eps       ncg     rms          rms(c)
DAV:   1    -0.423125987962E+02   -0.20576E+01   -0.14004E+02 13568   0.686E+01    0.977E+00
DAV:   2    -0.438331916252E+02   -0.15206E+01   -0.28745E+01 18624   0.208E+01    0.114E+01
DAV:   3    -0.420829194590E+02    0.17503E+01   -0.13958E+01 19992   0.105E+01    0.339E+00
DAV:   4    -0.420034309406E+02    0.79489E-01   -0.69375E-01 21824   0.334E+00    0.215E+00
DAV:   5    -0.420006302478E+02    0.28007E-02   -0.77994E-02 19528   0.122E+00    0.970E-01
DAV:   6    -0.420032214276E+02   -0.25912E-02   -0.23059E-02 24888   0.489E-01    0.412E-01
DAV:   7    -0.420038099710E+02   -0.58854E-03   -0.18190E-03 17936   0.186E-01    0.129E-01
DAV:   8    -0.420038023308E+02    0.76402E-05   -0.29376E-04 13072   0.714E-02
   6 F= -.42003802E+02 E0= -.42003190E+02  d E =-.174879E+01
       N       E                     dE             d eps       ncg     rms          rms(c)
DAV:   1    -0.422168834845E+02   -0.21307E+00   -0.10414E+01 13568   0.188E+01    0.289E+00
DAV:   2    -0.423820060291E+02   -0.16512E+00   -0.28516E+00 18632   0.624E+00    0.383E+00
DAV:   3    -0.421886559626E+02    0.19335E+00   -0.13765E+00 19136   0.312E+00    0.918E-01
DAV:   4    -0.421833725638E+02    0.52834E-02   -0.50941E-02 19448   0.906E-01    0.519E-01
DAV:   5    -0.421836253286E+02   -0.25276E-03   -0.59940E-03 23184   0.328E-01    0.279E-01
DAV:   6    -0.421838802758E+02   -0.25495E-03   -0.11305E-03 20704   0.118E-01    0.941E-02
DAV:   7    -0.421839188471E+02   -0.38571E-04   -0.19587E-04 12120   0.592E-02
   7 F= -.42183919E+02 E0= -.42183328E+02  d E =-.192891E+01
       N       E                     dE             d eps       ncg     rms          rms(c)
DAV:   1    -0.425905567730E+02   -0.40668E+00   -0.41217E+01 13568   0.375E+01    0.661E+00
DAV:   2    -0.433524495493E+02   -0.76189E+00   -0.13796E+01 18656   0.128E+01    0.787E+00
DAV:   3    -0.424414761110E+02    0.91097E+00   -0.69380E+00 20000   0.720E+00    0.184E+00
DAV:   4    -0.424187205085E+02    0.22756E-01   -0.23193E-01 21472   0.187E+00    0.106E+00
DAV:   5    -0.424188224257E+02   -0.10192E-03   -0.26113E-02 20848   0.699E-01    0.572E-01
DAV:   6    -0.424199958887E+02   -0.11735E-02   -0.65410E-03 25552   0.274E-01    0.247E-01
DAV:   7    -0.424202266575E+02   -0.23077E-03   -0.10707E-03 17456   0.121E-01    0.768E-02
DAV:   8    -0.424202338149E+02   -0.71574E-05   -0.11783E-04 11048   0.442E-02
   8 F= -.42420234E+02 E0= -.42419510E+02  d E =-.216522E+01
       N       E                     dE             d eps       ncg     rms          rms(c)
DAV:   1    -0.479148993184E+02   -0.54947E+01   -0.15206E+02 13568   0.709E+01    0.167E+01
DAV:   2    -0.480662339784E+02   -0.15133E+00   -0.47582E+01 18656   0.295E+01    0.137E+01
DAV:   3    -0.450593849541E+02    0.30068E+01   -0.26384E+01 20304   0.179E+01    0.492E+00
DAV:   4    -0.447388838332E+02    0.32050E+00   -0.17218E+00 22000   0.593E+00    0.277E+00
DAV:   5    -0.447338498948E+02    0.50339E-02   -0.23710E-01 26328   0.181E+00    0.173E+00
DAV:   6    -0.447505414220E+02   -0.16692E-01   -0.43114E-02 25656   0.813E-01    0.108E+00
DAV:   7    -0.447603012438E+02   -0.97598E-02   -0.23193E-02 25880   0.556E-01    0.212E-01
DAV:   8    -0.447606277122E+02   -0.32647E-03   -0.18176E-03 21960   0.200E-01    0.922E-02
DAV:   9    -0.447606566830E+02   -0.28971E-04   -0.24986E-04 14624   0.748E-02
   9 F= -.44760657E+02 E0= -.44760209E+02  d E =-.234042E+01
       N       E                     dE             d eps       ncg     rms          rms(c)
DAV:   1    -0.470545233506E+02   -0.22939E+01   -0.10641E+02 13568   0.620E+01    0.145E+01
DAV:   2    -0.469548714374E+02    0.99652E-01   -0.33147E+01 18672   0.264E+01    0.110E+01
DAV:   3    -0.450883743950E+02    0.18665E+01   -0.15296E+01 20344   0.144E+01    0.429E+00
DAV:   4    -0.448483667918E+02    0.24001E+00   -0.11012E+00 21976   0.519E+00    0.260E+00
DAV:   5    -0.448547043338E+02   -0.63375E-02   -0.15329E-01 23800   0.142E+00    0.173E+00
DAV:   6    -0.448683856014E+02   -0.13681E-01   -0.38482E-02 25824   0.802E-01    0.786E-01
DAV:   7    -0.448729878925E+02   -0.46023E-02   -0.11783E-02 26576   0.440E-01    0.182E-01
DAV:   8    -0.448731809827E+02   -0.19309E-03   -0.11716E-03 20840   0.171E-01    0.789E-02
DAV:   9    -0.448731921350E+02   -0.11152E-04   -0.15102E-04 13648   0.574E-02
  10 F= -.44873192E+02 E0= -.44872848E+02  d E =-.245296E+01
       N       E                     dE             d eps       ncg     rms          rms(c)
DAV:   1    -0.461141365732E+02   -0.12410E+01   -0.42251E+01 13592   0.398E+01    0.859E+00
DAV:   2    -0.467847844690E+02   -0.67065E+00   -0.25451E+01 19240   0.195E+01    0.977E+00
DAV:   3    -0.452572647323E+02    0.15275E+01   -0.58399E+00 19800   0.810E+00    0.276E+00
DAV:   4    -0.451848642844E+02    0.72400E-01   -0.26576E-01 19224   0.223E+00    0.249E+00
DAV:   5    -0.451751674486E+02    0.96968E-02   -0.10059E-01 23448   0.128E+00    0.168E+00
DAV:   6    -0.451773350636E+02   -0.21676E-02   -0.21555E-02 23776   0.485E-01    0.641E-01
DAV:   7    -0.451776856863E+02   -0.35062E-03   -0.16657E-02 26008   0.510E-01    0.180E-01
DAV:   8    -0.451779520699E+02   -0.26638E-03   -0.15316E-03 19288   0.149E-01    0.120E-01
DAV:   9    -0.451779861527E+02   -0.34083E-04   -0.94455E-05 11784   0.541E-02
  11 F= -.45177986E+02 E0= -.45177530E+02  d E =-.275775E+01
       N       E                     dE             d eps       ncg     rms          rms(c)
DAV:   1    -0.454598907555E+02   -0.28194E+00   -0.96428E+00 13576   0.188E+01    0.414E+00
DAV:   2    -0.455299369488E+02   -0.70046E-01   -0.42870E+00 18656   0.853E+00    0.405E+00
DAV:   3    -0.452738069915E+02    0.25613E+00   -0.17406E+00 19880   0.430E+00    0.128E+00
DAV:   4    -0.452529557695E+02    0.20851E-01   -0.78276E-02 21968   0.140E+00    0.948E-01
DAV:   5    -0.452544018673E+02   -0.14461E-02   -0.11578E-02 22856   0.355E-01    0.562E-01
DAV:   6    -0.452551067735E+02   -0.70491E-03   -0.58082E-03 26248   0.324E-01    0.144E-01
DAV:   7    -0.452553331038E+02   -0.22633E-03   -0.79184E-04 23216   0.120E-01    0.742E-02
DAV:   8    -0.452553964280E+02   -0.63324E-04   -0.10404E-04 11400   0.493E-02
  12 F= -.45255396E+02 E0= -.45254955E+02  d E =-.283516E+01
       N       E                     dE             d eps       ncg     rms          rms(c)
DAV:   1    -0.452844591454E+02   -0.29126E-01   -0.88454E-01 13576   0.573E+00    0.124E+00
DAV:   2    -0.452936895494E+02   -0.92304E-02   -0.44566E-01 18664   0.268E+00    0.130E+00
DAV:   3    -0.452670485438E+02    0.26641E-01   -0.14750E-01 19264   0.126E+00    0.388E-01
DAV:   4    -0.452653010626E+02    0.17475E-02   -0.58597E-03 21480   0.377E-01    0.322E-01
DAV:   5    -0.452653781442E+02   -0.77082E-04   -0.12187E-03 20024   0.123E-01    0.172E-01
DAV:   6    -0.452653783910E+02   -0.24682E-06   -0.63676E-04 21416   0.937E-02
  13 F= -.45265378E+02 E0= -.45264925E+02  d E =-.284514E+01
       N       E                     dE             d eps       ncg     rms          rms(c)
DAV:   1    -0.462170380353E+02   -0.95166E+00   -0.96252E+01 13568   0.640E+01    0.914E+00
DAV:   2    -0.470290253236E+02   -0.81199E+00   -0.18047E+01 18432   0.199E+01    0.661E+00
DAV:   3    -0.465100264691E+02    0.51900E+00   -0.37687E+00 20256   0.740E+00    0.233E+00
DAV:   4    -0.464427452046E+02    0.67281E-01   -0.35606E-01 22256   0.307E+00    0.171E+00
DAV:   5    -0.464392032481E+02    0.35420E-02   -0.49072E-02 25224   0.830E-01    0.111E+00
DAV:   6    -0.464423717617E+02   -0.31685E-02   -0.14470E-02 24440   0.497E-01    0.512E-01
DAV:   7    -0.464435656334E+02   -0.11939E-02   -0.36288E-03 26848   0.269E-01    0.114E-01
DAV:   8    -0.464435680121E+02   -0.23787E-05   -0.22809E-04 13624   0.758E-02
  14 F= -.46443568E+02 E0= -.46443572E+02  d E =-.117819E+01
       N       E                     dE             d eps       ncg     rms          rms(c)
DAV:   1    -0.466584193039E+02   -0.21485E+00   -0.33355E+02 13568   0.121E+02    0.179E+01
DAV:   2    -0.489065112360E+02   -0.22481E+01   -0.52671E+01 17528   0.371E+01    0.119E+01
DAV:   3    -0.474175743973E+02    0.14889E+01   -0.96952E+00 22168   0.145E+01    0.449E+00
DAV:   4    -0.472331690121E+02    0.18441E+00   -0.95986E-01 23104   0.529E+00    0.272E+00
DAV:   5    -0.472180182688E+02    0.15151E-01   -0.17019E-01 25920   0.157E+00    0.178E+00
DAV:   6    -0.472305582401E+02   -0.12540E-01   -0.34784E-02 23456   0.807E-01    0.901E-01
DAV:   7    -0.472346814126E+02   -0.41232E-02   -0.14848E-02 26856   0.472E-01    0.208E-01
DAV:   8    -0.472346938865E+02   -0.12474E-04   -0.73880E-04 16712   0.139E-01
  15 F= -.47234694E+02 E0= -.47234812E+02  d E =-.196932E+01
       N       E                     dE             d eps       ncg     rms          rms(c)
DAV:   1    -0.476183512610E+02   -0.38367E+00   -0.28119E+01 13568   0.365E+01    0.433E+00
DAV:   2    -0.478028839618E+02   -0.18453E+00   -0.43200E+00 16688   0.108E+01    0.267E+00
DAV:   3    -0.477153608215E+02    0.87523E-01   -0.56031E-01 19904   0.334E+00    0.118E+00
DAV:   4    -0.476984788039E+02    0.16882E-01   -0.74443E-02 23120   0.150E+00    0.784E-01
DAV:   5    -0.476982156530E+02    0.26315E-03   -0.93404E-03 22944   0.380E-01    0.510E-01
DAV:   6    -0.476990193213E+02   -0.80367E-03   -0.35482E-03 26376   0.242E-01    0.143E-01
DAV:   7    -0.476991290378E+02   -0.10972E-03   -0.40281E-04 17424   0.108E-01    0.531E-02
DAV:   8    -0.476991395388E+02   -0.10501E-04   -0.74862E-05 11224   0.490E-02
  16 F= -.47699140E+02 E0= -.47699375E+02  d E =-.464446E+00
       N       E                     dE             d eps       ncg     rms          rms(c)
DAV:   1    -0.478028975518E+02   -0.10377E+00   -0.28318E+01 13568   0.369E+01    0.440E+00
DAV:   2    -0.479768399944E+02   -0.17394E+00   -0.42252E+00 16640   0.108E+01    0.254E+00
DAV:   3    -0.478998825818E+02    0.76957E-01   -0.50592E-01 20392   0.330E+00    0.117E+00
DAV:   4    -0.478830279719E+02    0.16855E-01   -0.75808E-02 23208   0.154E+00    0.773E-01
DAV:   5    -0.478829485496E+02    0.79422E-04   -0.93871E-03 22576   0.387E-01    0.502E-01
DAV:   6    -0.478838064823E+02   -0.85793E-03   -0.36345E-03 26736   0.248E-01    0.138E-01
DAV:   7    -0.478839098037E+02   -0.10332E-03   -0.37639E-04 16896   0.107E-01    0.535E-02
DAV:   8    -0.478839215443E+02   -0.11741E-04   -0.75473E-05 11296   0.494E-02
  17 F= -.47883922E+02 E0= -.47884134E+02  d E =-.649228E+00
       N       E                     dE             d eps       ncg     rms          rms(c)
DAV:   1    -0.481388491211E+02   -0.25494E+00   -0.11882E+01 15264   0.253E+01    0.165E+00
DAV:   2    -0.482721672000E+02   -0.13332E+00   -0.14538E+00 13840   0.566E+00    0.753E-01
DAV:   3    -0.482711508891E+02    0.10163E-02   -0.32777E-02 22360   0.886E-01    0.472E-01
DAV:   4    -0.482706914382E+02    0.45945E-03   -0.77472E-03 21664   0.488E-01    0.228E-01
DAV:   5    -0.482704465771E+02    0.24486E-03   -0.29689E-03 20176   0.238E-01    0.113E-01
DAV:   6    -0.482704441907E+02    0.23864E-05   -0.28470E-04 13256   0.102E-01
  18 F= -.48270444E+02 E0= -.48270597E+02  d E =-.386523E+00
       N       E                     dE             d eps       ncg     rms          rms(c)
DAV:   1    -0.477556612969E+02    0.51479E+00   -0.11131E+02 15264   0.762E+01    0.564E+00
DAV:   2    -0.489258849228E+02   -0.11702E+01   -0.12566E+01 13912   0.168E+01    0.228E+00
DAV:   3    -0.489102547994E+02    0.15630E-01   -0.26457E-01 20160   0.267E+00    0.140E+00
DAV:   4    -0.489079995085E+02    0.22553E-02   -0.69574E-02 21584   0.148E+00    0.610E-01
DAV:   5    -0.489064557560E+02    0.15438E-02   -0.20179E-02 20216   0.650E-01    0.345E-01
DAV:   6    -0.489065003000E+02   -0.44544E-04   -0.26160E-03 19408   0.291E-01    0.118E-01
DAV:   7    -0.489065280232E+02   -0.27723E-04   -0.33412E-04 15176   0.979E-02
  19 F= -.48906528E+02 E0= -.48906650E+02  d E =-.102261E+01
       N       E                     dE             d eps       ncg     rms          rms(c)
DAV:   1    -0.488812975366E+02    0.25203E-01   -0.29829E+00 15264   0.128E+01    0.819E-01
DAV:   2    -0.489161178261E+02   -0.34820E-01   -0.38130E-01 14696   0.290E+00    0.478E-01
DAV:   3    -0.489159684434E+02    0.14938E-03   -0.80526E-03 22184   0.429E-01    0.287E-01
DAV:   4    -0.489158162537E+02    0.15219E-03   -0.21471E-03 19464   0.262E-01    0.109E-01
DAV:   5    -0.489158011343E+02    0.15119E-04   -0.60250E-04 18168   0.117E-01
  20 F= -.48915801E+02 E0= -.48915945E+02  d E =-.103188E+01
       N       E                     dE             d eps       ncg     rms          rms(c)
DAV:   1    -0.492050194490E+02   -0.28920E+00   -0.17901E+01 15264   0.296E+01    0.198E+00
DAV:   2    -0.493247270113E+02   -0.11971E+00   -0.16839E+00 15936   0.717E+00    0.111E+00
DAV:   3    -0.493189680673E+02    0.57589E-02   -0.72141E-02 21992   0.132E+00    0.728E-01
DAV:   4    -0.493165542861E+02    0.24138E-02   -0.12557E-02 20056   0.573E-01    0.433E-01
DAV:   5    -0.493160565285E+02    0.49776E-03   -0.39919E-03 22016   0.350E-01    0.149E-01
DAV:   6    -0.493161177871E+02   -0.61259E-04   -0.47711E-04 17648   0.129E-01
  21 F= -.49316118E+02 E0= -.49316289E+02  d E =-.400317E+00
       N       E                     dE             d eps       ncg     rms          rms(c)
DAV:   1    -0.489893331946E+02    0.32672E+00   -0.16191E+02 13568   0.886E+01    0.575E+00
DAV:   2    -0.501882671071E+02   -0.11989E+01   -0.15989E+01 16088   0.228E+01    0.345E+00
DAV:   3    -0.501434140427E+02    0.44853E-01   -0.64245E-01 22760   0.422E+00    0.236E+00
DAV:   4    -0.501214939523E+02    0.21920E-01   -0.96332E-02 20200   0.147E+00    0.137E+00
DAV:   5    -0.501132221292E+02    0.82718E-02   -0.46662E-02 22096   0.124E+00    0.559E-01
DAV:   6    -0.501138356508E+02   -0.61352E-03   -0.57934E-03 20984   0.415E-01    0.221E-01
DAV:   7    -0.501140343199E+02   -0.19867E-03   -0.54471E-04 18568   0.126E-01    0.628E-02
DAV:   8    -0.501140457098E+02   -0.11390E-04   -0.79487E-05 11424   0.651E-02
  22 F= -.50114046E+02 E0= -.50114296E+02  d E =-.119824E+01
       N       E                     dE             d eps       ncg     rms          rms(c)
DAV:   1    -0.439978210981E+02    0.61162E+01   -0.67407E+02 13568   0.176E+02    0.122E+01
DAV:   2    -0.490247214502E+02   -0.50269E+01   -0.65129E+01 16160   0.457E+01    0.722E+00
DAV:   3    -0.489067498398E+02    0.11797E+00   -0.33768E+00 24088   0.917E+00    0.458E+00
DAV:   4    -0.488096979035E+02    0.97052E-01   -0.56097E-01 19632   0.306E+00    0.235E+00
DAV:   5    -0.487866580487E+02    0.23040E-01   -0.15859E-01 23576   0.210E+00    0.130E+00
DAV:   6    -0.487882833101E+02   -0.16253E-02   -0.21944E-02 20968   0.722E-01    0.518E-01
DAV:   7    -0.487895042061E+02   -0.12209E-02   -0.28907E-03 20728   0.261E-01    0.119E-01
DAV:   8    -0.487895740511E+02   -0.69845E-04   -0.36985E-04 16552   0.108E-01
  23 F= -.48789574E+02 E0= -.48789318E+02  d E =0.126227E+00
       N       E                     dE             d eps       ncg     rms          rms(c)
DAV:   1    -0.475315043525E+02    0.12580E+01   -0.44369E+02 13576   0.142E+02    0.127E+01
DAV:   2    -0.504591017946E+02   -0.29276E+01   -0.39284E+01 15448   0.334E+01    0.697E+00
DAV:   3    -0.502482693997E+02    0.21083E+00   -0.23700E+00 22296   0.754E+00    0.372E+00
DAV:   4    -0.502190480154E+02    0.29221E-01   -0.29990E-01 20224   0.298E+00    0.241E+00
DAV:   5    -0.502096614464E+02    0.93866E-02   -0.10436E-01 23296   0.138E+00    0.775E-01
DAV:   6    -0.502123973549E+02   -0.27359E-02   -0.14024E-02 20552   0.590E-01    0.423E-01
DAV:   7    -0.502125211014E+02   -0.12375E-03   -0.25871E-03 19952   0.237E-01    0.993E-02
DAV:   8    -0.502125665898E+02   -0.45488E-04   -0.20196E-04 14088   0.762E-02
  24 F= -.50212567E+02 E0= -.50212664E+02  d E =-.129677E+01
       N       E                     dE             d eps       ncg     rms          rms(c)
DAV:   1    -0.504750774280E+02   -0.26256E+00   -0.10507E+01 13568   0.220E+01    0.155E+00
DAV:   2    -0.505403757145E+02   -0.65298E-01   -0.96926E-01 16696   0.529E+00    0.967E-01
DAV:   3    -0.505359647649E+02    0.44109E-02   -0.43680E-02 20576   0.105E+00    0.648E-01
DAV:   4    -0.505339532262E+02    0.20115E-02   -0.13043E-02 20512   0.557E-01    0.300E-01
DAV:   5    -0.505332846578E+02    0.66857E-03   -0.41333E-03 21712   0.347E-01    0.121E-01
DAV:   6    -0.505333147963E+02   -0.30138E-04   -0.37394E-04 15552   0.108E-01
  25 F= -.50533315E+02 E0= -.50533243E+02  d E =-.320748E+00
       N       E                     dE             d eps       ncg     rms          rms(c)
DAV:   1    -0.505153138739E+02    0.17971E-01   -0.78385E+01 13568   0.599E+01    0.437E+00
DAV:   2    -0.509901748051E+02   -0.47486E+00   -0.69629E+00 16696   0.144E+01    0.282E+00
DAV:   3    -0.509596092910E+02    0.30566E-01   -0.32782E-01 21368   0.297E+00    0.193E+00
DAV:   4    -0.509456872312E+02    0.13922E-01   -0.96170E-02 20056   0.143E+00    0.950E-01
DAV:   5    -0.509393890357E+02    0.62982E-02   -0.36251E-02 20656   0.106E+00    0.415E-01
DAV:   6    -0.509395914502E+02   -0.20241E-03   -0.41956E-03 19424   0.345E-01    0.167E-01
DAV:   7    -0.509396678853E+02   -0.76435E-04   -0.39858E-04 17296   0.113E-01
  26 F= -.50939668E+02 E0= -.50939266E+02  d E =-.727101E+00
       N       E                     dE             d eps       ncg     rms          rms(c)
DAV:   1    -0.509389225052E+02    0.66894E-03   -0.12841E+00 13568   0.765E+00    0.577E-01
DAV:   2    -0.509470084398E+02   -0.80859E-02   -0.11774E-01 16784   0.184E+00    0.363E-01
DAV:   3    -0.509464596008E+02    0.54884E-03   -0.60464E-03 20928   0.381E-01    0.233E-01
DAV:   4    -0.509461949810E+02    0.26462E-03   -0.18633E-03 19096   0.207E-01    0.105E-01
DAV:   5    -0.509461196101E+02    0.75371E-04   -0.48692E-04 17784   0.119E-01
  27 F= -.50946120E+02 E0= -.50945702E+02  d E =-.733553E+00
       N       E                     dE             d eps       ncg     rms          rms(c)
DAV:   1    -0.511911716157E+02   -0.24498E+00   -0.72820E+00 15264   0.178E+01    0.186E+00
DAV:   2    -0.512092154779E+02   -0.18044E-01   -0.57163E-01 19696   0.421E+00    0.860E-01
DAV:   3    -0.512009476196E+02    0.82679E-02   -0.60187E-02 22480   0.108E+00    0.580E-01
DAV:   4    -0.511972025497E+02    0.37451E-02   -0.15010E-02 22056   0.693E-01    0.375E-01
DAV:   5    -0.511970217518E+02    0.18080E-03   -0.22515E-03 23120   0.205E-01    0.244E-01
DAV:   6    -0.511971507986E+02   -0.12905E-03   -0.79280E-04 24688   0.131E-01    0.268E-02
DAV:   7    -0.511971500302E+02    0.76838E-06   -0.29452E-05 10968   0.321E-02
  28 F= -.51197150E+02 E0= -.51196681E+02  d E =-.251030E+00
       N       E                     dE             d eps       ncg     rms          rms(c)
DAV:   1    -0.516329142000E+02   -0.43576E+00   -0.65662E+01 15240   0.535E+01    0.638E+00
DAV:   2    -0.517962571510E+02   -0.16334E+00   -0.50451E+00 19592   0.126E+01    0.258E+00
DAV:   3    -0.517182935407E+02    0.77964E-01   -0.49811E-01 23128   0.334E+00    0.165E+00
DAV:   4    -0.516883552185E+02    0.29938E-01   -0.12335E-01 21688   0.211E+00    0.113E+00
DAV:   5    -0.516865290714E+02    0.18261E-02   -0.22739E-02 23488   0.667E-01    0.724E-01
DAV:   6    -0.516876509863E+02   -0.11219E-02   -0.71041E-03 24624   0.421E-01    0.105E-01
DAV:   7    -0.516876231720E+02    0.27814E-04   -0.31396E-04 16696   0.970E-02
  29 F= -.51687623E+02 E0= -.51687090E+02  d E =-.741504E+00
       N       E                     dE             d eps       ncg     rms          rms(c)
DAV:   1    -0.509317323709E+02    0.75592E+00   -0.26488E+02 15048   0.108E+02    0.180E+01
DAV:   2    -0.516051557787E+02   -0.67342E+00   -0.20255E+01 19864   0.259E+01    0.564E+00
DAV:   3    -0.512406663019E+02    0.36449E+00   -0.21448E+00 24472   0.780E+00    0.364E+00
DAV:   4    -0.511218274432E+02    0.11884E+00   -0.52022E-01 20840   0.456E+00    0.224E+00
DAV:   5    -0.511164597648E+02    0.53677E-02   -0.97776E-02 23216   0.145E+00    0.152E+00
DAV:   6    -0.511228087171E+02   -0.63490E-02   -0.30387E-02 23928   0.927E-01    0.392E-01
DAV:   7    -0.511219151053E+02    0.89361E-03   -0.35419E-03 19616   0.306E-01    0.156E-01
DAV:   8    -0.511218669982E+02    0.48107E-04   -0.50186E-04 17512   0.139E-01
  30 F= -.51121867E+02 E0= -.51121429E+02  d E =-.175747E+00
       N       E                     dE             d eps       ncg     rms          rms(c)
DAV:   1    -0.517049012205E+02   -0.58299E+00   -0.15951E+02 13568   0.852E+01    0.988E+00
DAV:   2    -0.521029788438E+02   -0.39808E+00   -0.14564E+01 18576   0.226E+01    0.504E+00
DAV:   3    -0.518722580475E+02    0.23072E+00   -0.16568E+00 19952   0.641E+00    0.419E+00
DAV:   4    -0.517590237579E+02    0.11323E+00   -0.33489E-01 21696   0.348E+00    0.241E+00
DAV:   5    -0.517596575722E+02   -0.63381E-03   -0.49381E-02 24024   0.965E-01    0.193E+00
DAV:   6    -0.517609717443E+02   -0.13142E-02   -0.13882E-02 23888   0.551E-01    0.174E-01
DAV:   7    -0.517609770233E+02   -0.52790E-05   -0.13318E-03 20024   0.201E-01    0.890E-02
DAV:   8    -0.517609754554E+02    0.15679E-05   -0.79862E-05 11688   0.555E-02
  31 F= -.51760975E+02 E0= -.51760455E+02  d E =-.814856E+00
       N       E                     dE             d eps       ncg     rms          rms(c)
DAV:   1    -0.519215116889E+02   -0.16053E+00   -0.61994E+00 13568   0.161E+01    0.144E+00
DAV:   2    -0.519551380388E+02   -0.33626E-01   -0.46148E-01 17176   0.396E+00    0.803E-01
DAV:   3    -0.519542038681E+02    0.93417E-03   -0.14130E-02 23440   0.588E-01    0.425E-01
DAV:   4    -0.519538680079E+02    0.33586E-03   -0.19028E-03 19840   0.255E-01    0.112E-01
DAV:   5    -0.519538947798E+02   -0.26772E-04   -0.32625E-04 13488   0.100E-01
  32 F= -.51953895E+02 E0= -.51953371E+02  d E =-.192919E+00
       N       E                     dE             d eps       ncg     rms          rms(c)
DAV:   1    -0.519049421413E+02    0.48926E-01   -0.56047E+01 13568   0.483E+01    0.443E+00
DAV:   2    -0.522099400726E+02   -0.30500E+00   -0.42061E+00 17112   0.119E+01    0.209E+00
DAV:   3    -0.522009495717E+02    0.89905E-02   -0.13048E-01 22728   0.183E+00    0.113E+00
DAV:   4    -0.521987037121E+02    0.22459E-02   -0.21015E-02 20696   0.779E-01    0.423E-01
DAV:   5    -0.521984572045E+02    0.24651E-03   -0.77212E-03 20096   0.443E-01    0.211E-01
DAV:   6    -0.521983250557E+02    0.13215E-03   -0.13491E-03 19128   0.185E-01    0.906E-02
DAV:   7    -0.521983550695E+02   -0.30014E-04   -0.10699E-04 11888   0.666E-02
  33 F= -.52198355E+02 E0= -.52198179E+02  d E =-.437380E+00
       N       E                     dE             d eps       ncg     rms          rms(c)
DAV:   1    -0.523019961741E+02   -0.10367E+00   -0.35691E+00 13568   0.126E+01    0.108E+00
DAV:   2    -0.523222342683E+02   -0.20238E-01   -0.31646E-01 17536   0.322E+00    0.638E-01
DAV:   3    -0.523195366425E+02    0.26976E-02   -0.24632E-02 20912   0.791E-01    0.447E-01
DAV:   4    -0.523186767332E+02    0.85991E-03   -0.31958E-03 21928   0.321E-01    0.221E-01
DAV:   5    -0.523185771305E+02    0.99603E-04   -0.76284E-04 20520   0.139E-01
  34 F= -.52318577E+02 E0= -.52318474E+02  d E =-.120222E+00
       N       E                     dE             d eps       ncg     rms          rms(c)
DAV:   1    -0.523818011821E+02   -0.63124E-01   -0.32313E+01 13568   0.379E+01    0.317E+00
DAV:   2    -0.525660487380E+02   -0.18425E+00   -0.28571E+00 17640   0.969E+00    0.195E+00
DAV:   3    -0.525395801781E+02    0.26469E-01   -0.24443E-01 21272   0.241E+00    0.138E+00
DAV:   4    -0.525321808923E+02    0.73993E-02   -0.26822E-02 21384   0.901E-01    0.700E-01
DAV:   5    -0.525307345400E+02    0.14464E-02   -0.84393E-03 22872   0.467E-01    0.338E-01
DAV:   6    -0.525308524611E+02   -0.11792E-03   -0.16349E-03 20848   0.205E-01    0.117E-01
DAV:   7    -0.525308557733E+02   -0.33122E-05   -0.13340E-04 12800   0.639E-02
  35 F= -.52530856E+02 E0= -.52530772E+02  d E =-.332501E+00
       N       E                     dE             d eps       ncg     rms          rms(c)
DAV:   1    -0.525235359743E+02    0.73165E-02   -0.71447E+00 13568   0.178E+01    0.150E+00
DAV:   2    -0.525641734356E+02   -0.40637E-01   -0.62252E-01 17496   0.450E+00    0.905E-01
DAV:   3    -0.525586875068E+02    0.54859E-02   -0.54881E-02 21624   0.111E+00    0.615E-01
DAV:   4    -0.525568321025E+02    0.18554E-02   -0.70713E-03 20752   0.462E-01    0.288E-01
DAV:   5    -0.525565929561E+02    0.23915E-03   -0.17253E-03 22688   0.205E-01    0.145E-01
DAV:   6    -0.525566185106E+02   -0.25554E-04   -0.27345E-04 15672   0.907E-02
  36 F= -.52556619E+02 E0= -.52556518E+02  d E =-.358263E+00
       N       E                     dE             d eps       ncg     rms          rms(c)
DAV:   1    -0.525939942858E+02   -0.37401E-01   -0.24178E+00 15264   0.114E+01    0.765E-01
DAV:   2    -0.526210791427E+02   -0.27085E-01   -0.31396E-01 14096   0.263E+00    0.399E-01
DAV:   3    -0.526208782811E+02    0.20086E-03   -0.10450E-02 21016   0.494E-01    0.252E-01
DAV:   4    -0.526205854307E+02    0.29285E-03   -0.19874E-03 20936   0.206E-01    0.144E-01
DAV:   5    -0.526205108990E+02    0.74532E-04   -0.62490E-04 18584   0.154E-01
  37 F= -.52620511E+02 E0= -.52620333E+02  d E =-.638924E-01
       N       E                     dE             d eps       ncg     rms          rms(c)
DAV:   1    -0.524712557782E+02    0.14933E+00   -0.21311E+01 15264   0.339E+01    0.229E+00
DAV:   2    -0.527046562151E+02   -0.23340E+00   -0.27099E+00 13912   0.776E+00    0.114E+00
DAV:   3    -0.527035002116E+02    0.11560E-02   -0.81092E-02 21416   0.139E+00    0.749E-01
DAV:   4    -0.527010602896E+02    0.24399E-02   -0.17093E-02 21160   0.569E-01    0.435E-01
DAV:   5    -0.527003020062E+02    0.75828E-03   -0.58321E-03 20408   0.477E-01    0.146E-01
DAV:   6    -0.527003033443E+02   -0.13381E-05   -0.51109E-04 16816   0.141E-01
  38 F= -.52700303E+02 E0= -.52699960E+02  d E =-.143685E+00
       N       E                     dE             d eps       ncg     rms          rms(c)
DAV:   1    -0.527378593659E+02   -0.37557E-01   -0.17461E+00 15264   0.940E+00    0.704E-01
DAV:   2    -0.527526821585E+02   -0.14823E-01   -0.19570E-01 16024   0.224E+00    0.494E-01
DAV:   3    -0.527514903803E+02    0.11918E-02   -0.12756E-02 21424   0.537E-01    0.259E-01
DAV:   4    -0.527511926563E+02    0.29772E-03   -0.16627E-03 20664   0.199E-01    0.135E-01
DAV:   5    -0.527511671108E+02    0.25546E-04   -0.38400E-04 16952   0.116E-01
  39 F= -.52751167E+02 E0= -.52750817E+02  d E =-.508638E-01
       N       E                     dE             d eps       ncg     rms          rms(c)
DAV:   1    -0.527204292727E+02    0.30763E-01   -0.15833E+01 15264   0.282E+01    0.209E+00
DAV:   2    -0.528494711011E+02   -0.12904E+00   -0.17223E+00 15992   0.669E+00    0.136E+00
DAV:   3    -0.528427387659E+02    0.67323E-02   -0.93896E-02 21136   0.149E+00    0.731E-01
DAV:   4    -0.528402095138E+02    0.25293E-02   -0.14624E-02 20760   0.580E-01    0.373E-01
DAV:   5    -0.528399735678E+02    0.23595E-03   -0.34957E-03 20600   0.346E-01    0.813E-02
DAV:   6    -0.528399580210E+02    0.15547E-04   -0.26605E-04 16944   0.112E-01
  40 F= -.52839958E+02 E0= -.52839648E+02  d E =-.139655E+00
       N       E                     dE             d eps       ncg     rms          rms(c)
DAV:   1    -0.528292722243E+02    0.10701E-01   -0.23351E+00 15264   0.108E+01    0.789E-01
DAV:   2    -0.528485326220E+02   -0.19260E-01   -0.25462E-01 16056   0.256E+00    0.544E-01
DAV:   3    -0.528475415051E+02    0.99112E-03   -0.13574E-02 21936   0.569E-01    0.285E-01
DAV:   4    -0.528472051975E+02    0.33631E-03   -0.20171E-03 20592   0.223E-01    0.153E-01
DAV:   5    -0.528471709244E+02    0.34273E-04   -0.53243E-04 17800   0.132E-01
  41 F= -.52847171E+02 E0= -.52846857E+02  d E =-.146868E+00
       N       E                     dE             d eps       ncg     rms          rms(c)
DAV:   1    -0.528903834814E+02   -0.43178E-01   -0.10787E+00 13584   0.645E+00    0.634E-01
DAV:   2    -0.528928460199E+02   -0.24625E-02   -0.80894E-02 18656   0.173E+00    0.497E-01
DAV:   3    -0.528913347564E+02    0.15113E-02   -0.96557E-03 21488   0.465E-01    0.248E-01
DAV:   4    -0.528909101949E+02    0.42456E-03   -0.15140E-03 19120   0.223E-01    0.119E-01
DAV:   5    -0.528908901100E+02    0.20085E-04   -0.31005E-04 15208   0.952E-02
  42 F= -.52890890E+02 E0= -.52890534E+02  d E =-.437192E-01
       N       E                     dE             d eps       ncg     rms          rms(c)
DAV:   1    -0.529745171293E+02   -0.83607E-01   -0.97293E+00 13568   0.194E+01    0.184E+00
DAV:   2    -0.529947848022E+02   -0.20268E-01   -0.69552E-01 18656   0.512E+00    0.140E+00
DAV:   3    -0.529845784262E+02    0.10206E-01   -0.63820E-02 21376   0.125E+00    0.707E-01
DAV:   4    -0.529810136841E+02    0.35647E-02   -0.12501E-02 19120   0.647E-01    0.327E-01
DAV:   5    -0.529808985301E+02    0.11515E-03   -0.26468E-03 20016   0.272E-01    0.122E-01
DAV:   6    -0.529809148799E+02   -0.16350E-04   -0.22843E-04 15616   0.913E-02
  43 F= -.52980915E+02 E0= -.52980605E+02  d E =-.133744E+00
       N       E                     dE             d eps       ncg     rms          rms(c)
DAV:   1    -0.528920453373E+02    0.88853E-01   -0.39160E+01 13568   0.387E+01    0.364E+00
DAV:   2    -0.529762121575E+02   -0.84167E-01   -0.26159E+00 18672   0.100E+01    0.262E+00
DAV:   3    -0.529451054505E+02    0.31107E-01   -0.17031E-01 22384   0.220E+00    0.131E+00
DAV:   4    -0.529319188268E+02    0.13187E-01   -0.41873E-02 18816   0.119E+00    0.556E-01
DAV:   5    -0.529317630311E+02    0.15580E-03   -0.80186E-03 21696   0.482E-01    0.230E-01
DAV:   6    -0.529318264958E+02   -0.63465E-04   -0.68499E-04 18184   0.156E-01
  44 F= -.52931826E+02 E0= -.52931568E+02  d E =-.846556E-01
       N       E                     dE             d eps       ncg     rms          rms(c)
DAV:   1    -0.529855655393E+02   -0.53803E-01   -0.17507E+01 13568   0.259E+01    0.250E+00
DAV:   2    -0.530215219148E+02   -0.35956E-01   -0.11378E+00 18664   0.655E+00    0.184E+00
DAV:   3    -0.530076338615E+02    0.13888E-01   -0.74900E-02 21392   0.140E+00    0.964E-01
DAV:   4    -0.530021951494E+02    0.54387E-02   -0.22126E-02 22008   0.865E-01    0.502E-01
DAV:   5    -0.530016479380E+02    0.54721E-03   -0.54307E-03 20024   0.375E-01    0.147E-01
DAV:   6    -0.530017075093E+02   -0.59571E-04   -0.39379E-04 15936   0.119E-01
  45 F= -.53001708E+02 E0= -.53001371E+02  d E =-.154537E+00
       N       E                     dE             d eps       ncg     rms          rms(c)
DAV:   1    -0.530355931846E+02   -0.33945E-01   -0.24671E+00 15264   0.116E+01    0.830E-01
DAV:   2    -0.530569067151E+02   -0.21314E-01   -0.27799E-01 15608   0.270E+00    0.386E-01
DAV:   3    -0.530561595466E+02    0.74717E-03   -0.95717E-03 19808   0.484E-01    0.237E-01
DAV:   4    -0.530558555983E+02    0.30395E-03   -0.16888E-03 21608   0.238E-01    0.127E-01
DAV:   5    -0.530558340576E+02    0.21541E-04   -0.32193E-04 14576   0.969E-02
  46 F= -.53055834E+02 E0= -.53055520E+02  d E =-.541265E-01
       N       E                     dE             d eps       ncg     rms          rms(c)
DAV:   1    -0.529609883541E+02    0.94867E-01   -0.22463E+01 15264   0.347E+01    0.233E+00
DAV:   2    -0.531496089065E+02   -0.18862E+00   -0.24762E+00 16000   0.809E+00    0.113E+00
DAV:   3    -0.531436875945E+02    0.59213E-02   -0.78410E-02 19568   0.142E+00    0.713E-01
DAV:   4    -0.531411920154E+02    0.24956E-02   -0.13617E-02 20432   0.663E-01    0.358E-01
DAV:   5    -0.531412286692E+02   -0.36654E-04   -0.30655E-03 21864   0.279E-01    0.201E-01
DAV:   6    -0.531413159611E+02   -0.87292E-04   -0.57483E-04 20440   0.142E-01
  47 F= -.53141316E+02 E0= -.53141028E+02  d E =-.139608E+00
       N       E                     dE             d eps       ncg     rms          rms(c)
DAV:   1    -0.531345026434E+02    0.67260E-02   -0.12536E+00 15280   0.815E+00    0.581E-01
DAV:   2    -0.531451476262E+02   -0.10645E-01   -0.13830E-01 16432   0.189E+00    0.276E-01
DAV:   3    -0.531448372631E+02    0.31036E-03   -0.42528E-03 20000   0.328E-01    0.165E-01
DAV:   4    -0.531447077988E+02    0.12946E-03   -0.81250E-04 20104   0.171E-01    0.867E-02
DAV:   5    -0.531447100265E+02   -0.22277E-05   -0.14363E-04 13112   0.660E-02
  48 F= -.53144710E+02 E0= -.53144426E+02  d E =-.143003E+00
       N       E                     dE             d eps       ncg     rms          rms(c)
DAV:   1    -0.532133115082E+02   -0.68604E-01   -0.35567E+00 13568   0.111E+01    0.994E-01
DAV:   2    -0.532210459737E+02   -0.77345E-02   -0.14205E-01 18408   0.242E+00    0.510E-01
DAV:   3    -0.532199902623E+02    0.10557E-02   -0.61075E-03 22184   0.402E-01    0.225E-01
DAV:   4    -0.532198037304E+02    0.18653E-03   -0.13014E-03 19976   0.194E-01    0.103E-01
DAV:   5    -0.532197817515E+02    0.21979E-04   -0.28781E-04 14728   0.982E-02
  49 F= -.53219782E+02 E0= -.53219558E+02  d E =-.750717E-01
       N       E                     dE             d eps       ncg     rms          rms(c)
DAV:   1    -0.533181081270E+02   -0.98304E-01   -0.32353E+01 13568   0.332E+01    0.303E+00
DAV:   2    -0.533911755755E+02   -0.73067E-01   -0.13176E+00 18160   0.737E+00    0.138E+00
DAV:   3    -0.533815224261E+02    0.96531E-02   -0.57917E-02 22256   0.122E+00    0.602E-01
DAV:   4    -0.533801489420E+02    0.13735E-02   -0.94649E-03 19672   0.533E-01    0.244E-01
DAV:   5    -0.533801587576E+02   -0.98156E-05   -0.17228E-03 19744   0.242E-01    0.114E-01
DAV:   6    -0.533802055225E+02   -0.46765E-04   -0.24627E-04 15136   0.972E-02
  50 F= -.53380206E+02 E0= -.53380219E+02  d E =-.235495E+00
       N       E                     dE             d eps       ncg     rms          rms(c)
DAV:   1    -0.531382341126E+02    0.24192E+00   -0.12931E+02 13568   0.659E+01    0.619E+00
DAV:   2    -0.534532072867E+02   -0.31497E+00   -0.56518E+00 18128   0.154E+01    0.254E+00
DAV:   3    -0.534162032166E+02    0.37004E-01   -0.23486E-01 22352   0.238E+00    0.125E+00
DAV:   4    -0.534089079195E+02    0.72953E-02   -0.38079E-02 18856   0.107E+00    0.421E-01
DAV:   5    -0.534094941355E+02   -0.58622E-03   -0.46938E-03 21072   0.418E-01    0.193E-01
DAV:   6    -0.534096230073E+02   -0.12887E-03   -0.67336E-04 18328   0.158E-01    0.633E-02
DAV:   7    -0.534096437971E+02   -0.20790E-04   -0.10326E-04 11832   0.725E-02
  51 F= -.53409644E+02 E0= -.53409694E+02  d E =-.264934E+00
       N       E                     dE             d eps       ncg     rms          rms(c)
DAV:   1    -0.534005685725E+02    0.90544E-02   -0.26917E+01 13568   0.300E+01    0.260E+00
DAV:   2    -0.534547165007E+02   -0.54148E-01   -0.10609E+00 18304   0.671E+00    0.112E+00
DAV:   3    -0.534477917722E+02    0.69247E-02   -0.43861E-02 22152   0.111E+00    0.567E-01
DAV:   4    -0.534461267377E+02    0.16650E-02   -0.70071E-03 18744   0.477E-01    0.193E-01
DAV:   5    -0.534461538016E+02   -0.27064E-04   -0.11465E-03 19904   0.199E-01    0.995E-02
DAV:   6    -0.534461731826E+02   -0.19381E-04   -0.14775E-04 12056   0.854E-02
  52 F= -.53446173E+02 E0= -.53446320E+02  d E =-.301463E+00
       N       E                     dE             d eps       ncg     rms          rms(c)
DAV:   1    -0.534985473722E+02   -0.52394E-01   -0.29904E+00 14296   0.112E+01    0.721E-01
DAV:   2    -0.535106482772E+02   -0.12101E-01   -0.17105E-01 16984   0.244E+00    0.345E-01
DAV:   3    -0.535102414396E+02    0.40684E-03   -0.52707E-03 21880   0.380E-01    0.194E-01
DAV:   4    -0.535100735528E+02    0.16789E-03   -0.11099E-03 19696   0.199E-01    0.560E-02
DAV:   5    -0.535100836661E+02   -0.10113E-04   -0.12674E-04 13304   0.690E-02
  53 F= -.53510084E+02 E0= -.53510229E+02  d E =-.639105E-01
       N       E                     dE             d eps       ncg     rms          rms(c)
DAV:   1    -0.535685839344E+02   -0.58510E-01   -0.26813E+01 15264   0.334E+01    0.215E+00
DAV:   2    -0.536717803574E+02   -0.10320E+00   -0.14749E+00 16984   0.715E+00    0.106E+00
DAV:   3    -0.536681048458E+02    0.36755E-02   -0.42115E-02 22176   0.108E+00    0.616E-01
DAV:   4    -0.536665510135E+02    0.15538E-02   -0.99695E-03 20336   0.589E-01    0.169E-01
DAV:   5    -0.536666576164E+02   -0.10660E-03   -0.12907E-03 17328   0.208E-01    0.889E-02
DAV:   6    -0.536666699046E+02   -0.12288E-04   -0.17970E-04 13480   0.849E-02
  54 F= -.53666670E+02 E0= -.53666801E+02  d E =-.220497E+00
       N       E                     dE             d eps       ncg     rms          rms(c)
DAV:   1    -0.533931702304E+02    0.27349E+00   -0.10532E+02 15264   0.664E+01    0.445E+00
DAV:   2    -0.538053057040E+02   -0.41214E+00   -0.60524E+00 16960   0.145E+01    0.231E+00
DAV:   3    -0.537936951325E+02    0.11611E-01   -0.17320E-01 21648   0.216E+00    0.140E+00
DAV:   4    -0.537858915170E+02    0.78036E-02   -0.41161E-02 20544   0.119E+00    0.403E-01
DAV:   5    -0.537863830880E+02   -0.49157E-03   -0.58875E-03 17240   0.428E-01    0.199E-01
DAV:   6    -0.537863784700E+02    0.46180E-05   -0.85458E-04 19160   0.170E-01
  55 F= -.53786378E+02 E0= -.53786501E+02  d E =-.340205E+00
       N       E                     dE             d eps       ncg     rms          rms(c)
DAV:   1    -0.538614388428E+02   -0.75056E-01   -0.16854E+01 15264   0.272E+01    0.176E+00
DAV:   2    -0.539249382450E+02   -0.63499E-01   -0.10306E+00 16896   0.587E+00    0.100E+00
DAV:   3    -0.539224903870E+02    0.24479E-02   -0.33550E-02 20680   0.957E-01    0.564E-01
DAV:   4    -0.539211903848E+02    0.13000E-02   -0.78501E-03 21640   0.528E-01    0.247E-01
DAV:   5    -0.539212937383E+02   -0.10335E-03   -0.10694E-03 19632   0.170E-01    0.151E-01
DAV:   6    -0.539213259211E+02   -0.32183E-04   -0.20769E-04 14440   0.962E-02
  56 F= -.53921326E+02 E0= -.53921396E+02  d E =-.134947E+00
       N       E                     dE             d eps       ncg     rms          rms(c)
DAV:   1    -0.538209329950E+02    0.10036E+00   -0.78132E+01 15264   0.587E+01    0.413E+00
DAV:   2    -0.541098594089E+02   -0.28893E+00   -0.49394E+00 16848   0.128E+01    0.232E+00
DAV:   3    -0.540980623869E+02    0.11797E-01   -0.16904E-01 21600   0.214E+00    0.130E+00
DAV:   4    -0.540913319301E+02    0.67305E-02   -0.37284E-02 21032   0.115E+00    0.586E-01
DAV:   5    -0.540918348434E+02   -0.50291E-03   -0.57146E-03 19944   0.396E-01    0.344E-01
DAV:   6    -0.540919763384E+02   -0.14149E-03   -0.12188E-03 21936   0.212E-01    0.951E-02
DAV:   7    -0.540919768507E+02   -0.51230E-06   -0.19950E-04 13448   0.883E-02
  57 F= -.54091977E+02 E0= -.54092036E+02  d E =-.305598E+00
       N       E                     dE             d eps       ncg     rms          rms(c)
DAV:   1    -0.540612219446E+02    0.30754E-01   -0.14563E+01 15264   0.254E+01    0.173E+00
DAV:   2    -0.541107712171E+02   -0.49549E-01   -0.91523E-01 16952   0.555E+00    0.103E+00
DAV:   3    -0.541081402812E+02    0.26309E-02   -0.31727E-02 20336   0.969E-01    0.536E-01
DAV:   4    -0.541068528929E+02    0.12874E-02   -0.72233E-03 21784   0.488E-01    0.227E-01
DAV:   5    -0.541069536654E+02   -0.10077E-03   -0.98201E-04 19920   0.162E-01    0.147E-01
DAV:   6    -0.541069857762E+02   -0.32111E-04   -0.19218E-04 14384   0.885E-02
  58 F= -.54106986E+02 E0= -.54107047E+02  d E =-.320607E+00
       N       E                     dE             d eps       ncg     rms          rms(c)
DAV:   1    -0.543026966527E+02   -0.19574E+00   -0.48244E+00 13568   0.127E+01    0.175E+00
DAV:   2    -0.543028405230E+02   -0.14387E-03   -0.30105E-01 18808   0.378E+00    0.833E-01
DAV:   3    -0.542979093851E+02    0.49311E-02   -0.19083E-02 21856   0.770E-01    0.405E-01
DAV:   4    -0.542964444138E+02    0.14650E-02   -0.56496E-03 23952   0.435E-01    0.303E-01
DAV:   5    -0.542965455151E+02   -0.10110E-03   -0.65878E-04 19632   0.118E-01    0.169E-01
DAV:   6    -0.542965995508E+02   -0.54036E-04   -0.34981E-04 19528   0.907E-02
  59 F= -.54296600E+02 E0= -.54296611E+02  d E =-.189614E+00
       N       E                     dE             d eps       ncg     rms          rms(c)
DAV:   1    -0.543743832832E+02   -0.77838E-01   -0.50970E+00 13568   0.131E+01    0.179E+00
DAV:   2    -0.543737788657E+02    0.60442E-03   -0.31808E-01 18808   0.390E+00    0.853E-01
DAV:   3    -0.543683060017E+02    0.54729E-02   -0.19926E-02 21568   0.796E-01    0.421E-01
DAV:   4    -0.543666740495E+02    0.16320E-02   -0.62286E-03 22976   0.459E-01    0.313E-01
DAV:   5    -0.543668053711E+02   -0.13132E-03   -0.82898E-04 20112   0.129E-01    0.175E-01
DAV:   6    -0.543668671384E+02   -0.61767E-04   -0.35328E-04 19208   0.918E-02
  60 F= -.54366867E+02 E0= -.54366842E+02  d E =-.259881E+00
