   21   21   99    2
  0.7565421E+01  0.5196074E-09  0.5313835E-09  0.5926890E-09  0.5000000E-15
  1.000000000000000E-004
  CAR 
 unknown system                          
     40     32     48
 
  0.1250000E+00  0.1250000E+00  0.1250000E+00  0.3125000E-01
    1      -36.010448    -36.010448   1.000000   1.000000
    2      -30.800758    -30.800758   1.000000   1.000000
    3      -30.665333    -30.665333   1.000000   1.000000
    4      -30.626654    -30.626654   1.000000   1.000000
    5      -18.128196    -18.128196   1.000000   1.000000
    6      -18.012634    -18.012634   1.000000   1.000000
    7      -17.908064    -17.908064   1.000000   1.000000
    8       -9.489434     -9.489433   1.000000   1.000000
    9       -8.158336     -8.158336   1.000000   1.000000
   10       -7.934928     -7.934928   1.000000   1.000000
   11       -7.338141     -7.338141   1.000000   1.000000
   12       -6.941825     -6.941825   1.000000   1.000000
   13       -6.864647     -6.864647   1.000000   1.000000
   14       -4.866851     -4.866851   1.000000   1.000000
   15       -3.487841     -3.487841   1.000000   1.000000
   16       -3.459987     -3.459987   1.000000   1.000000
   17       -3.228021     -3.228021   1.000000   1.000000
   18       -3.033282     -3.033283   1.000000   1.000000
   19       -2.810855     -2.810855   1.000000   1.000000
   20       -2.603040     -2.603040   1.000000   1.000000
   21        2.165837      2.165837   0.000000   0.000000
   22        2.564450      2.564450   0.000000   0.000000
   23        2.818560      2.818560   0.000000   0.000000
   24        3.179141      3.179141   0.000000   0.000000
   25        3.547640      3.547640   0.000000   0.000000
   26        3.701997      3.701997   0.000000   0.000000
   27        3.892356      3.892356   0.000000   0.000000
   28        4.026999      4.026999   0.000000   0.000000
   29        4.671457      4.671457   0.000000   0.000000
   30        4.833138      4.833138   0.000000   0.000000
   31        5.098149      5.098149   0.000000   0.000000
   32        5.663612      5.663612   0.000000   0.000000
   33        5.896344      5.896344   0.000000   0.000000
   34        6.106071      6.106071   0.000000   0.000000
   35        6.479367      6.479367   0.000000   0.000000
   36        6.692577      6.692577   0.000000   0.000000
   37        7.083581      7.083581   0.000000   0.000000
   38        7.513626      7.513626   0.000000   0.000000
   39        7.616219      7.616219   0.000000   0.000000
   40        8.535493      8.535493   0.000000   0.000000
   41        8.831348      8.831348   0.000000   0.000000
   42        9.046541      9.046541   0.000000   0.000000
   43        9.418669      9.418669   0.000000   0.000000
   44        9.720258      9.720258   0.000000   0.000000
   45       10.576723     10.576723   0.000000   0.000000
   46       10.991091     10.991091   0.000000   0.000000
   47       11.819515     11.819515   0.000000   0.000000
   48       12.022889     12.022889   0.000000   0.000000
 
  0.3750000E+00  0.1250000E+00  0.1250000E+00  0.3125000E-01
    1      -36.010388    -36.010388   1.000000   1.000000
    2      -30.800743    -30.800743   1.000000   1.000000
    3      -30.665687    -30.665687   1.000000   1.000000
    4      -30.626670    -30.626670   1.000000   1.000000
    5      -18.127641    -18.127641   1.000000   1.000000
    6      -18.019488    -18.019488   1.000000   1.000000
    7      -17.907683    -17.907683   1.000000   1.000000
    8       -9.248422     -9.248422   1.000000   1.000000
    9       -8.181644     -8.181644   1.000000   1.000000
   10       -7.894954     -7.894954   1.000000   1.000000
   11       -7.711731     -7.711731   1.000000   1.000000
   12       -6.955884     -6.955884   1.000000   1.000000
   13       -6.776326     -6.776326   1.000000   1.000000
   14       -5.003984     -5.003984   1.000000   1.000000
   15       -3.578464     -3.578464   1.000000   1.000000
   16       -3.396471     -3.396471   1.000000   1.000000
   17       -3.264419     -3.264419   1.000000   1.000000
   18       -3.060180     -3.060181   1.000000   1.000000
   19       -2.732050     -2.732050   1.000000   1.000000
   20       -2.298055     -2.298055   1.000000   1.000000
   21        2.112375      2.112375   0.000000   0.000000
   22        2.331382      2.331382   0.000000   0.000000
   23        2.661383      2.661383   0.000000   0.000000
   24        2.938097      2.938097   0.000000   0.000000
   25        3.350842      3.350842   0.000000   0.000000
   26        3.752392      3.752392   0.000000   0.000000
   27        3.939310      3.939310   0.000000   0.000000
   28        4.254269      4.254269   0.000000   0.000000
   29        4.706194      4.706194   0.000000   0.000000
   30        4.791441      4.791441   0.000000   0.000000
   31        5.493678      5.493678   0.000000   0.000000
   32        5.622013      5.622013   0.000000   0.000000
   33        5.946379      5.946379   0.000000   0.000000
   34        6.275541      6.275541   0.000000   0.000000
   35        6.635960      6.635960   0.000000   0.000000
   36        6.770608      6.770608   0.000000   0.000000
   37        7.193754      7.193754   0.000000   0.000000
   38        7.616268      7.616268   0.000000   0.000000
   39        7.881232      7.881232   0.000000   0.000000
   40        8.443137      8.443137   0.000000   0.000000
   41        8.671074      8.671074   0.000000   0.000000
   42        9.120847      9.120847   0.000000   0.000000
   43        9.323260      9.323260   0.000000   0.000000
   44       10.144022     10.144022   0.000000   0.000000
   45       10.711121     10.711121   0.000000   0.000000
   46       11.287522     11.287523   0.000000   0.000000
   47       11.680323     11.680323   0.000000   0.000000
   48       11.883571     11.883571   0.000000   0.000000
 
 -0.3750000E+00  0.1250000E+00  0.1250000E+00  0.3125000E-01
    1      -36.010400    -36.010400   1.000000   1.000000
    2      -30.800740    -30.800740   1.000000   1.000000
    3      -30.665695    -30.665695   1.000000   1.000000
    4      -30.626614    -30.626614   1.000000   1.000000
    5      -18.127749    -18.127750   1.000000   1.000000
    6      -18.019636    -18.019636   1.000000   1.000000
    7      -17.908351    -17.908351   1.000000   1.000000
    8       -9.175045     -9.175045   1.000000   1.000000
    9       -8.242087     -8.242087   1.000000   1.000000
   10       -7.951654     -7.951654   1.000000   1.000000
   11       -7.740983     -7.740983   1.000000   1.000000
   12       -6.942037     -6.942037   1.000000   1.000000
   13       -6.723856     -6.723856   1.000000   1.000000
   14       -5.041315     -5.041315   1.000000   1.000000
   15       -3.569035     -3.569035   1.000000   1.000000
   16       -3.356552     -3.356552   1.000000   1.000000
   17       -3.291106     -3.291106   1.000000   1.000000
   18       -3.046534     -3.046534   1.000000   1.000000
   19       -2.684444     -2.684443   1.000000   1.000000
   20       -2.266198     -2.266198   1.000000   1.000000
   21        2.170379      2.170379   0.000000   0.000000
   22        2.410216      2.410216   0.000000   0.000000
   23        2.697870      2.697870   0.000000   0.000000
   24        2.932557      2.932558   0.000000   0.000000
   25        3.140477      3.140477   0.000000   0.000000
   26        3.474094      3.474093   0.000000   0.000000
   27        3.877380      3.877380   0.000000   0.000000
   28        4.121672      4.121671   0.000000   0.000000
   29        4.552756      4.552756   0.000000   0.000000
   30        4.984454      4.984454   0.000000   0.000000
   31        5.477619      5.477619   0.000000   0.000000
   32        5.697589      5.697589   0.000000   0.000000
   33        6.040486      6.040486   0.000000   0.000000
   34        6.300695      6.300695   0.000000   0.000000
   35        6.752129      6.752129   0.000000   0.000000
   36        6.922210      6.922210   0.000000   0.000000
   37        7.399203      7.399203   0.000000   0.000000
   38        7.622768      7.622768   0.000000   0.000000
   39        7.944053      7.944053   0.000000   0.000000
   40        8.083983      8.083983   0.000000   0.000000
   41        8.744072      8.744072   0.000000   0.000000
   42        9.089909      9.089908   0.000000   0.000000
   43        9.510989      9.510989   0.000000   0.000000
   44        9.934629      9.934630   0.000000   0.000000
   45       10.582170     10.582170   0.000000   0.000000
   46       11.169487     11.169487   0.000000   0.000000
   47       11.735281     11.735281   0.000000   0.000000
   48       12.261731     12.261724   0.000000   0.000000
 
 -0.1250000E+00  0.1250000E+00  0.1250000E+00  0.3125000E-01
    1      -36.010459    -36.010459   1.000000   1.000000
    2      -30.800753    -30.800753   1.000000   1.000000
    3      -30.665340    -30.665340   1.000000   1.000000
    4      -30.626597    -30.626597   1.000000   1.000000
    5      -18.128289    -18.128290   1.000000   1.000000
    6      -18.012780    -18.012780   1.000000   1.000000
    7      -17.908736    -17.908736   1.000000   1.000000
    8       -9.441707     -9.441706   1.000000   1.000000
    9       -8.196134     -8.196134   1.000000   1.000000
   10       -7.973806     -7.973806   1.000000   1.000000
   11       -7.375667     -7.375667   1.000000   1.000000
   12       -6.936326     -6.936326   1.000000   1.000000
   13       -6.815428     -6.815428   1.000000   1.000000
   14       -4.912273     -4.912273   1.000000   1.000000
   15       -3.549297     -3.549297   1.000000   1.000000
   16       -3.377404     -3.377404   1.000000   1.000000
   17       -3.211752     -3.211752   1.000000   1.000000
   18       -2.997639     -2.997639   1.000000   1.000000
   19       -2.793825     -2.793825   1.000000   1.000000
   20       -2.551892     -2.551892   1.000000   1.000000
   21        2.254619      2.254619   0.000000   0.000000
   22        2.566438      2.566438   0.000000   0.000000
   23        2.807029      2.807029   0.000000   0.000000
   24        2.977378      2.977378   0.000000   0.000000
   25        3.222580      3.222580   0.000000   0.000000
   26        3.728646      3.728646   0.000000   0.000000
   27        3.802328      3.802328   0.000000   0.000000
   28        4.145754      4.145754   0.000000   0.000000
   29        4.647796      4.647796   0.000000   0.000000
   30        4.819630      4.819630   0.000000   0.000000
   31        5.253923      5.253924   0.000000   0.000000
   32        5.635552      5.635552   0.000000   0.000000
   33        5.911542      5.911542   0.000000   0.000000
   34        6.154211      6.154211   0.000000   0.000000
   35        6.662273      6.662273   0.000000   0.000000
   36        6.777790      6.777790   0.000000   0.000000
   37        7.106461      7.106461   0.000000   0.000000
   38        7.284042      7.284042   0.000000   0.000000
   39        7.642309      7.642309   0.000000   0.000000
   40        8.374604      8.374605   0.000000   0.000000
   41        8.761017      8.761017   0.000000   0.000000
   42        9.055723      9.055723   0.000000   0.000000
   43        9.664075      9.664075   0.000000   0.000000
   44       10.135486     10.135486   0.000000   0.000000
   45       10.624923     10.624923   0.000000   0.000000
   46       11.096052     11.096052   0.000000   0.000000
   47       11.729793     11.729793   0.000000   0.000000
   48       11.851502     11.851502   0.000000   0.000000
 
  0.1250000E+00  0.3750000E+00  0.1250000E+00  0.3125000E-01
    1      -36.010411    -36.010411   1.000000   1.000000
    2      -30.800986    -30.800986   1.000000   1.000000
    3      -30.665311    -30.665311   1.000000   1.000000
    4      -30.626646    -30.626647   1.000000   1.000000
    5      -18.133272    -18.133273   1.000000   1.000000
    6      -18.012225    -18.012225   1.000000   1.000000
    7      -17.907535    -17.907535   1.000000   1.000000
    8       -9.138974     -9.138974   1.000000   1.000000
    9       -8.510633     -8.510633   1.000000   1.000000
   10       -7.937049     -7.937049   1.000000   1.000000
   11       -7.303860     -7.303859   1.000000   1.000000
   12       -7.095289     -7.095289   1.000000   1.000000
   13       -6.889524     -6.889524   1.000000   1.000000
   14       -4.761492     -4.761492   1.000000   1.000000
   15       -3.556196     -3.556196   1.000000   1.000000
   16       -3.466177     -3.466177   1.000000   1.000000
   17       -3.225746     -3.225746   1.000000   1.000000
   18       -3.123705     -3.123705   1.000000   1.000000
   19       -2.687793     -2.687793   1.000000   1.000000
   20       -2.496258     -2.496258   1.000000   1.000000
   21        2.316870      2.316870   0.000000   0.000000
   22        2.504328      2.504328   0.000000   0.000000
   23        2.640896      2.640896   0.000000   0.000000
   24        3.046420      3.046420   0.000000   0.000000
   25        3.266068      3.266068   0.000000   0.000000
   26        3.682291      3.682291   0.000000   0.000000
   27        4.084002      4.084002   0.000000   0.000000
   28        4.389057      4.389057   0.000000   0.000000
   29        4.708034      4.708034   0.000000   0.000000
   30        4.814156      4.814156   0.000000   0.000000
   31        5.224778      5.224778   0.000000   0.000000
   32        5.657829      5.657829   0.000000   0.000000
   33        5.827258      5.827258   0.000000   0.000000
   34        6.163612      6.163612   0.000000   0.000000
   35        6.534785      6.534785   0.000000   0.000000
   36        6.684497      6.684497   0.000000   0.000000
   37        7.052202      7.052202   0.000000   0.000000
   38        7.484628      7.484628   0.000000   0.000000
   39        8.112405      8.112405   0.000000   0.000000
   40        8.385983      8.385983   0.000000   0.000000
   41        8.933614      8.933614   0.000000   0.000000
   42        9.170558      9.170558   0.000000   0.000000
   43        9.541295      9.541295   0.000000   0.000000
   44       10.092082     10.092082   0.000000   0.000000
   45       10.532878     10.532878   0.000000   0.000000
   46       10.913791     10.913791   0.000000   0.000000
   47       11.237845     11.237845   0.000000   0.000000
   48       11.895589     11.895589   0.000000   0.000000
 
  0.3750000E+00  0.3750000E+00  0.1250000E+00  0.3125000E-01
    1      -36.010351    -36.010351   1.000000   1.000000
    2      -30.800973    -30.800973   1.000000   1.000000
    3      -30.665663    -30.665663   1.000000   1.000000
    4      -30.626661    -30.626662   1.000000   1.000000
    5      -18.132497    -18.132497   1.000000   1.000000
    6      -18.018976    -18.018976   1.000000   1.000000
    7      -17.907170    -17.907170   1.000000   1.000000
    8       -8.962603     -8.962603   1.000000   1.000000
    9       -8.403366     -8.403366   1.000000   1.000000
   10       -7.874495     -7.874495   1.000000   1.000000
   11       -7.691375     -7.691375   1.000000   1.000000
   12       -7.128082     -7.128082   1.000000   1.000000
   13       -6.775775     -6.775775   1.000000   1.000000
   14       -5.021794     -5.021794   1.000000   1.000000
   15       -3.611557     -3.611557   1.000000   1.000000
   16       -3.462617     -3.462617   1.000000   1.000000
   17       -3.268315     -3.268315   1.000000   1.000000
   18       -3.120801     -3.120801   1.000000   1.000000
   19       -2.629427     -2.629427   1.000000   1.000000
   20       -2.204720     -2.204720   1.000000   1.000000
   21        2.235452      2.235452   0.000000   0.000000
   22        2.468171      2.468171   0.000000   0.000000
   23        2.634030      2.634030   0.000000   0.000000
   24        2.921229      2.921229   0.000000   0.000000
   25        3.236390      3.236390   0.000000   0.000000
   26        3.747356      3.747356   0.000000   0.000000
   27        4.099420      4.099420   0.000000   0.000000
   28        4.310465      4.310464   0.000000   0.000000
   29        4.573240      4.573240   0.000000   0.000000
   30        4.882111      4.882111   0.000000   0.000000
   31        5.487690      5.487690   0.000000   0.000000
   32        5.795178      5.795178   0.000000   0.000000
   33        5.993111      5.993111   0.000000   0.000000
   34        6.178618      6.178618   0.000000   0.000000
   35        6.463673      6.463673   0.000000   0.000000
   36        6.820281      6.820281   0.000000   0.000000
   37        7.094245      7.094245   0.000000   0.000000
   38        7.625865      7.625865   0.000000   0.000000
   39        7.912971      7.912971   0.000000   0.000000
   40        8.512870      8.512870   0.000000   0.000000
   41        8.868221      8.868221   0.000000   0.000000
   42        9.333129      9.333129   0.000000   0.000000
   43        9.756372      9.756372   0.000000   0.000000
   44       10.003511     10.003511   0.000000   0.000000
   45       10.507215     10.507215   0.000000   0.000000
   46       11.074574     11.074574   0.000000   0.000000
   47       11.420110     11.420110   0.000000   0.000000
   48       11.847461     11.847461   0.000000   0.000000
 
 -0.3750000E+00  0.3750000E+00  0.1250000E+00  0.3125000E-01
    1      -36.010362    -36.010362   1.000000   1.000000
    2      -30.800970    -30.800970   1.000000   1.000000
    3      -30.665668    -30.665668   1.000000   1.000000
    4      -30.626606    -30.626606   1.000000   1.000000
    5      -18.132591    -18.132591   1.000000   1.000000
    6      -18.019117    -18.019117   1.000000   1.000000
    7      -17.907829    -17.907829   1.000000   1.000000
    8       -8.876490     -8.876489   1.000000   1.000000
    9       -8.404111     -8.404111   1.000000   1.000000
   10       -8.034974     -8.034974   1.000000   1.000000
   11       -7.674400     -7.674400   1.000000   1.000000
   12       -7.121035     -7.121035   1.000000   1.000000
   13       -6.725739     -6.725739   1.000000   1.000000
   14       -5.067617     -5.067617   1.000000   1.000000
   15       -3.613207     -3.613206   1.000000   1.000000
   16       -3.466925     -3.466925   1.000000   1.000000
   17       -3.261584     -3.261584   1.000000   1.000000
   18       -3.103578     -3.103578   1.000000   1.000000
   19       -2.564354     -2.564354   1.000000   1.000000
   20       -2.175870     -2.175870   1.000000   1.000000
   21        2.244485      2.244485   0.000000   0.000000
   22        2.541455      2.541455   0.000000   0.000000
   23        2.814207      2.814207   0.000000   0.000000
   24        2.871811      2.871811   0.000000   0.000000
   25        3.206395      3.206395   0.000000   0.000000
   26        3.457305      3.457305   0.000000   0.000000
   27        3.857309      3.857309   0.000000   0.000000
   28        4.200934      4.200934   0.000000   0.000000
   29        4.431442      4.431442   0.000000   0.000000
   30        4.984255      4.984255   0.000000   0.000000
   31        5.612257      5.612257   0.000000   0.000000
   32        5.762786      5.762786   0.000000   0.000000
   33        6.124976      6.124976   0.000000   0.000000
   34        6.207251      6.207251   0.000000   0.000000
   35        6.646618      6.646618   0.000000   0.000000
   36        6.859053      6.859053   0.000000   0.000000
   37        7.350689      7.350689   0.000000   0.000000
   38        7.716742      7.716742   0.000000   0.000000
   39        7.785118      7.785118   0.000000   0.000000
   40        8.056841      8.056841   0.000000   0.000000
   41        8.791607      8.791607   0.000000   0.000000
   42        9.291129      9.291129   0.000000   0.000000
   43        9.750072      9.750072   0.000000   0.000000
   44       10.170415     10.170415   0.000000   0.000000
   45       10.562906     10.562906   0.000000   0.000000
   46       10.791300     10.791300   0.000000   0.000000
   47       11.661173     11.661173   0.000000   0.000000
   48       11.952161     11.952161   0.000000   0.000000
 
 -0.1250000E+00  0.3750000E+00  0.1250000E+00  0.3125000E-01
    1      -36.010422    -36.010422   1.000000   1.000000
    2      -30.800987    -30.800987   1.000000   1.000000
    3      -30.665320    -30.665320   1.000000   1.000000
    4      -30.626593    -30.626593   1.000000   1.000000
    5      -18.133370    -18.133370   1.000000   1.000000
    6      -18.012382    -18.012382   1.000000   1.000000
    7      -17.908205    -17.908205   1.000000   1.000000
    8       -9.078574     -9.078574   1.000000   1.000000
    9       -8.513080     -8.513080   1.000000   1.000000
   10       -8.026596     -8.026596   1.000000   1.000000
   11       -7.337653     -7.337653   1.000000   1.000000
   12       -7.100193     -7.100193   1.000000   1.000000
   13       -6.822802     -6.822802   1.000000   1.000000
   14       -4.824963     -4.824963   1.000000   1.000000
   15       -3.567656     -3.567656   1.000000   1.000000
   16       -3.445022     -3.445022   1.000000   1.000000
   17       -3.237145     -3.237145   1.000000   1.000000
   18       -3.066519     -3.066519   1.000000   1.000000
   19       -2.666982     -2.666982   1.000000   1.000000
   20       -2.433617     -2.433617   1.000000   1.000000
   21        2.407656      2.407656   0.000000   0.000000
   22        2.511990      2.511990   0.000000   0.000000
   23        2.708258      2.708258   0.000000   0.000000
   24        2.840172      2.840172   0.000000   0.000000
   25        3.268502      3.268502   0.000000   0.000000
   26        3.619545      3.619545   0.000000   0.000000
   27        3.910266      3.910266   0.000000   0.000000
   28        4.093187      4.093187   0.000000   0.000000
   29        4.637782      4.637781   0.000000   0.000000
   30        5.052605      5.052605   0.000000   0.000000
   31        5.381463      5.381463   0.000000   0.000000
   32        5.598848      5.598847   0.000000   0.000000
   33        5.976685      5.976685   0.000000   0.000000
   34        6.247191      6.247190   0.000000   0.000000
   35        6.594237      6.594237   0.000000   0.000000
   36        6.871227      6.871227   0.000000   0.000000
   37        7.144328      7.144328   0.000000   0.000000
   38        7.237086      7.237086   0.000000   0.000000
   39        7.619803      7.619803   0.000000   0.000000
   40        8.489588      8.489588   0.000000   0.000000
   41        8.737492      8.737492   0.000000   0.000000
   42        9.234914      9.234914   0.000000   0.000000
   43        9.796458      9.796458   0.000000   0.000000
   44       10.119906     10.119906   0.000000   0.000000
   45       10.550114     10.550114   0.000000   0.000000
   46       11.172316     11.172316   0.000000   0.000000
   47       11.669471     11.669471   0.000000   0.000000
   48       12.040451     12.040432   0.000000   0.000000
 
  0.1250000E+00 -0.3750000E+00  0.1250000E+00  0.3125000E-01
    1      -36.010411    -36.010410   1.000000   1.000000
    2      -30.800989    -30.800989   1.000000   1.000000
    3      -30.665312    -30.665312   1.000000   1.000000
    4      -30.626647    -30.626647   1.000000   1.000000
    5      -18.133347    -18.133348   1.000000   1.000000
    6      -18.012250    -18.012250   1.000000   1.000000
    7      -17.907522    -17.907522   1.000000   1.000000
    8       -9.120086     -9.120086   1.000000   1.000000
    9       -8.524867     -8.524867   1.000000   1.000000
   10       -7.924177     -7.924176   1.000000   1.000000
   11       -7.325408     -7.325408   1.000000   1.000000
   12       -7.129903     -7.129903   1.000000   1.000000
   13       -6.871388     -6.871388   1.000000   1.000000
   14       -4.733147     -4.733147   1.000000   1.000000
   15       -3.571939     -3.571939   1.000000   1.000000
   16       -3.431913     -3.431913   1.000000   1.000000
   17       -3.253067     -3.253067   1.000000   1.000000
   18       -3.095577     -3.095577   1.000000   1.000000
   19       -2.705175     -2.705175   1.000000   1.000000
   20       -2.505657     -2.505657   1.000000   1.000000
   21        2.286466      2.286466   0.000000   0.000000
   22        2.525704      2.525704   0.000000   0.000000
   23        2.828621      2.828621   0.000000   0.000000
   24        2.948160      2.948160   0.000000   0.000000
   25        3.204461      3.204461   0.000000   0.000000
   26        3.625138      3.625138   0.000000   0.000000
   27        3.998857      3.998857   0.000000   0.000000
   28        4.193799      4.193799   0.000000   0.000000
   29        4.769910      4.769910   0.000000   0.000000
   30        5.076640      5.076640   0.000000   0.000000
   31        5.395398      5.395397   0.000000   0.000000
   32        5.643340      5.643340   0.000000   0.000000
   33        5.936497      5.936497   0.000000   0.000000
   34        6.181900      6.181900   0.000000   0.000000
   35        6.305201      6.305201   0.000000   0.000000
   36        6.793886      6.793886   0.000000   0.000000
   37        7.061692      7.061692   0.000000   0.000000
   38        7.463274      7.463274   0.000000   0.000000
   39        7.706420      7.706420   0.000000   0.000000
   40        8.447286      8.447286   0.000000   0.000000
   41        8.900988      8.900988   0.000000   0.000000
   42        9.279853      9.279853   0.000000   0.000000
   43        9.481780      9.481780   0.000000   0.000000
   44        9.936476      9.936476   0.000000   0.000000
   45       10.618827     10.618827   0.000000   0.000000
   46       11.103673     11.103673   0.000000   0.000000
   47       11.512230     11.512230   0.000000   0.000000
   48       11.784638     11.784638   0.000000   0.000000
 
  0.3750000E+00 -0.3750000E+00  0.1250000E+00  0.3125000E-01
    1      -36.010351    -36.010351   1.000000   1.000000
    2      -30.800973    -30.800973   1.000000   1.000000
    3      -30.665664    -30.665664   1.000000   1.000000
    4      -30.626663    -30.626663   1.000000   1.000000
    5      -18.132581    -18.132581   1.000000   1.000000
    6      -18.018996    -18.018996   1.000000   1.000000
    7      -17.907163    -17.907163   1.000000   1.000000
    8       -8.923644     -8.923644   1.000000   1.000000
    9       -8.411301     -8.411301   1.000000   1.000000
   10       -7.899723     -7.899723   1.000000   1.000000
   11       -7.715274     -7.715274   1.000000   1.000000
   12       -7.156959     -7.156959   1.000000   1.000000
   13       -6.761078     -6.761078   1.000000   1.000000
   14       -4.980500     -4.980500   1.000000   1.000000
   15       -3.613540     -3.613540   1.000000   1.000000
   16       -3.438079     -3.438079   1.000000   1.000000
   17       -3.264564     -3.264564   1.000000   1.000000
   18       -3.124419     -3.124419   1.000000   1.000000
   19       -2.658089     -2.658089   1.000000   1.000000
   20       -2.192033     -2.192033   1.000000   1.000000
   21        2.199597      2.199597   0.000000   0.000000
   22        2.519310      2.519310   0.000000   0.000000
   23        2.632535      2.632535   0.000000   0.000000
   24        2.904565      2.904565   0.000000   0.000000
   25        3.246257      3.246257   0.000000   0.000000
   26        3.756220      3.756220   0.000000   0.000000
   27        3.983604      3.983604   0.000000   0.000000
   28        4.140858      4.140858   0.000000   0.000000
   29        4.589275      4.589275   0.000000   0.000000
   30        4.990426      4.990426   0.000000   0.000000
   31        5.386810      5.386810   0.000000   0.000000
   32        5.793841      5.793841   0.000000   0.000000
   33        6.037367      6.037367   0.000000   0.000000
   34        6.336230      6.336230   0.000000   0.000000
   35        6.561782      6.561782   0.000000   0.000000
   36        7.038151      7.038152   0.000000   0.000000
   37        7.290759      7.290760   0.000000   0.000000
   38        7.676158      7.676158   0.000000   0.000000
   39        7.746427      7.746427   0.000000   0.000000
   40        8.118403      8.118403   0.000000   0.000000
   41        8.747656      8.747656   0.000000   0.000000
   42        9.361179      9.361179   0.000000   0.000000
   43        9.657092      9.657092   0.000000   0.000000
   44       10.275410     10.275410   0.000000   0.000000
   45       10.625954     10.625954   0.000000   0.000000
   46       10.813037     10.813037   0.000000   0.000000
   47       11.270190     11.270190   0.000000   0.000000
   48       11.909702     11.909702   0.000000   0.000000
 
 -0.3750000E+00 -0.3750000E+00  0.1250000E+00  0.3125000E-01
    1      -36.010363    -36.010363   1.000000   1.000000
    2      -30.800972    -30.800972   1.000000   1.000000
    3      -30.665673    -30.665673   1.000000   1.000000
    4      -30.626606    -30.626606   1.000000   1.000000
    5      -18.132512    -18.132513   1.000000   1.000000
    6      -18.019102    -18.019102   1.000000   1.000000
    7      -17.907834    -17.907834   1.000000   1.000000
    8       -8.922629     -8.922629   1.000000   1.000000
    9       -8.380489     -8.380489   1.000000   1.000000
   10       -8.028193     -8.028193   1.000000   1.000000
   11       -7.626833     -7.626833   1.000000   1.000000
   12       -7.145042     -7.145042   1.000000   1.000000
   13       -6.714984     -6.714984   1.000000   1.000000
   14       -5.058818     -5.058818   1.000000   1.000000
   15       -3.651109     -3.651109   1.000000   1.000000
   16       -3.435023     -3.435022   1.000000   1.000000
   17       -3.274172     -3.274172   1.000000   1.000000
   18       -3.104042     -3.104042   1.000000   1.000000
   19       -2.599885     -2.599884   1.000000   1.000000
   20       -2.180956     -2.180956   1.000000   1.000000
   21        2.219231      2.219231   0.000000   0.000000