    8    8   60    1
  0.8245990E+01  0.3426615E-09  0.3435312E-09  0.6564032E-09  0.5000000E-15
  1.000000000000000E-004
  CAR 
 unknown system                          
     27    590     20
 
  0.3742002E-15  0.3742002E-15  0.3742002E-15  0.8503401E-03
    1      -31.875575   1.000000
    2      -27.563086   1.000000
    3      -27.510240   1.000000
    4      -27.505899   1.000000
    5      -13.953708   1.000000
    6      -13.628793   1.000000
    7      -13.624050   1.000000
    8       -5.853373   1.000000
    9       -2.095471   1.000000
   10       -1.728864   1.000000
   11       -1.470367   1.000000
   12        2.840596   1.000000
   13        3.424132   1.000000
   14        4.636519   0.000000
   15        4.886018   0.000000
   16        5.047700   0.000000
   17        5.505345   0.000000
   18        6.447373   0.000000
   19        9.553475   0.000000
   20        9.621139   0.000000
 
  0.7142857E-01  0.3747003E-15  0.3677614E-15  0.1700680E-02
    1      -31.871763   1.000000
    2      -27.561104   1.000000
    3      -27.516945   1.000000
    4      -27.509057   1.000000
    5      -13.948291   1.000000
    6      -13.675753   1.000000
    7      -13.624570   1.000000
    8       -5.734085   1.000000
    9       -2.058097   1.000000
   10       -1.896660   1.000000
   11       -1.274788   1.000000
   12        2.368728   1.000000
   13        3.365782   1.000000
   14        4.670783   0.000000
   15        4.969496   0.000000
   16        5.371320   0.000000
   17        5.421355   0.000000
   18        6.849608   0.000000
   19        9.245769   0.000000
   20        9.361425   0.000000
 
  0.1428571E+00  0.3729655E-15  0.3747003E-15  0.1700680E-02
    1      -31.861030   1.000000
    2      -27.556438   1.000000
    3      -27.547108   1.000000
    4      -27.507227   1.000000
    5      -13.933281   1.000000
    6      -13.816527   1.000000
    7      -13.613163   1.000000
    8       -5.401253   1.000000
    9       -2.175582   1.000000
   10       -1.909862   1.000000
   11       -0.981549   1.000000
   12        1.515702   1.000000
   13        3.245780   1.000000
   14        4.507164   0.000000
   15        5.184507   0.000000
   16        5.219970   0.000000
   17        6.191632   0.000000
   18        7.613620   0.000000
   19        8.682818   0.000000
   20        8.866048   0.000000
 
  0.2142857E+00  0.3781697E-15  0.3885781E-15  0.1700680E-02
    1      -31.845346   1.000000
    2      -27.590510   1.000000
    3      -27.549800   1.000000
    4      -27.504538   1.000000
    5      -14.010335   1.000000
    6      -13.906113   1.000000
    7      -13.596697   1.000000
    8       -4.916539   1.000000
    9       -2.415333   1.000000
   10       -1.731224   1.000000
   11       -0.691662   1.000000
   12        0.710728   1.000000
   13        3.065759   1.000000
   14        4.423254   0.000000
   15        4.877792   0.000000
   16        5.541169   0.000000
   17        6.949535   0.000000
   18        7.741320   0.000000
   19        8.455315   0.000000
   20        8.950735   0.000000
 
  0.2857143E+00  0.3816392E-15  0.3608225E-15  0.1700680E-02
    1      -31.827692   1.000000
    2      -27.638284   1.000000
    3      -27.542965   1.000000
    4      -27.501477   1.000000
    5      -14.211145   1.000000
    6      -13.872046   1.000000
    7      -13.578015   1.000000
    8       -4.398124   1.000000
    9       -2.583632   1.000000
   10       -1.509872   1.000000
   11       -0.538369   1.000000
   12        0.131873   1.000000
   13        2.907119   1.000000
   14        4.406407   0.000000
   15        4.581860   0.000000
   16        5.692530   0.000000
   17        7.184495   0.000000
   18        7.781653   0.000000
   19        8.286640   0.000000
   20        9.295891   0.000000
 
  0.3571429E+00  0.3816392E-15  0.3330669E-15  0.1700680E-02
    1      -31.811563   1.000000
    2      -27.681104   1.000000
    3      -27.537305   1.000000
    4      -27.498710   1.000000
    5      -14.383112   1.000000
    6      -13.836236   1.000000
    7      -13.561004   1.000000
    8       -4.018776   1.000000
    9       -2.569973   1.000000
   10       -1.268835   1.000000
   11       -0.844712   1.000000
   12        0.061504   1.000000
   13        2.838671   1.000000
   14        4.259647   0.000000
   15        4.512115   0.000000
   16        5.678114   0.000000
   17        6.625630   0.000000
   18        8.099653   0.000000
   19        8.585854   0.000000
   20        9.360997   0.000000
 
  0.4285714E+00  0.3608225E-15  0.2775558E-15  0.1700680E-02
    1      -31.800274   1.000000
    2      -27.710458   1.000000
    3      -27.533483   1.000000
    4      -27.496854   1.000000
    5      -14.497364   1.000000
    6      -13.808292   1.000000
    7      -13.549239   1.000000
    8       -3.882692   1.000000
    9       -2.325074   1.000000
   10       -1.301622   1.000000
   11       -1.022591   1.000000
   12        0.136255   1.000000
   13        2.854285   1.000000
   14        4.096467   0.001493
   15        4.617402   0.000000
   16        5.412459   0.000000
   17        6.357829   0.000000
   18        8.075869   0.000000
   19        8.842202   0.000000
   20        9.525441   0.000000
 
  0.5000000E+00  0.3747003E-15  0.4440892E-15  0.8503401E-03
    1      -31.796224   1.000000
    2      -27.720912   1.000000
    3      -27.532211   1.000000
    4      -27.496104   1.000000
    5      -14.537313   1.000000
    6      -13.797880   1.000000
    7      -13.544936   1.000000
    8       -3.865797   1.000000
    9       -2.119602   1.000000
   10       -1.545620   1.000000
   11       -0.923501   1.000000
   12        0.157359   1.000000
   13        2.876104   1.000000
   14        4.038331   0.004935
   15        4.745508   0.000000
   16        5.159433   0.000000
   17        6.325173   0.000000
   18        8.063374   0.000000
   19        8.886012   0.000000
   20        9.507390   0.000000
 
  0.3807718E-15  0.8333333E-01  0.3677614E-15  0.1700680E-02
    1      -31.870403   1.000000
    2      -27.560823   1.000000
    3      -27.524405   1.000000
    4      -27.505118   1.000000
    5      -13.943680   1.000000
    6      -13.698271   1.000000
    7      -13.618477   1.000000
    8       -5.738829   1.000000
    9       -2.048147   1.000000
   10       -1.649880   1.000000
   11       -1.490110   1.000000
   12        2.267170   1.000000
   13        3.422491   1.000000
   14        4.922909   0.000000
   15        5.131359   0.000000
   16        5.148449   0.000000
   17        5.391680   0.000000
   18        6.694720   0.000000
   19        9.495021   0.000000
   20        9.616113   0.000000
 
  0.7142857E-01  0.8333333E-01  0.3747003E-15  0.1700680E-02
    1      -31.866594   1.000000
    2      -27.559005   1.000000
    3      -27.523929   1.000000
    4      -27.515865   1.000000
    5      -13.938197   1.000000
    6      -13.698060   1.000000
    7      -13.665705   1.000000
    8       -5.622873   1.000000
    9       -2.007495   1.000000
   10       -1.857975   1.000000
   11       -1.267442   1.000000
   12        2.004212   1.000000
   13        3.215698   1.000000
   14        4.905298   0.000000
   15        5.053129   0.000000
   16        5.299489   0.000000
   17        5.709178   0.000000
   18        7.000059   0.000000
   19        8.916113   0.000000
   20        9.219409   0.000000
 
  0.1428571E+00  0.8333333E-01  0.3608225E-15  0.1700680E-02
    1      -31.855881   1.000000
    2      -27.554383   1.000000
    3      -27.546040   1.000000
    4      -27.521666   1.000000
    5      -13.922804   1.000000
    6      -13.811578   1.000000
    7      -13.677899   1.000000
    8       -5.294513   1.000000
    9       -2.121432   1.000000
   10       -1.883324   1.000000
   11       -0.968811   1.000000
   12        1.363442   1.000000
   13        2.916598   1.000000
   14        4.860423   0.000000
   15        5.036496   0.000000
   16        5.295392   0.000000
   17        6.465303   0.000000
   18        7.662672   0.000000
   19        8.298286   0.000000
   20        8.773823   0.000000
 
  0.2142857E+00  0.8333333E-01  0.3608225E-15  0.1700680E-02
    1      -31.840244   1.000000
    2      -27.589519   1.000000
    3      -27.547795   1.000000
    4      -27.518877   1.000000
    5      -14.002489   1.000000
    6      -13.895653   1.000000
    7      -13.660003   1.000000
    8       -4.819161   1.000000
    9       -2.359333   1.000000
   10       -1.708391   1.000000
   11       -0.683696   1.000000
   12        0.650488   1.000000
   13        2.661711   1.000000
   14        4.632728   0.000000
   15        4.904604   0.000000
   16        5.665751   0.000000
   17        7.044965   0.000000
   18        7.756987   0.000000
   19        8.065630   0.000000
   20        8.970441   0.000000
 
  0.2857143E+00  0.8333333E-01  0.3885781E-15  0.1700680E-02
    1      -31.822661   1.000000
    2      -27.637223   1.000000
    3      -27.541047   1.000000
    4      -27.515865   1.000000
    5      -14.201474   1.000000
    6      -13.861870   1.000000
    7      -13.639600   1.000000
    8       -4.303287   1.000000
    9       -2.526892   1.000000
   10       -1.497474   1.000000
   11       -0.541494   1.000000
   12        0.119406   1.000000
   13        2.449536   1.000000
   14        4.316732   0.000000
   15        4.920059   0.000000
   16        5.849392   0.000000
   17        7.200972   0.000000
   18        7.723814   0.000000
   19        8.128281   0.000000
   20        9.313778   0.000000
 
  0.3571429E+00  0.8333333E-01  0.3330669E-15  0.1700680E-02
    1      -31.806599   1.000000
    2      -27.679834   1.000000
    3      -27.535270   1.000000
    4      -27.513023   1.000000
    5      -14.371815   1.000000
    6      -13.826370   1.000000
    7      -13.620817   1.000000
    8       -3.914264   1.000000
    9       -2.519723   1.000000
   10       -1.266775   1.000000
   11       -0.856681   1.000000
   12        0.086740   1.000000
   13        2.303886   1.000000
   14        4.048150   0.004684
   15        5.001856   0.000000
   16        5.903902   0.000000
   17        6.656144   0.000000
   18        8.083756   0.000000
   19        8.500796   0.000000
   20        9.276433   0.000000
 
  0.4285714E+00  0.8333333E-01  0.2775558E-15  0.1700680E-02
    1      -31.795375   1.000000
    2      -27.709213   1.000000
    3      -27.531544   1.000000
    4      -27.511026   1.000000
    5      -14.485368   1.000000
    6      -13.799381   1.000000
    7      -13.607685   1.000000
    8       -3.768461   1.000000
    9       -2.282163   1.000000
   10       -1.317404   1.000000
   11       -1.030538   1.000000
   12        0.180321   1.000000
   13        2.229131   1.000000
   14        3.872956   0.149549
   15        5.157846   0.000000
   16        5.787279   0.000000
   17        6.326151   0.000000
   18        8.173329   0.000000
   19        8.767504   0.000000
   20        9.236470   0.000000
 
  0.5000000E+00  0.8333333E-01  0.4440892E-15  0.1700680E-02
    1      -31.791353   1.000000
    2      -27.719745   1.000000
    3      -27.530202   1.000000
    4      -27.510294   1.000000
    5      -14.524941   1.000000
    6      -13.789197   1.000000
    7      -13.602835   1.000000
    8       -3.748967   1.000000
    9       -2.067004   1.000000
   10       -1.577406   1.000000
   11       -0.930047   1.000000
   12        0.206975   1.000000
   13        2.212301   1.000000
   14        3.813625   0.730032
   15        5.335458   0.000000
   16        5.543273   0.000000
   17        6.297799   0.000000
   18        8.195830   0.000000
   19        8.799298   0.000000
   20        9.254158   0.000000
 
 -0.4285714E+00  0.8333333E-01  0.3053113E-15  0.1700680E-02
    1      -31.795393   1.000000
    2      -27.709231   1.000000
    3      -27.531550   1.000000
    4      -27.511072   1.000000
    5      -14.485089   1.000000
    6      -13.799471   1.000000
    7      -13.607461   1.000000
    8       -3.771032   1.000000
    9       -2.287203   1.000000
   10       -1.311762   1.000000
   11       -1.027080   1.000000
   12        0.173174   1.000000
   13        2.235319   1.000000
   14        3.877076   0.119343
   15        5.151206   0.000000
   16        5.785087   0.000000
   17        6.340382   0.000000
   18        8.163951   0.000000
   19        8.777656   0.000000
   20        9.298916   0.000000
 
 -0.3571429E+00  0.8333333E-01  0.4440892E-15  0.1700680E-02
    1      -31.806632   1.000000
    2      -27.679901   1.000000
    3      -27.535329   1.000000
    4      -27.512995   1.000000
    5      -14.371427   1.000000
    6      -13.826691   1.000000
    7      -13.620332   1.000000
    8       -3.918140   1.000000
    9       -2.524038   1.000000
   10       -1.261289   1.000000
   11       -0.852741   1.000000
   12        0.075444   1.000000
   13        2.312256   1.000000
   14        4.055213   0.004287
   15        4.994397   0.000000
   16        5.901677   0.000000
   17        6.678645   0.000000
   18        8.065591   0.000000
   19        8.505244   0.000000
   20        9.314635   0.000000
 
 -0.2857143E+00  0.8333333E-01  0.4163336E-15  0.1700680E-02
    1      -31.822696   1.000000
    2      -27.637169   1.000000
    3      -27.541043   1.000000
    4      -27.515748   1.000000
    5      -14.200825   1.000000
    6      -13.862079   1.000000
    7      -13.638911   1.000000
    8       -4.304956   1.000000
    9       -2.530695   1.000000
   10       -1.491354   1.000000
   11       -0.543307   1.000000
   12        0.117863   1.000000
   13        2.457764   1.000000
   14        4.324239   0.000000
   15        4.915083   0.000000
   16        5.845355   0.000000
   17        7.252809   0.000000
   18        7.707279   0.000000
   19        8.052140   0.000000
   20        9.335273   0.000000
 
 -0.2142857E+00  0.8333333E-01  0.3885781E-15  0.1700680E-02
    1      -31.840282   1.000000
    2      -27.589536   1.000000
    3      -27.547804   1.000000
    4      -27.518871   1.000000
    5      -14.001861   1.000000
    6      -13.895968   1.000000
    7      -13.659557   1.000000
    8       -4.821613   1.000000
    9       -2.363357   1.000000
   10       -1.703191   1.000000
   11       -0.689869   1.000000
   12        0.658185   1.000000
   13        2.661914   1.000000
   14        4.636493   0.000000
   15        4.904023   0.000000
   16        5.659294   0.000000
   17        7.041166   0.000000
   18        7.783121   0.000000
   19        7.968784   0.000000
   20        9.029293   0.000000
 
 -0.1428571E+00  0.8333333E-01  0.3608225E-15  0.1700680E-02
    1      -31.855911   1.000000
    2      -27.554385   1.000000
    3      -27.546074   1.000000
    4      -27.521579   1.000000
    5      -13.923038   1.000000
    6      -13.810935   1.000000
    7      -13.677625   1.000000
    8       -5.295753   1.000000
    9       -2.125082   1.000000
   10       -1.879308   1.000000
   11       -0.972177   1.000000
   12        1.379086   1.000000
   13        2.904998   1.000000
   14        4.859820   0.000000
   15        5.046389   0.000000
   16        5.281095   0.000000
   17        6.456744   0.000000
   18        7.639649   0.000000
   19        8.214172   0.000000
   20        8.903260   0.000000
 
 -0.7142857E-01  0.8333333E-01  0.3920475E-15  0.1700680E-02
    1      -31.866612   1.000000
    2      -27.559022   1.000000
    3      -27.524019   1.000000
    4      -27.515765   1.000000
    5      -13.938382   1.000000
    6      -13.697336   1.000000
    7      -13.665930   1.000000
    8       -5.622661   1.000000
    9       -2.005672   1.000000
   10       -1.860731   1.000000
   11       -1.269034   1.000000
   12        2.023387   1.000000
   13        3.192383   1.000000
   14        4.917219   0.000000
   15        5.037060   0.000000
   16        5.298235   0.000000
   17        5.711322   0.000000
   18        6.990286   0.000000
   19        8.795552   0.000000
   20        9.359500   0.000000
 
  0.3781697E-15  0.1666667E+00  0.3885781E-15  0.1700680E-02
    1      -31.856237   1.000000
    2      -27.563862   1.000000
    3      -27.554871   1.000000
    4      -27.502612   1.000000
    5      -13.916325   1.000000
    6      -13.882508   1.000000
    7      -13.603419   1.000000
    8       -5.416838   1.000000
    9       -1.936312   1.000000
   10       -1.546252   1.000000
   11       -1.439741   1.000000
   12        1.310209   1.000000
   13        3.492379   0.999970
   14        4.895864   0.000000
   15        5.114335   0.000000
   16        5.484833   0.000000
   17        5.669257   0.000000
   18        7.493085   0.000000
   19        8.644007   0.000000
   20        8.971932   0.000000
 
  0.7142857E-01  0.1666667E+00  0.3608225E-15  0.1700680E-02
    1      -31.852446   1.000000
    2      -27.563140   1.000000
    3      -27.553209   1.000000
    4      -27.513375   1.000000
    5      -13.910970   1.000000
    6      -13.877228   1.000000
    7      -13.651872   1.000000
    8       -5.306509   1.000000
    9       -1.909578   1.000000
   10       -1.751739   1.000000
   11       -1.208690   1.000000
   12        1.191268   1.000000
   13        3.189808   1.000000
   14        4.892586   0.000000
   15        5.027816   0.000000
   16        5.465886   0.000000
   17        6.231649   0.000000
   18        7.594608   0.000000
   19        8.170939   0.000000
   20        8.990975   0.000000
 
  0.1428571E+00  0.1666667E+00  0.3608225E-15  0.1700680E-02
    1      -31.841807   1.000000
    2      -27.561200   1.000000
    3      -27.548738   1.000000
    4      -27.543301   1.000000
    5      -13.895295   1.000000
    6      -13.868056   1.000000
    7      -13.777625   1.000000
    8       -5.000984   1.000000
    9       -2.027268   1.000000
   10       -1.770313   1.000000
   11       -0.929068   1.000000
   12        0.872201   1.000000
   13        2.627877   1.000000
   14        4.623936   0.000000
   15        5.269870   0.000000
   16        5.585643   0.000000
   17        6.947403   0.000000
   18        7.502572   0.000000
   19        7.997460   0.000000
   20        8.834823   0.000000
 
  0.2142857E+00  0.1666667E+00  0.3885781E-15  0.1700680E-02
    1      -31.826298   1.000000
    2      -27.586737   1.000000
    3      -27.558161   1.000000
    4      -27.542304   1.000000
    5      -13.983590   1.000000
    6      -13.867114   1.000000
    7      -13.824700   1.000000
    8       -4.547387   1.000000
    9       -2.235923   1.000000
   10       -1.624431   1.000000
   11       -0.671097   1.000000
   12        0.416143   1.000000
   13        2.148849   1.000000
   14        4.231537   0.000001
   15        5.493036   0.000000
   16        5.975297   0.000000
   17        7.072774   0.000000
   18        7.260448   0.000000
   19        8.374359   0.000000
   20        9.077766   0.000000
 
  0.2857143E+00  0.1666667E+00  0.3608225E-15  0.1700680E-02
    1      -31.808899   1.000000
    2      -27.634269   1.000000
    3      -27.554786   1.000000
    4      -27.535592   1.000000
    5      -14.174267   1.000000
    6      -13.833683   1.000000
    7      -13.802195   1.000000
    8       -4.039369   1.000000
    9       -2.387098   1.000000
   10       -1.450605   1.000000
   11       -0.553703   1.000000
   12        0.035052   1.000000
   13        1.786820   1.000000
   14        3.857696   0.281015
   15        5.604519   0.000000
   16        6.201412   0.000000
   17        7.037646   0.000000
   18        7.565227   0.000000
   19        8.376338   0.000000
   20        9.216943   0.000000
 
  0.3571429E+00  0.1666667E+00  0.3330669E-15  0.1700680E-02
    1      -31.793034   1.000000
    2      -27.676591   1.000000
    3      -27.551734   1.000000
    4      -27.529808   1.000000
    5      -14.340445   1.000000
    6      -13.799760   1.000000
    7      -13.779514   1.000000
    8       -3.625721   1.000000
    9       -2.396376   1.000000
   10       -1.253001   1.000000
   11       -0.875599   1.000000
   12        0.092434   1.000000
   13        1.498958   1.000000
   14        3.552283   0.999395
   15        5.745809   0.000000
   16        6.168648   0.000000
   17        6.953077   0.000000
   18        8.140912   0.000000
   19        8.446619   0.000000
   20        9.060788   0.000000
 
  0.4285714E+00  0.1666667E+00  0.4440892E-15  0.1700680E-02
    1      -31.781970   1.000000
    2      -27.705797   1.000000
    3      -27.549635   1.000000
    4      -27.526015   1.000000
    5      -14.451821   1.000000
    6      -13.774437   1.000000
    7      -13.763480   1.000000
    8       -3.439555   1.000000
    9       -2.191563   1.000000
   10       -1.327806   1.000000
   11       -1.045588   1.000000
   12        0.263867   1.000000
   13        1.277753   1.000000
   14        3.349092   1.000000
   15        5.898484   0.000000
   16        6.156340   0.000000
   17        6.835627   0.000000
   18        8.422213   0.000000
   19        8.559979   0.000000
   20        8.974339   0.000000
 
  0.5000000E+00  0.1666667E+00  0.4440892E-15  0.1700680E-02
    1      -31.778011   1.000000
    2      -27.716232   1.000000
    3      -27.548902   1.000000
    4      -27.524842   1.000000
    5      -14.490724   1.000000
    6      -13.765244   1.000000
    7      -13.757710   1.000000
    8       -3.407272   1.000000
    9       -1.965826   1.000000
   10       -1.616744   1.000000
   11       -0.946796   1.000000
   12        0.323844   1.000000
   13        1.190482   1.000000
   14        3.279408   1.000000
   15        5.949061   0.000000
   16        6.191293   0.000000
   17        6.776799   0.000000
   18        8.512592   0.000000
   19        8.648323   0.000000
   20        8.695236   0.000000
 
 -0.4285714E+00  0.1666667E+00  0.3885781E-15  0.1700680E-02
    1      -31.781998   1.000000
    2      -27.705798   1.000000
    3      -27.549595   1.000000
    4      -27.526015   1.000000
    5      -14.451406   1.000000
    6      -13.774628   1.000000
    7      -13.762918   1.000000
    8       -3.444893   1.000000
    9       -2.200332   1.000000
   10       -1.315319   1.000000
   11       -1.037233   1.000000
   12        0.244624   1.000000
   13        1.288739   1.000000
   14        3.357056   1.000000
   15        5.902533   0.000000
   16        6.178378   0.000000
   17        6.817811   0.000000
   18        8.376230   0.000000
   19        8.557007   0.000000
   20        8.959245   0.000000
 
 -0.3571429E+00  0.1666667E+00  0.4440892E-15  0.1700680E-02
    1      -31.793085   1.000000
    2      -27.676599   1.000000
    3      -27.551656   1.000000
    4      -27.529792   1.000000
    5      -14.339688   1.000000
    6      -13.800044   1.000000
    7      -13.778604   1.000000
    8       -3.633319   1.000000
    9       -2.404315   1.000000
   10       -1.239058   1.000000
   11       -0.864590   1.000000
   12        0.069191   1.000000
   13        1.510452   1.000000
   14        3.565260   0.998986
   15        5.767097   0.000000
   16        6.180625   0.000000
   17        6.930606   0.000000
   18        8.107500   0.000000
   19        8.418949   0.000000
   20        9.040980   0.000000
 
 -0.2857143E+00  0.1666667E+00  0.4440892E-15  0.1700680E-02
    1      -31.808960   1.000000
    2      -27.634238   1.000000
    3      -27.554677   1.000000
    4      -27.535558   1.000000
    5      -14.173306   1.000000
    6      -13.834042   1.000000
    7      -13.801119   1.000000
    8       -4.044041   1.000000
    9       -2.395043   1.000000
   10       -1.436877   1.000000
   11       -0.556015   1.000000
   12        0.030218   1.000000
   13        1.791368   1.000000
   14        3.871366   0.161859
   15        5.641384   0.000000
   16        6.179594   0.000000
   17        7.028763   0.000000
   18        7.534237   0.000000
   19        8.315030   0.000000
   20        9.205951   0.000000
 
 -0.2142857E+00  0.1666667E+00  0.4232725E-15  0.1700680E-02
    1      -31.826359   1.000000
    2      -27.586753   1.000000
    3      -27.557805   1.000000
    4      -27.542248   1.000000
    5      -13.982586   1.000000
    6      -13.867543   1.000000
    7      -13.823405   1.000000
    8       -4.550120   1.000000
    9       -2.242107   1.000000
   10       -1.612655   1.000000
   11       -0.681039   1.000000
   12        0.432487   1.000000
   13        2.142259   1.000000
   14        4.242107   0.000001
   15        5.551323   0.000000
   16        5.911390   0.000000
   17        7.081037   0.000000
   18        7.181475   0.000000
   19        8.355637   0.000000
   20        9.131810   0.000000
 
 -0.1428571E+00  0.1666667E+00  0.3816392E-15  0.1700680E-02
    1      -31.841859   1.000000
    2      -27.561304   1.000000
    3      -27.548665   1.000000
    4      -27.543081   1.000000
    5      -13.895727   1.000000
    6      -13.867036   1.000000
    7      -13.776893   1.000000
    8       -5.002624   1.000000
    9       -2.032120   1.000000
   10       -1.761841   1.000000
   11       -0.936363   1.000000
   12        0.893245   1.000000
   13        2.610348   1.000000
   14        4.631161   0.000000
   15        5.334872   0.000000
   16        5.504610   0.000000
   17        6.943825   0.000000
   18        7.397107   0.000000
   19        8.003369   0.000000
   20        8.958957   0.000000
 
 -0.7142857E-01  0.1666667E+00  0.4093947E-15  0.1700680E-02
    1      -31.852475   1.000000
    2      -27.563150   1.000000
    3      -27.553181   1.000000
    4      -27.513334   1.000000
    5      -13.911256   1.000000
    6      -13.876684   1.000000
    7      -13.651512   1.000000
    8       -5.307476   1.000000
    9       -1.905766   1.000000
   10       -1.756659   1.000000
   11       -1.210225   1.000000
   12        1.207330   1.000000
   13        3.173379   1.000000
   14        4.906805   0.000000
   15        5.024219   0.000000
   16        5.442186   0.000000
   17        6.236291   0.000000
   18        7.567430   0.000000
   19        8.091803   0.000000
   20        9.109162   0.000000
 
  0.3937822E-15  0.2500000E+00  0.3885781E-15  0.1700680E-02
    1      -31.836781   1.000000
    2      -27.617193   1.000000
    3      -27.546893   1.000000
    4      -27.499330   1.000000
    5      -14.120314   1.000000
    6      -13.878858   1.000000
    7      -13.582958   1.000000
    8       -4.938868   1.000000
    9       -1.803813   1.000000
   10       -1.603765   1.000000
   11       -1.178763   1.000000
   12        0.413259   1.000000
   13        3.599713   0.996991
   14        4.705901   0.000000
   15        4.855164   0.000000
   16        5.880499   0.000000
   17        5.959861   0.000000
   18        8.150799   0.000000
   19        8.302999   0.000000
   20        8.499861   0.000000
 
  0.7142857E-01  0.2500000E+00  0.3608225E-15  0.1700680E-02
    1      -31.833008   1.000000
    2      -27.616344   1.000000
    3      -27.545210   1.000000
    4      -27.509867   1.000000
    5      -14.112582   1.000000
    6      -13.872383   1.000000
    7      -13.629602   1.000000
    8       -4.840931   1.000000
    9       -1.844205   1.000000
   10       -1.622966   1.000000
   11       -1.067967   1.000000
   12        0.356503   1.000000
   13        3.276882   1.000000
   14        4.562631   0.000000
   15        4.943634   0.000000
   16        5.796655   0.000000
   17        6.552772   0.000000
   18        7.774055   0.000000
   19        8.192137   0.000000
   20        8.645114   0.000000
 
  0.1428571E+00  0.2500000E+00  0.3885781E-15  0.1700680E-02
    1      -31.822480   1.000000
    2      -27.614342   1.000000
    3      -27.541292   1.000000
    4      -27.539661   1.000000
    5      -14.092041   1.000000
    6      -13.854877   1.000000
    7      -13.757136   1.000000
    8       -4.567388   1.000000
    9       -1.979621   1.000000
   10       -1.571048   1.000000
   11       -0.873849   1.000000
   12        0.206573   1.000000
   13        2.599186   1.000000
   14        4.189504   0.000017
   15        5.315917   0.000000
   16        5.976641   0.000000
   17        7.119012   0.000000
   18        7.366037   0.000000
   19        8.081918   0.000000
   20        9.027022   0.000000
 
  0.2142857E+00  0.2500000E+00  0.3053113E-15  0.1700680E-02
    1      -31.807156   1.000000
    2      -27.611343   1.000000
    3      -27.582798   1.000000
    4      -27.534914   1.000000
    5      -14.067657   1.000000
    6      -13.928864   1.000000
    7      -13.827549   1.000000
    8       -4.154403   1.000000
    9       -2.119559   1.000000
   10       -1.464933   1.000000
   11       -0.685675   1.000000
   12       -0.015331   1.000000
   13        1.924669   1.000000
   14        3.743421   1.051298
   15        5.753022   0.000000
   16        6.416759   0.000000
   17        6.879700   0.000000
   18        7.241758   0.000000
   19        8.672187   0.000000
   20        9.205910   0.000000
 
  0.2857143E+00  0.2500000E+00  0.3885781E-15  0.1700680E-02
    1      -31.790003   1.000000
    2      -27.630110   1.000000
    3      -27.607532   1.000000
    4      -27.528168   1.000000
    5      -14.141305   1.000000
    6      -14.010022   1.000000
    7      -13.794827   1.000000
    8       -3.665994   1.000000
    9       -2.219803   1.000000
   10       -1.353066   1.000000
   11       -0.581365   1.000000
   12       -0.235443   1.000000
   13        1.393647   1.000000
   14        3.330129   1.000000
   15        5.861641   0.000000
   16        6.877595   0.000000
   17        6.972491   0.000000
   18        7.409527   0.000000
   19        8.726209   0.000000
   20        9.072689   0.000000
 
  0.3571429E+00  0.2500000E+00  0.4440892E-15  0.1700680E-02
    1      -31.774425   1.000000
    2      -27.672274   1.000000
    3      -27.604396   1.000000