Automatically generated mesh
      26
Reciprocal lattice
    0.00000000000000    0.00000000000000    0.00000000000000             1
    0.25000000000000    0.00000000000000    0.00000000000000             2
    0.50000000000000    0.00000000000000    0.00000000000000             1
    0.00000000000000    0.25000000000000    0.00000000000000             2
    0.25000000000000    0.25000000000000    0.00000000000000             2
    0.50000000000000    0.25000000000000    0.00000000000000             2
   -0.25000000000000    0.25000000000000    0.00000000000000             2
    0.00000000000000    0.50000000000000    0.00000000000000             1
    0.25000000000000    0.50000000000000    0.00000000000000             2
    0.50000000000000    0.50000000000000    0.00000000000000             1
    0.00000000000000    0.00000000000000    0.33333333333333             2
    0.25000000000000    0.00000000000000    0.33333333333333             2
    0.50000000000000    0.00000000000000    0.33333333333333             2
   -0.25000000000000    0.00000000000000    0.33333333333333             2
    0.00000000000000    0.25000000000000    0.33333333333333             2
    0.25000000000000    0.25000000000000    0.33333333333333             2
    0.50000000000000    0.25000000000000    0.33333333333333             2
   -0.25000000000000    0.25000000000000    0.33333333333333             2
    0.00000000000000    0.50000000000000    0.33333333333333             2
    0.25000000000000    0.50000000000000    0.33333333333333             2
    0.50000000000000    0.50000000000000    0.33333333333333             2
   -0.25000000000000    0.50000000000000    0.33333333333333             2
    0.00000000000000   -0.25000000000000    0.33333333333333             2
    0.25000000000000   -0.25000000000000    0.33333333333333             2
    0.50000000000000   -0.25000000000000    0.33333333333333             2
   -0.25000000000000   -0.25000000000000    0.33333333333333             2
Tetrahedra
       144    0.00347222222222
         2         1         2         4        12
         2         2         4         5        12
         2         4         5        12        16
         2         1         4        11        12
         2         4        11        12        15
         2         4        12        15        16
         2         2         3         5        13
         2         3         5         6        13
         2         5         6        13        17
         2         2         5        12        13
         2         5        12        13        16
         2         5        13        16        17
         2         2         3         6        14
         2         2         6         7        14
         2         6         7        14        18
         2         3         6        13        14
         2         6        13        14        17
         2         6        14        17        18
         2         1         2         7        11
         2         1         4         7        11
         2         4         7        11        15
         2         2         7        11        14
         2         7        11        14        18
         2         7        11        15        18
         2         4         5         8        16
         2         5         8         9        16
         2         8         9        16        20
         2         4         8        15        16
         2         8        15        16        19
         2         8        16        19        20
         2         5         6         9        17
         2         6         9        10        17
         2         9        10        17        21
         2         5         9        16        17
         2         9        16        17        20
         2         9        17        20        21
         2         6         7        10        18
         2         7         9        10        18
         2         9        10        18        22
         2         6        10        17        18
         2        10        17        18        21
         2        10        18        21        22
         2         4         7         9        15
         2         4         8         9        15
         2         8         9        15        19
         2         7         9        15        18
         2         9        15        18        22
         2         9        15        19        22
         2         4         8         9        20
         2         4         7         9        20
         2         4         7        20        24
         2         4         8        19        20
         2         4        19        20        23
         2         4        20        23        24
         2         7         9        10        21
         2         6         7        10        21
         2         6         7        21        25
         2         7         9        20        21
         2         7        20        21        24
         2         7        21        24        25
         2         6         9        10        22
         2         5         6         9        22
         2         5         6        22        26
         2         6        10        21        22
         2         6        21        22        25
         2         6        22        25        26
         2         5         8         9        19
         2         4         5         8        19
         2         4         5        19        23
         2         5         9        19        22
         2         5        19        22        26
         2         5        19        23        26
         2         1         4         7        24
         2         1         2         7        24
         2         1         2        12        24
         2         1         4        23        24
         2         1        11        23        24
         2         1        11        12        24
         2         2         6         7        25
         2         2         3         6        25
         2         2         3        13        25
         2         2         7        24        25
         2         2        12        24        25
         2         2        12        13        25
         2         3         5         6        26
         2         2         3         5        26
         2         2         3        14        26
         2         3         6        25        26
         2         3        13        25        26
         2         3        13        14        26
         2         2         4         5        23
         2         1         2         4        23
         2         1         2        11        23
         2         2         5        23        26
         2         2        14        23        26
         2         2        11        14        23
         2        11        12        14        15
         2        12        14        15        16
         2        14        15        16        26
         2        11        11        14        15
         2        11        14        15        23
         2        14        15        23        26
         2        12        13        13        16
         2        13        13        16        17
         2        13        16        17        25
         2        12        13        14        16
         2        13        14        16        26
         2        13        16        25        26
         2        12        13        14        17
         2        12        14        17        18
         2        12        17        18        24
         2        12        13        13        17
         2        12        13        17        25
         2        12        17        24        25
         2        11        11        14        18
         2        11        11        15        18
         2        11        15        18        23
         2        11        12        14        18
         2        11        12        18        24
         2        11        18        23        24
         2        15        16        19        26
         2        16        19        20        26
         2        19        20        22        26
         2        15        19        23        26
         2        19        19        23        26
         2        19        19        22        26
         2        16        17        20        25
         2        17        20        21        25
         2        20        21        21        25
         2        16        20        25        26
         2        20        22        25        26
         2        20        21        22        25
         2        17        18        21        24
         2        18        21        22        24
         2        20        21        22        24
         2        17        21        24        25
         2        21        21        24        25
         2        20        21        21        24
         2        15        18        22        23
         2        15        19        22        23
         2        19        19        22        23
         2        18        22        23        24
         2        20        22        23        24
         2        19        20        22        23
