unknown system                          
           1
     3.307909    0.386703   -0.191207
    -0.802933    6.039313   -0.197472
    -0.988503   -2.646060    8.250483
   H    Nb   H    Sr
   5   1  14   1
Direct configuration=     1
   0.04377543  0.04756324  0.25289051
   0.53434797  0.02869132  0.41217274
   0.01968820  0.87476341  0.39185549
   0.09934568  0.52293464  0.52350983
   0.51040953  0.32011588  0.37663860
   0.11078167  0.20201872  0.46409371
   0.38527603  0.09146676  0.10224901
   0.43685531  0.12607920  0.03299513
   0.93138192  0.80933011  0.05918522
   0.80145539  0.15336549  0.82133977
   0.28300003  0.85281187  0.82020192
   0.90357321  0.70378930  0.98293094
   0.35439748  0.47269461  0.92680260
   0.32719809  0.40129033  0.83665515
   0.63064896  0.33921966  0.60460493
   0.89966597  0.51913314  0.16205453
   0.83817221  0.09582978  0.88684549
   0.82514652  0.42278989  0.18810581
   0.25928516  0.72165419  0.78290128
   0.21346151  0.08280477  0.63302936
   0.62506473  0.76313168  0.55221198
unknown system                          
           1
     3.305606    0.387435   -0.191508
    -0.801980    6.045971   -0.200625
    -0.988580   -2.653627    8.245062
   H    Nb   H    Sr
   5   1  14   1
Direct configuration=     2
   0.04385962  0.04764149  0.25286209
   0.53452914  0.02873888  0.41216235
   0.01977517  0.87498734  0.39184587
   0.09954868  0.52266453  0.52340448
   0.51038031  0.32004154  0.37667642
   0.11055833  0.20215183  0.46407029
   0.38513434  0.09152884  0.10241788
   0.43671446  0.12635370  0.03263509
   0.93117237  0.80922819  0.05912074
   0.80089682  0.15335118  0.82104182
   0.28302361  0.85277340  0.82027091
   0.90335291  0.70397786  0.98303713
   0.35415671  0.47215644  0.92638727
   0.32724963  0.40167855  0.83734275
   0.63086291  0.33921683  0.60461437
   0.90000100  0.51998317  0.16217823
   0.83831674  0.09544486  0.88698284
   0.82542906  0.42220619  0.18818795
   0.25933301  0.72137346  0.78281237
   0.21358315  0.08277565  0.63297627
   0.62505301  0.76320408  0.55224689
unknown system                          
           1
     3.306711    0.387084   -0.191364
    -0.802437    6.042779   -0.199113
    -0.988543   -2.649999    8.247662
   H    Nb   H    Sr
   5   1  14   1
Direct configuration=     3
   0.04381925  0.04760403  0.25287571
   0.53444222  0.02871612  0.41216732
   0.01973349  0.87488008  0.39185045
   0.09945126  0.52279402  0.52345507
   0.51039431  0.32007712  0.37665829
   0.11066552  0.20208806  0.46408151
   0.38520229  0.09149897  0.10233684
   0.43678220  0.12622246  0.03280781
   0.93127292  0.80927705  0.05915170
   0.80116492  0.15335821  0.82118480
   0.28301227  0.85279178  0.82023781
   0.90345862  0.70388744  0.98298615
   0.35427225  0.47241454  0.92658666
   0.32722478  0.40149208  0.83701275
   0.63076025  0.33921819  0.60460983
   0.89984038  0.51957589  0.16211872
   0.83824728  0.09562917  0.88691699
   0.82529335  0.42248577  0.18814862
   0.25931003  0.72150801  0.78285508
   0.21352479  0.08278964  0.63300175
   0.62505863  0.76316937  0.55223012
unknown system                          
           1
     3.303698    0.387634   -0.191596
    -0.801614    6.049606   -0.201324
    -0.988307   -2.656334    8.240975
   H    Nb   H    Sr
   5   1  14   1
Direct configuration=     4
   0.04389713  0.04768234  0.25278388
   0.53467201  0.02876568  0.41215762
   0.01983793  0.87517696  0.39183056
   0.09971722  0.52248519  0.52332087
   0.51035917  0.31997716  0.37670245
   0.11043973  0.20218690  0.46412452
   0.38524425  0.09174192  0.10225201
   0.43635011  0.12643259  0.03264253
   0.93105129  0.80936042  0.05922725
   0.80057625  0.15307059  0.82108487
   0.28301407  0.85254333  0.82028361
   0.90310098  0.70390824  0.98296161
   0.35418996  0.47233060  0.92683136
   0.32704922  0.40139111  0.83714319
   0.63108102  0.33924423  0.60464340
   0.89973417  0.52001048  0.16248028
   0.83827311  0.09538594  0.88679640
   0.82622958  0.42241374  0.18806566
   0.25940754  0.72131478  0.78278500
   0.21366629  0.08278164  0.63291717
   0.62503995  0.76327415  0.55223977
unknown system                          
           1
     3.294661    0.389285   -0.192291
    -0.799144    6.070089   -0.207958
    -0.987599   -2.675342    8.220915
   H    Nb   H    Sr
   5   1  14   1
Direct configuration=     5
   0.04413073  0.04791662  0.25250822
   0.53536193  0.02891411  0.41212854
   0.02015113  0.87606659  0.39177107
   0.10051602  0.52155896  0.52291773
   0.51025386  0.31967777  0.37683497
   0.10976168  0.20248337  0.46425367
   0.38536982  0.09246968  0.10199748
   0.43505215  0.12706183  0.03214636
   0.93038584  0.80961071  0.05945412
   0.79880886  0.15220839  0.82078453
   0.28301986  0.85179889  0.82042095
   0.90202704  0.70397064  0.98288790
   0.35394336  0.47208008  0.92756602
   0.32652242  0.40108912  0.83753476
   0.63204423  0.33932229  0.60474424
   0.89941528  0.52131451  0.16356617
   0.83835081  0.09465645  0.88643413
   0.82904075  0.42219717  0.18781664
   0.25970046  0.72073533  0.78257447
   0.21409104  0.08275723  0.63266324
   0.62498373  0.76358823  0.55226878
unknown system                          
           1
     3.276588    0.392587   -0.193682
    -0.794204    6.111054   -0.221226
    -0.986183   -2.713358    8.180795
   H    Nb   H    Sr
   5   1  14   1
Direct configuration=     6
   0.04459774  0.04838131  0.25195587
   0.53674500  0.02920931  0.41207064
   0.02077677  0.87783981  0.39165311
   0.10211899  0.51970805  0.52210830
   0.51004385  0.31908197  0.37710026
   0.10840159  0.20307615  0.46451288
   0.38561899  0.09391865  0.10148816
   0.43244610  0.12831343  0.03115197
   0.92905142  0.81011218  0.05990920
   0.79526582  0.15048799  0.82018060
   0.28303380  0.85031561  0.82069530
   0.89987298  0.70409526  0.98273989
   0.35345177  0.47158686  0.92903871
   0.32546796  0.40049062  0.83831935
   0.63397594  0.33947804  0.60494682
   0.89877591  0.52392408  0.16574530
   0.83850731  0.09319876  0.88570671
   0.83467797  0.42176108  0.18731777
   0.26028869  0.71957792  0.78215159
   0.21494209  0.08270612  0.63215416
   0.62487029  0.76421479  0.55232740
unknown system                          
           1
     3.274236    0.393039   -0.193648
    -0.793547    6.116740   -0.222457
    -0.985599   -2.717785    8.174608
   H    Nb   H    Sr
   5   1  14   1
Direct configuration=     7
   0.04441681  0.04841176  0.25167252
   0.53685075  0.02920948  0.41208335
   0.02079830  0.87798917  0.39154667
   0.10226540  0.51981281  0.52202780
   0.51009323  0.31892612  0.37709802
   0.10852256  0.20281417  0.46468133
   0.38573322  0.09424278  0.10131636
   0.43187628  0.12855549  0.03103474
   0.92876419  0.81011674  0.05992897
   0.79457919  0.15011015  0.82011212
   0.28304532  0.84981121  0.82073283
   0.89946603  0.70420995  0.98278708
   0.35338242  0.47160414  0.92948342
   0.32518739  0.40026763  0.83834514
   0.63457402  0.33965589  0.60515289
   0.89851262  0.52424702  0.16622944
   0.83849748  0.09295038  0.88549714
   0.83596905  0.42189113  0.18717829
   0.26042943  0.71952977  0.78211477
   0.21504825  0.08285634  0.63215578
   0.62491907  0.76426587  0.55209534
unknown system                          
           1
     3.271497    0.393565   -0.193608
    -0.792782    6.123363   -0.223891
    -0.984919   -2.722941    8.167402
   H    Nb   H    Sr
   5   1  14   1
Direct configuration=     8
   0.04420581  0.04844687  0.25134223
   0.53697400  0.02920968  0.41209816
   0.02082329  0.87816284  0.39142263
   0.10243596  0.51993459  0.52193399
   0.51015086  0.31874475  0.37709538
   0.10866372  0.20250951  0.46487764
   0.38586615  0.09461974  0.10111616
   0.43121200  0.12883711  0.03089811
   0.92842942  0.81012212  0.05995200
   0.79377906  0.14967046  0.82003225
   0.28305899  0.84922429  0.82077651
   0.89899170  0.70434351  0.98284210
   0.35330176  0.47162480  0.93000178
   0.32486048  0.40000822  0.83837516
   0.63527107  0.33986302  0.60539313
   0.89820579  0.52462346  0.16679381
   0.83848605  0.09266109  0.88525282
   0.83747369  0.42204212  0.18701574
   0.26059347  0.71947368  0.78207185
   0.21517192  0.08303113  0.63215770
   0.62497582  0.76432502  0.55182485
unknown system                          
           1
     3.270354    0.393931   -0.193298
    -0.792593    6.129130   -0.224859
    -0.983915   -2.726870    8.162641
   H    Nb   H    Sr
   5   1  14   1
Direct configuration=     9
   0.04372788  0.04847804  0.25094480
   0.53706286  0.02908479  0.41213141
   0.02077480  0.87809926  0.39120166
   0.10245262  0.52032919  0.52188298
   0.51028942  0.31845378  0.37706623
   0.10898464  0.20234274  0.46500182
   0.38593774  0.09494005  0.10104796
   0.43062843  0.12923315  0.03063170
   0.92811691  0.81021297  0.06003291
   0.79287514  0.14933494  0.81984380
   0.28317565  0.84889090  0.82095132
   0.89847856  0.70438136  0.98284295
   0.35310318  0.47141302  0.93024256
   0.32458725  0.39998434  0.83871824
   0.63617760  0.34017892  0.60580512
   0.89810410  0.52538271  0.16729658
   0.83854209  0.09225400  0.88510229
   0.83883377  0.42184978  0.18692849
   0.26069803  0.71911937  0.78193230
   0.21531764  0.08325837  0.63235353
   0.62506269  0.76425634  0.55131534
unknown system                          
           1
     3.267168    0.394951   -0.192435
    -0.792064    6.145200   -0.227555
    -0.981117   -2.737821    8.149374
   H    Nb   H    Sr
   5   1  14   1
Direct configuration=    10
   0.04239540  0.04856395  0.24983658
   0.53731068  0.02873708  0.41222407
   0.02063961  0.87792167  0.39058547
   0.10249879  0.52142777  0.52174085
   0.51067588  0.31764350  0.37698487
   0.10987945  0.20187860  0.46534803
   0.38613706  0.09583175  0.10085786
   0.42900122  0.13033535  0.02988895
   0.92724569  0.81046621  0.06025859
   0.79035541  0.14840046  0.81931828
   0.28350115  0.84796303  0.82143871
   0.89704802  0.70448687  0.98284538
   0.35254979  0.47082401  0.93091398
   0.32382567  0.39991880  0.83967496
   0.63870470  0.34105930  0.60695398
   0.89782023  0.52749809  0.16869878
   0.83869856  0.09112007  0.88468242
   0.84262543  0.42131365  0.18668501
   0.26098971  0.71813246  0.78154307
   0.21572377  0.08389156  0.63289969
   0.62530478  0.76406382  0.54989450
unknown system                          
           1
     3.267030    0.394937   -0.192059
    -0.792465    6.147966   -0.228376
    -0.980058   -2.740068    8.145945
   H    Nb   H    Sr
   5   1  14   1
Direct configuration=    11
   0.04191621  0.04867480  0.24957952
   0.53750749  0.02857826  0.41225783
   0.02064769  0.87785214  0.39035904
   0.10254093  0.52159395  0.52165326
   0.51085699  0.31730841  0.37696703
   0.11001874  0.20209621  0.46533996
   0.38625576  0.09616222  0.10072571
   0.42842585  0.13068365  0.02972349
   0.92695617  0.81052922  0.06031512
   0.78956347  0.14804385  0.81920632
   0.28362924  0.84760986  0.82160130
   0.89657808  0.70452963  0.98286010
   0.35238855  0.47071168  0.93124309
   0.32352815  0.39982093  0.83989650
   0.63951752  0.34132209  0.60734641
   0.89763292  0.52802219  0.16919068
   0.83870215  0.09079419  0.88447451
   0.84398366  0.42132059  0.18658223
   0.26108102  0.71784939  0.78141080
   0.21590224  0.08404075  0.63314906
   0.62529816  0.76393399  0.54939205
unknown system                          
           1
     3.266616    0.394896   -0.190932
    -0.793669    6.156262   -0.230837
    -0.976879   -2.746808    8.135657
   H    Nb   H    Sr
   5   1  14   1
Direct configuration=    12
   0.04047866  0.04900680  0.24880811
   0.53809792  0.02810203  0.41235907
   0.02067196  0.87764323  0.38967943
   0.10266739  0.52209215  0.52139042
   0.51140026  0.31630350  0.37691336
   0.11043666  0.20274875  0.46531578
   0.38661194  0.09715301  0.10032918
   0.42669980  0.13172790  0.02922708
   0.92608759  0.81071826  0.06048484
   0.78718755  0.14697434  0.81887030
   0.28401343  0.84655103  0.82208918
   0.89516825  0.70465794  0.98290434
   0.35190476  0.47037539  0.93223084
   0.32263554  0.39952783  0.84056142
   0.64195601  0.34211075  0.60852417
   0.89707098  0.52959468  0.17066718
   0.83871290  0.08981659  0.88385045
   0.84805845  0.42134112  0.18627358
   0.26135493  0.71700031  0.78101372
   0.21643764  0.08448857  0.63389753
   0.62527837  0.76354380  0.54788401
unknown system                          
           1
     3.267695    0.394587   -0.190932
    -0.794116    6.152643   -0.231527
    -0.977022   -2.746044    8.135863
   H    Nb   H    Sr
   5   1  14   1
Direct configuration=    13
   0.04040405  0.04924981  0.24901206
   0.53821925  0.02818994  0.41237671
   0.02083926  0.87777250  0.38963176
   0.10279476  0.52170933  0.52127614
   0.51162476  0.31621251  0.37689081
   0.11034895  0.20290753  0.46530477
   0.38664883  0.09721710  0.10030286
   0.42660259  0.13183155  0.02920930
   0.92602661  0.81069587  0.06046209
   0.78702848  0.14692089  0.81884339
   0.28406594  0.84640841  0.82210280
   0.89508164  0.70467633  0.98292897
   0.35187514  0.47040552  0.93236357
   0.32253721  0.39946052  0.84055960
   0.64189240  0.34204845  0.60850165
   0.89702749  0.52966007  0.17076063
   0.83871244  0.08973088  0.88380466
   0.84835005  0.42138967  0.18626200
   0.26135339  0.71701226  0.78097658
   0.21642627  0.08448597  0.63386569
   0.62507151  0.76349289  0.54783796
unknown system                          
           1
     3.270932    0.393660   -0.190932
    -0.795457    6.141785   -0.233597
    -0.977451   -2.743755    8.136483
   H    Nb   H    Sr
   5   1  14   1
Direct configuration=    14
   0.04018052  0.04997919  0.24962395
   0.53858322  0.02845383  0.41242963
   0.02134111  0.87816059  0.38948878
   0.10317638  0.52056022  0.52093318
   0.51229797  0.31593945  0.37682314
   0.11008605  0.20338413  0.46527182
   0.38675952  0.09740950  0.10022394
   0.42631116  0.13214269  0.02915599
   0.92584369  0.81062866  0.06039381
   0.78655136  0.14676040  0.81876263
   0.28422327  0.84598030  0.82214361
   0.89482191  0.70473150  0.98300288
   0.35178633  0.47049592  0.93276177
   0.32224224  0.39925844  0.84055413
   0.64170155  0.34186143  0.60843409
   0.89689710  0.52985632  0.17104101
   0.83871096  0.08947362  0.88366726
   0.84922461  0.42153545  0.18622724
   0.26134879  0.71704814  0.78086517
   0.21639215  0.08447817  0.63377017
   0.62445109  0.76334002  0.54769980
unknown system                          
           1
     3.272086    0.393430   -0.190920
    -0.795839    6.138809   -0.234041
    -0.977632   -2.742951    8.137130
   H    Nb   H    Sr
   5   1  14   1
Direct configuration=    15
   0.04006529  0.05021352  0.24979072
   0.53863507  0.02858355  0.41245067
   0.02148680  0.87824797  0.38942668
   0.10325037  0.52031978  0.52083129
   0.51255155  0.31586576  0.37678949
   0.11020204  0.20341301  0.46534851
   0.38679242  0.09747142  0.10021302
   0.42621475  0.13227273  0.02912128
   0.92580607  0.81070782  0.06044055
   0.78636909  0.14671410  0.81872515
   0.28432880  0.84607154  0.82223409
   0.89469712  0.70464777  0.98295510
   0.35170578  0.47042072  0.93276834
   0.32217640  0.39929158  0.84069564
   0.64160556  0.34180676  0.60840109
   0.89693649  0.53011463  0.17111646
   0.83871574  0.08936549  0.88362318
   0.84946670  0.42140452  0.18624211
   0.26129412  0.71680733  0.78074229
   0.21634166  0.08447518  0.63371230
   0.62428917  0.76326280  0.54764604
unknown system                          
           1
     3.275550    0.392738   -0.190885
    -0.796986    6.129882   -0.235373
    -0.978176   -2.740541    8.139072
   H    Nb   H    Sr
   5   1  14   1
Direct configuration=    16
   0.03971989  0.05091674  0.25029104
   0.53879068  0.02897290  0.41251384
   0.02192376  0.87851028  0.38924044
   0.10347210  0.51959816  0.52052560
   0.51331199  0.31564463  0.37668856
   0.11054991  0.20349970  0.46557856
   0.38689112  0.09765730  0.10018026
   0.42592570  0.13266306  0.02901720
   0.92569330  0.81094536  0.06058077
   0.78582244  0.14657512  0.81861269
   0.28464534  0.84634537  0.82250553
   0.89432282  0.70439644  0.98281178
   0.35146415  0.47019500  0.93278802
   0.32197895  0.39939097  0.84112012
   0.64131767  0.34164267  0.60830208
   0.89705482  0.53088993  0.17134283
   0.83873000  0.08904093  0.88349094
   0.85019262  0.42101158  0.18628667
   0.26112996  0.71608460  0.78037360
   0.21619026  0.08446622  0.63353870
   0.62380351  0.76303103  0.54748477
unknown system                          
           1
     3.277218    0.392432   -0.190760
    -0.797516    6.125922   -0.235673
    -0.978183   -2.739014    8.140926
   H    Nb   H    Sr
   5   1  14   1
Direct configuration=    17
   0.03947515  0.05119934  0.25042337
   0.53878034  0.02918232  0.41255085
   0.02205679  0.87850273  0.38912208
   0.10343959  0.51961301  0.52042254
   0.51368684  0.31555482  0.37664615
   0.11099525  0.20343131  0.46574416
   0.38696171  0.09777639  0.10013593
   0.42574401  0.13287814  0.02899130
   0.92559037  0.81095015  0.06056095
   0.78553163  0.14648261  0.81857648
   0.28477347  0.84621695  0.82255929
   0.89415279  0.70439573  0.98283092
   0.35136437  0.47015994  0.93292441
   0.32182636  0.39934814  0.84124422
   0.64119422  0.34160584  0.60827023
   0.89702747  0.53108481  0.17150631
   0.83871490  0.08887324  0.88338782
   0.85071943  0.42103658  0.18628273
   0.26106762  0.71594440  0.78024509
   0.21610252  0.08439311  0.63346785
   0.62372617  0.76284843  0.54738133
unknown system                          
           1
     3.282222    0.391514   -0.190387
    -0.799107    6.114043   -0.236572
    -0.978206   -2.734433    8.146487
   H    Nb   H    Sr
   5   1  14   1
Direct configuration=    18
   0.03874154  0.05204749  0.25082036
   0.53874950  0.02981094  0.41266188
   0.02245573  0.87848023  0.38876707
   0.10334216  0.51965766  0.52011344
   0.51481077  0.31528533  0.37651890
   0.11233047  0.20322595  0.46624079
   0.38717352  0.09813396  0.10000298
   0.42519945  0.13352382  0.02891368
   0.92528174  0.81096451  0.06050151
   0.78465954  0.14620486  0.81846790
   0.28515752  0.84583140  0.82272050
   0.89364293  0.70439352  0.98288835
   0.35106507  0.47005453  0.93333349
   0.32136871  0.39921941  0.84161645
   0.64082403  0.34149531  0.60817468
   0.89694556  0.53166968  0.17199665
   0.83866952  0.08836995  0.88307850
   0.85229909  0.42111174  0.18627087
   0.26088061  0.71552368  0.77985961
   0.21583942  0.08417369  0.63325534
   0.62349414  0.76230035  0.54707106
unknown system                          
           1
     3.284284    0.391157   -0.190002
    -0.800102    6.112283   -0.236743
    -0.977450   -2.733460    8.150513
   H    Nb   H    Sr
   5   1  14   1
Direct configuration=    19
   0.03842995  0.05229605  0.25085689
   0.53886412  0.02992426  0.41270698
   0.02247672  0.87821027  0.38859804
   0.10307930  0.52014411  0.52004590
   0.51518317  0.31516756  0.37654803
   0.11263980  0.20346699  0.46617932
   0.38726811  0.09831158  0.09995187
   0.42492317  0.13386177  0.02887324
   0.92511388  0.81095316  0.06044835
   0.78420276  0.14609009  0.81840010
   0.28530215  0.84542792  0.82271247
   0.89339530  0.70443926  0.98294033
   0.35092638  0.47003689  0.93359778
   0.32112048  0.39909871  0.84175333
   0.64087970  0.34156240  0.60822849
   0.89693285  0.53198713  0.17223949
   0.83865783  0.08809121  0.88293793
   0.85309970  0.42112903  0.18627431
   0.26079723  0.71550038  0.77972528
   0.21588504  0.08377868  0.63332666
   0.62375334  0.76200055  0.54692921
unknown system                          
           1
     3.288790    0.390376   -0.189160
    -0.802277    6.108435   -0.237117
    -0.975798   -2.731334    8.159315
   H    Nb   H    Sr
   5   1  14   1
Direct configuration=    20
   0.03774933  0.05283954  0.25093678
   0.53911461  0.03017207  0.41280554
   0.02252254  0.87762004  0.38822867
   0.10250547  0.52120793  0.51989837
   0.51599671  0.31491005  0.37661162
   0.11331593  0.20399420  0.46604499
   0.38747499  0.09870007  0.09984021
   0.42431984  0.13460083  0.02878493
   0.92474719  0.81092836  0.06033221
   0.78320474  0.14583909  0.81825200
   0.28561782  0.84454559  0.82269488
   0.89285426  0.70453919  0.98305394
   0.35062307  0.46999807  0.93417530
   0.32057789  0.39883461  0.84205245
   0.64100133  0.34170911  0.60834607
   0.89690509  0.53268114  0.17277015
   0.83863222  0.08748175  0.88263075
   0.85484894  0.42116695  0.18628172
   0.26061518  0.71544951  0.77943177
   0.21598431  0.08291480  0.63348246
   0.62431956  0.76134509  0.54661919
unknown system                          
           1
     3.290130    0.390158   -0.188867
    -0.802938    6.107808   -0.236813
    -0.975260   -2.730377    8.161739
   H    Nb   H    Sr
   5   1  14   1
Direct configuration=    21
   0.03756282  0.05300190  0.25092358
   0.53922457  0.03023215  0.41283855
   0.02253984  0.87745481  0.38812307
   0.10232675  0.52156895  0.51984351
   0.51624799  0.31485600  0.37664175
   0.11344957  0.20403098  0.46604487
   0.38755231  0.09884519  0.09978456
   0.42409465  0.13485477  0.02876997
   0.92463277  0.81098425  0.06033247
   0.78287800  0.14571576  0.81823233
   0.28577052  0.84448586  0.82276328
   0.89264355  0.70452005  0.98305075
   0.35046948  0.46987576  0.93424112
   0.32043046  0.39884137  0.84229568
   0.64109062  0.34179431  0.60839365
   0.89691375  0.53294796  0.17295620
   0.83859504  0.08729315  0.88248917
   0.85546260  0.42115686  0.18628691
   0.26050026  0.71517405  0.77924971
   0.21600018  0.08262915  0.63348527
   0.62454527  0.76121473  0.54652762
unknown system                          
           1
     3.294150    0.389504   -0.187986
    -0.804921    6.105927   -0.235901
    -0.973648   -2.727506    8.169010
   H    Nb   H    Sr
   5   1  14   1
Direct configuration=    22
   0.03700365  0.05348898  0.25088401
   0.53955433  0.03041240  0.41293753
   0.02259170  0.87695919  0.38780638
   0.10179106  0.52265212  0.51967894
   0.51700144  0.31469387  0.37673208
   0.11385037  0.20414133  0.46604450
   0.38778432  0.09928066  0.09961765
   0.42341956  0.13561660  0.02872510
   0.92428967  0.81115192  0.06033326
   0.78189813  0.14534571  0.81817338
   0.28622833  0.84430662  0.82296839
   0.89201167  0.70446259  0.98304123
   0.35000876  0.46950873  0.93443857
   0.31998813  0.39886143  0.84302514
   0.64135835  0.34204992  0.60853634
   0.89693973  0.53374832  0.17351412
   0.83848359  0.08672740  0.88206458
   0.85730281  0.42112665  0.18630237
   0.26015567  0.71434771  0.77870372
   0.21604757  0.08177213  0.63349372
   0.62522215  0.76082371  0.54625299
unknown system                          
           1
     3.294702    0.389372   -0.187823
    -0.805181    6.105066   -0.235402
    -0.973382   -2.726341    8.169940
   H    Nb   H    Sr
   5   1  14   1
Direct configuration=    23
   0.03695609  0.05362672  0.25085144
   0.53966869  0.03044848  0.41296730
   0.02266974  0.87698862  0.38777051
   0.10177338  0.52271877  0.51958532
   0.51715246  0.31470833  0.37676762
   0.11385586  0.20390620  0.46616856
   0.38783604  0.09940040  0.09958185
   0.42322006  0.13585117  0.02869466
   0.92417265  0.81117911  0.06030845
   0.78158850  0.14524004  0.81813820
   0.28633292  0.84417108  0.82298380
   0.89182886  0.70448816  0.98306121
   0.34989047  0.46944251  0.93455825
   0.31983526  0.39880704  0.84318119
   0.64145710  0.34214829  0.60855932
   0.89694664  0.53392443  0.17368867
   0.83846602  0.08654025  0.88195571
   0.85787822  0.42117353  0.18629975
   0.26006910  0.71417434  0.77857670
   0.21598541  0.08161254  0.63335183
   0.62534752  0.76092799  0.54622366
unknown system                          
           1
     3.296278    0.388996   -0.187357
    -0.805924    6.102603   -0.233976
    -0.972623   -2.723013    8.172595
   H    Nb   H    Sr
   5   1  14   1
Direct configuration=    24
   0.03682029  0.05402031  0.25075838
   0.53999538  0.03055155  0.41305231
   0.02289267  0.87707274  0.38766803
   0.10172293  0.52290928  0.51931787
   0.51758385  0.31474966  0.37686912
   0.11387141  0.20323426  0.46652300
   0.38798386  0.09974255  0.09947955
   0.42265026  0.13652144  0.02860770
   0.92383837  0.81125682  0.06023757
   0.78070400  0.14493810  0.81803771
   0.28663165  0.84378377  0.82302783
   0.89130665  0.70456120  0.98311829
   0.34955249  0.46925323  0.93490018
   0.31939847  0.39865151  0.84362697
   0.64173917  0.34242935  0.60862495
   0.89696637  0.53442751  0.17418727
   0.83841585  0.08600556  0.88164474
   0.85952193  0.42130753  0.18629222
   0.25982184  0.71367903  0.77821390
   0.21580787  0.08115662  0.63294653
   0.62570570  0.76122597  0.54613986
unknown system                          
           1
     3.296230    0.388758   -0.187142
    -0.806224    6.101554   -0.233607
    -0.971987   -2.721903    8.172979
   H    Nb   H    Sr
   5   1  14   1
Direct configuration=    25
   0.03688717  0.05426909  0.25080619
   0.54022814  0.03052740  0.41310060
   0.02308038  0.87723182  0.38766763
   0.10186030  0.52258381  0.51909675
   0.51761114  0.31476181  0.37699062
   0.11383919  0.20327687  0.46653687
   0.38805060  0.09992902  0.09942957
   0.42233235  0.13689431  0.02854904
   0.92364537  0.81131172  0.06019612
   0.78017348  0.14480173  0.81793754
   0.28672842  0.84332728  0.82295142
   0.89101064  0.70461666  0.98314847
   0.34940160  0.46922852  0.93520622
   0.31911885  0.39846521  0.84376217
   0.64186998  0.34254426  0.60864310
   0.89704063  0.53480206  0.17444709
   0.83842586  0.08566140  0.88151699
   0.86040499  0.42128088  0.18630245
   0.25973376  0.71362577  0.77809780
   0.21571194  0.08086610  0.63271165
   0.62577621  0.76147226  0.54617571
unknown system                          
           1
     3.296120    0.388213   -0.186648
    -0.806910    6.099152   -0.232761
    -0.970531   -2.719363    8.173859
   H    Nb   H    Sr
   5   1  14   1
Direct configuration=    26
   0.03704029  0.05483867  0.25091559
   0.54076094  0.03047212  0.41321111
   0.02351013  0.87759603  0.38766667
   0.10217483  0.52183874  0.51859061
   0.51767355  0.31478957  0.37726873
   0.11376543  0.20337442  0.46656863
   0.38820345  0.10035596  0.09931513
   0.42160474  0.13774800  0.02841476
   0.92320359  0.81143742  0.06010125
   0.77895902  0.14448954  0.81770828
   0.28694989  0.84228216  0.82277654
   0.89033300  0.70474362  0.98321758
   0.34905600  0.46917182  0.93590678
   0.31847861  0.39803859  0.84407168
   0.64216945  0.34280737  0.60868465
   0.89721057  0.53565950  0.17504180
   0.83844876  0.08487349  0.88122459
   0.86242649  0.42121991  0.18632583
   0.25953217  0.71350388  0.77783204
   0.21549240  0.08020105  0.63217403
   0.62593767  0.76203613  0.54625774
unknown system                          
           1
     3.295789    0.388089   -0.186512
    -0.807033    6.098982   -0.232503
    -0.970072   -2.718876    8.173488
   H    Nb   H    Sr
   5   1  14   1
Direct configuration=    27
   0.03710724  0.05500522  0.25095896
   0.54088716  0.03045739  0.41324224
   0.02363017  0.87769351  0.38766783
   0.10227292  0.52161366  0.51844032
   0.51765683  0.31480089  0.37735743
   0.11380372  0.20347574  0.46653962
   0.38825164  0.10048565  0.09926933
   0.42138520  0.13798689  0.02838918
   0.92308217  0.81150674  0.06009321
   0.77863857  0.14436340  0.81767729
   0.28704410  0.84215080  0.82278185
   0.89012551  0.70475637  0.98321687
   0.34892626  0.46908228  0.93601920
   0.31832189  0.39798072  0.84424797
   0.64224187  0.34286952  0.60869237
   0.89725501  0.53586314  0.17521773
   0.83842153  0.08467622  0.88110345
   0.86302955  0.42124582  0.18632960
   0.25943843  0.71329539  0.77769984
   0.21543184  0.08001009  0.63203730
   0.62597940  0.76215855  0.54629242
unknown system                          
           1
     3.294796    0.387719   -0.186103
    -0.807399    6.098470   -0.231730
    -0.968695   -2.717413    8.172377
   H    Nb   H    Sr
   5   1  14   1
Direct configuration=    28
   0.03730809  0.05550486  0.25108907
   0.54126583  0.03041322  0.41333562
   0.02399034  0.87798597  0.38767127
   0.10256725  0.52093845  0.51798945
   0.51760662  0.31483485  0.37762355
   0.11391865  0.20377968  0.46645260
   0.38839626  0.10087473  0.09913188
   0.42072655  0.13870355  0.02831242
   0.92271788  0.81171472  0.06006909
   0.77767712  0.14398498  0.81758435
   0.28732677  0.84175672  0.82279778
   0.88950298  0.70479462  0.98321474
   0.34853695  0.46881364  0.93635649
   0.31785158  0.39780706  0.84477687
   0.64245913  0.34305600  0.60871554
   0.89738829  0.53647403  0.17574550
   0.83833986  0.08408443  0.88074006
   0.86483890  0.42132358  0.18634089
   0.25915720  0.71266990  0.77730323
   0.21525017  0.07943719  0.63162712
   0.62610460  0.76252582  0.54639648
unknown system                          
           1
     3.294386    0.387824   -0.186144
    -0.807209    6.099371   -0.231763
    -0.968730   -2.717912    8.171910
   H    Nb   H    Sr
   5   1  14   1
Direct configuration=    29
   0.03732797  0.05548278  0.25106573
   0.54118416  0.03044246  0.41333117
   0.02395820  0.87794872  0.38766232
   0.10253888  0.52105415  0.51800610
   0.51759593  0.31485894  0.37761035
   0.11403485  0.20375302  0.46645768
   0.38839321  0.10087311  0.09912704
   0.42072944  0.13869001  0.02831791
   0.92272147  0.81173311  0.06007786
   0.77771064  0.14395995  0.81761012
   0.28734109  0.84189416  0.82283947
   0.88950140  0.70479005  0.98320565
   0.34852197  0.46876495  0.93629293
   0.31787488  0.39785214  0.84482857
   0.64244083  0.34303582  0.60871069
   0.89738662  0.53639588  0.17574362
   0.83831195  0.08411185  0.88071595
   0.86484338  0.42139428  0.18633691
   0.25913438  0.71253252  0.77726667
   0.21525202  0.07948599  0.63166648
   0.62612774  0.76242411  0.54640077
unknown system                          
           1