unknown system                          
           1
     3.664387   -0.355469    0.357285
     0.267997    5.368405    0.812154
     0.954673    1.730581    5.853648
   Sr   Nb   H 
   2   1   7
Direct configuration=     1
   0.06391600  0.58692600  0.71248400
   0.34496300  0.90099800  0.07664200
   0.65681800  0.27040600  0.39780600
   0.56230600  0.29824100  0.70406100
   0.83788300  0.15188000  0.13591900
   0.18986700  0.41536400  0.40519600
   0.22809600  0.07283400  0.38735200
   0.58833400  0.89621600  0.66510600
   0.71899000  0.63165900  0.36013700
   0.64665800  0.52395600  0.07896800
unknown system                          
           1
     3.695612   -0.359037    0.360590
     0.269319    5.411982    0.819281
     0.962954    1.744738    5.903111
   Sr   Nb   H 
   2   1   7
Direct configuration=     2
   0.06355422  0.58684928  0.71234843
   0.34501849  0.90093965  0.07676911
   0.65699516  0.27013168  0.39759069
   0.56200702  0.29818814  0.70399572
   0.83772468  0.15204188  0.13583652
   0.18986278  0.41535101  0.40536173
   0.22813019  0.07309373  0.38723667
   0.58838594  0.89627879  0.66506955
   0.71890725  0.63142506  0.36030702
   0.64724527  0.52418078  0.07915556
unknown system                          
           1
     3.709229   -0.360593    0.362032
     0.269895    5.430985    0.822389
     0.966565    1.750912    5.924681
   Sr   Nb   H 
   2   1   7
Direct configuration=     3
   0.06339778  0.58681607  0.71228982
   0.34504247  0.90091441  0.07682407
   0.65707174  0.27001301  0.39749759
   0.56187773  0.29816526  0.70396751
   0.83765625  0.15211190  0.13580085
   0.18986095  0.41534540  0.40543339
   0.22814501  0.07320608  0.38718679
   0.58840841  0.89630595  0.66505378
   0.71887143  0.63132385  0.36038056
   0.64749923  0.52427806  0.07923664
unknown system                          
           1
     3.718422   -0.361669    0.364467
     0.269419    5.430365    0.822891
     0.971356    1.749605    5.933479
   Sr   Nb   H 
   2   1   7
Direct configuration=     4
   0.06286661  0.58667577  0.71193176
   0.34536533  0.90068091  0.07722116
   0.65538495  0.27172499  0.39716708
   0.56167585  0.29795654  0.70334610
   0.83733337  0.15229380  0.13602799
   0.19052642  0.41488438  0.40559794
   0.22921618  0.07359099  0.38705241
   0.58833898  0.89678288  0.66466070
   0.71872116  0.62986058  0.36053642
   0.64840215  0.52402917  0.08012945
unknown system                          
           1
     3.724604   -0.362392    0.366104
     0.269099    5.429948    0.823229
     0.974577    1.748726    5.939394
   Sr   Nb   H 
   2   1   7
Direct configuration=     5
   0.06251049  0.58658120  0.71169145
   0.34558165  0.90052407  0.07748773
   0.65425375  0.27287612  0.39694534
   0.56154080  0.29781586  0.70292891
   0.83711664  0.15241622  0.13618054
   0.19097271  0.41457444  0.40570834
   0.22993490  0.07384990  0.38696195
   0.58829270  0.89710346  0.66439674
   0.71862010  0.62887648  0.36064121
   0.64900728  0.52386225  0.08072878
