       N       E                     dE             d eps       ncg     rms          rms(c)
DAV:   1     0.114931369869E+03    0.11493E+03   -0.90598E+03 21892   0.749E+02
DAV:   2    -0.278354033266E+02   -0.14277E+03   -0.13939E+03 27260   0.298E+02
DAV:   3    -0.357004657594E+02   -0.78651E+01   -0.78006E+01 39996   0.543E+01
DAV:   4    -0.358602859604E+02   -0.15982E+00   -0.15936E+00 30232   0.597E+00
DAV:   5    -0.358650815573E+02   -0.47956E-02   -0.47940E-02 34984   0.100E+00    0.335E+01
DAV:   6    -0.333827984707E+02    0.24823E+01   -0.78066E+00 32120   0.203E+01    0.129E+01
DAV:   7    -0.331087346679E+02    0.27406E+00   -0.92538E-01 33004   0.503E+00    0.765E+00
DAV:   8    -0.330931042306E+02    0.15630E-01   -0.25827E-01 32556   0.297E+00    0.191E+00
DAV:   9    -0.330874291469E+02    0.56751E-02   -0.52131E-02 28632   0.141E+00    0.347E-01
DAV:  10    -0.330872400637E+02    0.18908E-03   -0.27322E-03 29824   0.413E-01    0.112E-01
DAV:  11    -0.330872380140E+02    0.20497E-05   -0.15630E-04 19820   0.989E-02
   1 F= -.33087238E+02 E0= -.33087227E+02  d E =-.330872E+02
       N       E                     dE             d eps       ncg     rms          rms(c)
DAV:   1    -0.330876174481E+02   -0.37738E-03   -0.47204E-02 26844   0.219E+00    0.226E-01
DAV:   2    -0.330877228410E+02   -0.10539E-03   -0.62556E-03 25188   0.568E-01    0.644E-02
DAV:   3    -0.330876552899E+02    0.67551E-04   -0.22981E-04 26484   0.110E-01
   2 F= -.33087655E+02 E0= -.33087639E+02  d E =-.417276E-03
       N       E                     dE             d eps       ncg     rms          rms(c)
DAV:   1    -0.330875873102E+02    0.13553E-03   -0.30731E-02 26408   0.176E+00    0.186E-01
DAV:   2    -0.330876286715E+02   -0.41361E-04   -0.40703E-03 25032   0.456E-01    0.539E-02
DAV:   3    -0.330875823379E+02    0.46334E-04   -0.16485E-04 24820   0.923E-02
   3 F= -.33087582E+02 E0= -.33087560E+02  d E =-.344324E-03
