 running on   32 total cores
 distrk:  each k-point on   32 cores,    1 groups
 distr:  one band on    8 cores,    4 groups
 using from now: INCAR     
 vasp.5.4.4.18Apr17-6-g9f103f2a35 (build Nov 01 2019 12:17:22) complex          
  
 POSCAR found type information on POSCAR  H  Sr H  Nb
 POSCAR found :  4 types and      23 ions

 ----------------------------------------------------------------------------- 
|                                                                             |
|  ADVICE TO THIS USER RUNNING 'VASP/VAMP'   (HEAR YOUR MASTER'S VOICE ...):  |
|                                                                             |
|      You have a (more or less) 'large supercell' and for larger cells       |
|      it might be more efficient to use real space projection opertators     |
|      So try LREAL= Auto  in the INCAR   file.                               |
|      Mind:          For very  accurate calculation you might also keep the  |
|      reciprocal projection scheme          (i.e. LREAL=.FALSE.)             |
|                                                                             |
 ----------------------------------------------------------------------------- 

 LDA part: xc-table for Pade appr. of Perdew
 generate k-points for:    9    8    5
 POSCAR, INCAR and KPOINTS ok, starting setup
 FFT: planning ...
 WAVECAR not read
 entering main loop
       N       E                     dE             d eps       ncg     rms          rms(c)
DAV:   1     0.109221125630E+03    0.10922E+03   -0.13075E+04 14088   0.593E+02
DAV:   2    -0.752018312030E+02   -0.18442E+03   -0.17791E+03 16684   0.221E+02
DAV:   3    -0.865996418666E+02   -0.11398E+02   -0.11327E+02 20048   0.455E+01
DAV:   4    -0.870782959483E+02   -0.47865E+00   -0.47693E+00 21260   0.831E+00
DAV:   5    -0.870871286443E+02   -0.88327E-02   -0.82704E-02 18388   0.809E-01    0.396E+01
DAV:   6    -0.835322883713E+02    0.35548E+01   -0.38227E+00 19560   0.111E+01    0.180E+01
DAV:   7    -0.821738934421E+02    0.13584E+01   -0.21769E+00 20136   0.597E+00    0.657E+00
DAV:   8    -0.821250746201E+02    0.48819E-01   -0.41455E-01 18620   0.315E+00    0.198E+00
DAV:   9    -0.821266692516E+02   -0.15946E-02   -0.34548E-02 17872   0.106E+00    0.480E-01
DAV:  10    -0.821287260820E+02   -0.20568E-02   -0.13956E-02 18768   0.528E-01    0.249E-01
DAV:  11    -0.821291996302E+02   -0.47355E-03   -0.14461E-03 16956   0.225E-01    0.929E-02
DAV:  12    -0.821293262656E+02   -0.12664E-03   -0.56563E-04 17888   0.125E-01    0.442E-02
DAV:  13    -0.821293476671E+02   -0.21402E-04   -0.20440E-04 13668   0.622E-02
   1 F= -.82129348E+02 E0= -.82129923E+02  d E =-.821293E+02
 curvature:   0.00 expect dE= 0.000E+00 dE for cont linesearch  0.000E+00
 trial: gam= 0.00000 g(F)=  0.189E-02 g(S)=  0.368E-03 ort = 0.000E+00 (trialstep = 0.100E+01)
 search vector abs. value=  0.226E-02
 bond charge predicted
       N       E                     dE             d eps       ncg     rms          rms(c)
DAV:   1    -0.821299628278E+02   -0.63656E-03   -0.51478E-02 15584   0.135E+00    0.138E-01
DAV:   2    -0.821301674715E+02   -0.20464E-03   -0.43983E-03 17556   0.339E-01    0.735E-02
DAV:   3    -0.821301158024E+02    0.51669E-04   -0.10325E-04 10784   0.584E-02
   2 F= -.82130116E+02 E0= -.82130673E+02  d E =-.768135E-03
 trial-energy change:   -0.000768  1 .order   -0.000846   -0.002259    0.000567
 step:   0.7995(harm=  0.7995)  dis= 0.00266  next Energy=   -82.130251 (dE=-0.903E-03)
 bond charge predicted
       N       E                     dE             d eps       ncg     rms          rms(c)
DAV:   1    -0.821301775822E+02   -0.10111E-04   -0.25802E-03 15560   0.303E-01    0.385E-02
DAV:   2    -0.821301981123E+02   -0.20530E-04   -0.28976E-04 12908   0.864E-02
   3 F= -.82130198E+02 E0= -.82130752E+02  d E =-.850445E-03
 curvature:  -0.40 expect dE=-0.108E-02 dE for cont linesearch -0.763E-05
 trial: gam= 1.28420 g(F)=  0.249E-02 g(S)=  0.206E-03 ort =-0.208E-03 (trialstep = 0.368E+00)
 search vector abs. value=  0.589E-02
 reached required accuracy - stopping structural energy minimisation
