unknown system                          
           1
     4.756030    0.047825    0.260765
     0.362479    4.913300   -0.067165
     1.347030   -0.117514    7.505007
   H    Sr   H    Nb
  16   1   5   1
Direct configuration=     1
   0.60830357  0.13951754  0.76310101
   0.70288978  0.20484440  0.68566365
   0.59156286  0.74243275  0.62656001
   0.65620461  0.65101102  0.68744231
   0.12364916  0.17302857  0.89025920
   0.07032745  0.18284002  0.80424994
   0.14836658  0.89619953  0.53845035
   0.99652675  0.93506782  0.51010182
   0.53066085  0.44298544  0.98206292
   0.57272403  0.56574069  0.92586296
   0.09803391  0.60953225  0.83240704
   0.07563150  0.76188167  0.84532683
   0.18851004  0.20920101  0.11182520
   0.44457323  0.29281302  0.52041818
   0.28853955  0.37899998  0.53247843
   0.33591034  0.47208335  0.26830915
   0.82980518  0.61915470  0.18746482
   0.29750896  0.83039714  0.18104252
   0.91868298  0.06240466  0.31140458
   0.97409658  0.38325526  0.44525395
   0.60511051  0.13061659  0.15011609
   0.52007796  0.89796605  0.41455758
   0.26873062  0.13156154  0.32704846
unknown system                          
           1
     4.756094    0.048194    0.262812
     0.362876    4.913292   -0.067893
     1.350457   -0.118812    7.501817
   H    Sr   H    Nb
  16   1   5   1
Direct configuration=     2
   0.60856078  0.13953375  0.76309747
   0.70240772  0.20440479  0.68611985
   0.59129684  0.74261450  0.62641630
   0.65639988  0.65053528  0.68737636
   0.12370149  0.17309544  0.89041465
   0.07015195  0.18296569  0.80411260
   0.14811324  0.89619567  0.53838366
   0.99656941  0.93500737  0.51003159
   0.53072062  0.44340534  0.98193484
   0.57255060  0.56589322  0.92601467
   0.09792825  0.60956708  0.83223760
   0.07561843  0.76205293  0.84531622
   0.18887067  0.20920516  0.11176211
   0.44406814  0.29301479  0.52037523
   0.28917116  0.37839635  0.53260879
   0.33605355  0.47218828  0.26834540
   0.82990864  0.61902520  0.18746614
   0.29747951  0.83043662  0.18106038
   0.91877454  0.06271425  0.31143939
   0.97419835  0.38346883  0.44545912
   0.60529677  0.13051506  0.15000409
   0.51995291  0.89805840  0.41452871
   0.26863354  0.13124099  0.32690184
unknown system                          
           1
     4.756081    0.048120    0.262402
     0.362797    4.913293   -0.067747
     1.349770   -0.118552    7.502457
   H    Sr   H    Nb
  16   1   5   1
Direct configuration=     3
   0.60850919  0.13953051  0.76309820
   0.70250447  0.20449292  0.68602830
   0.59135017  0.74257806  0.62644511
   0.65636070  0.65063069  0.68738961
   0.12369102  0.17308202  0.89038346
   0.07018713  0.18294050  0.80414014
   0.14816404  0.89619644  0.53839702
   0.99656084  0.93501950  0.51004568
   0.53070862  0.44332114  0.98196053
   0.57258541  0.56586262  0.92598422
   0.09794941  0.60956010  0.83227159
   0.07562105  0.76201858  0.84531834
   0.18879833  0.20920433  0.11177479
   0.44416944  0.29297432  0.52038382
   0.28904449  0.37851741  0.53258268
   0.33602484  0.47216723  0.26833814
   0.82988789  0.61905117  0.18746588
   0.29748542  0.83042870  0.18105680
   0.91875619  0.06265216  0.31143240
   0.97417798  0.38342599  0.44541796
   0.60525939  0.13053543  0.15002657
   0.51997799  0.89803988  0.41453449
   0.26865298  0.13130528  0.32693126
