  12  12   0   0
  0.1013614E+02  0.3619754E-09  0.5842232E-09  0.5798406E-09  0.5000000E-15
  1.000000000000000E-004
  CAR 
 unknown system                          
     10.12228403    -34.62162736  301      3.62850039      1.00000000
    -34.622  0.0000E+00  0.0000E+00
    -34.472  0.0000E+00  0.0000E+00
    -34.323  0.0000E+00  0.0000E+00
    -34.174  0.0000E+00  0.0000E+00
    -34.025  0.0000E+00  0.0000E+00
    -33.876  0.0000E+00  0.0000E+00
    -33.727  0.0000E+00  0.0000E+00
    -33.578  0.0000E+00  0.0000E+00
    -33.428  0.4705E-30  0.7017E-31
    -33.279  0.2653E-20  0.3956E-21
    -33.130  0.1558E-12  0.2323E-13
    -32.981  0.8726E-07  0.1301E-07
    -32.832  0.3394E-03  0.5064E-04
    -32.683 -0.1052E-01 -0.1518E-02
    -32.534  0.2813E+00  0.4043E-01
    -32.384  0.1797E+00  0.6724E-01
    -32.235 -0.3975E-02  0.6665E-01
    -32.086  0.1365E-03  0.6667E-01
    -31.937  0.1544E-07  0.6667E-01
    -31.788  0.1331E-13  0.6667E-01
    -31.639  0.0000E+00  0.6667E-01
    -31.490  0.0000E+00  0.6667E-01
    -31.340  0.0000E+00  0.6667E-01
    -31.191  0.0000E+00  0.6667E-01
    -31.042  0.0000E+00  0.6667E-01
    -30.893  0.0000E+00  0.6667E-01
    -30.744  0.0000E+00  0.6667E-01
    -30.595  0.0000E+00  0.6667E-01
    -30.446  0.0000E+00  0.6667E-01
    -30.296  0.0000E+00  0.6667E-01
    -30.147  0.0000E+00  0.6667E-01
    -29.998  0.0000E+00  0.6667E-01
    -29.849  0.0000E+00  0.6667E-01
    -29.700  0.0000E+00  0.6667E-01
    -29.551  0.0000E+00  0.6667E-01
    -29.402  0.0000E+00  0.6667E-01
    -29.252  0.0000E+00  0.6667E-01
    -29.103  0.0000E+00  0.6667E-01
    -28.954  0.1688E-31  0.6667E-01
    -28.805  0.1939E-21  0.6667E-01
    -28.656  0.2290E-13  0.6667E-01
    -28.507  0.2485E-07  0.6667E-01
    -28.357  0.1714E-03  0.6669E-01
    -28.208 -0.6587E-02  0.6571E-01
    -28.059  0.1629E+00  0.9001E-01
    -27.910  0.6217E-01  0.9928E-01
    -27.761  0.1769E+00  0.1257E+00
    -27.612  0.2640E+00  0.1650E+00
    -27.463  0.1048E-01  0.1666E+00
    -27.313  0.4449E-03  0.1667E+00
    -27.164  0.6275E-05  0.1667E+00
    -27.015  0.1662E-09  0.1667E+00
    -26.866  0.3609E-16  0.1667E+00
    -26.717  0.0000E+00  0.1667E+00
    -26.568  0.0000E+00  0.1667E+00
    -26.419  0.0000E+00  0.1667E+00
    -26.269  0.0000E+00  0.1667E+00
    -26.120  0.0000E+00  0.1667E+00
    -25.971  0.0000E+00  0.1667E+00
    -25.822  0.0000E+00  0.1667E+00
    -25.673  0.0000E+00  0.1667E+00
    -25.524  0.0000E+00  0.1667E+00
    -25.375  0.0000E+00  0.1667E+00
    -25.225  0.0000E+00  0.1667E+00
    -25.076  0.0000E+00  0.1667E+00
    -24.927  0.0000E+00  0.1667E+00
    -24.778  0.0000E+00  0.1667E+00
    -24.629  0.0000E+00  0.1667E+00
    -24.480  0.0000E+00  0.1667E+00
    -24.331  0.0000E+00  0.1667E+00
    -24.181  0.0000E+00  0.1667E+00
    -24.032  0.0000E+00  0.1667E+00
    -23.883  0.0000E+00  0.1667E+00
    -23.734  0.0000E+00  0.1667E+00
    -23.585  0.0000E+00  0.1667E+00
    -23.436  0.0000E+00  0.1667E+00
    -23.287  0.0000E+00  0.1667E+00
    -23.137  0.0000E+00  0.1667E+00
    -22.988  0.0000E+00  0.1667E+00
    -22.839  0.0000E+00  0.1667E+00
    -22.690  0.0000E+00  0.1667E+00
    -22.541  0.0000E+00  0.1667E+00
    -22.392  0.0000E+00  0.1667E+00
    -22.242  0.0000E+00  0.1667E+00
    -22.093  0.0000E+00  0.1667E+00
    -21.944  0.0000E+00  0.1667E+00
    -21.795  0.0000E+00  0.1667E+00
    -21.646  0.0000E+00  0.1667E+00
    -21.497  0.0000E+00  0.1667E+00
    -21.348  0.0000E+00  0.1667E+00
    -21.198  0.0000E+00  0.1667E+00
    -21.049  0.0000E+00  0.1667E+00
    -20.900  0.0000E+00  0.1667E+00
    -20.751  0.0000E+00  0.1667E+00
    -20.602  0.0000E+00  0.1667E+00
    -20.453  0.0000E+00  0.1667E+00
    -20.304  0.0000E+00  0.1667E+00
    -20.154  0.0000E+00  0.1667E+00
    -20.005  0.0000E+00  0.1667E+00
    -19.856  0.0000E+00  0.1667E+00
    -19.707  0.0000E+00  0.1667E+00
    -19.558  0.0000E+00  0.1667E+00
    -19.409  0.0000E+00  0.1667E+00
    -19.260  0.0000E+00  0.1667E+00
    -19.110  0.0000E+00  0.1667E+00
    -18.961  0.0000E+00  0.1667E+00
    -18.812  0.0000E+00  0.1667E+00
    -18.663  0.0000E+00  0.1667E+00
    -18.514  0.0000E+00  0.1667E+00
    -18.365  0.0000E+00  0.1667E+00
    -18.216  0.0000E+00  0.1667E+00
    -18.066  0.0000E+00  0.1667E+00
    -17.917  0.0000E+00  0.1667E+00
    -17.768  0.0000E+00  0.1667E+00
    -17.619  0.0000E+00  0.1667E+00
    -17.470  0.0000E+00  0.1667E+00
    -17.321  0.0000E+00  0.1667E+00
    -17.172  0.0000E+00  0.1667E+00
    -17.022  0.0000E+00  0.1667E+00
    -16.873  0.0000E+00  0.1667E+00
    -16.724  0.0000E+00  0.1667E+00
    -16.575  0.0000E+00  0.1667E+00
    -16.426  0.0000E+00  0.1667E+00
    -16.277  0.0000E+00  0.1667E+00
    -16.127  0.0000E+00  0.1667E+00
    -15.978  0.0000E+00  0.1667E+00
    -15.829  0.8634E-29  0.1667E+00
    -15.680  0.1988E-19  0.1667E+00
    -15.531  0.4850E-12  0.1667E+00
    -15.382  0.1146E-06  0.1667E+00
    -15.233  0.1860E-03  0.1667E+00
    -15.083 -0.3168E-02  0.1662E+00
    -14.934  0.1178E+00  0.1838E+00
    -14.785  0.3590E+00  0.2373E+00
    -14.636  0.2852E+00  0.2799E+00
    -14.487  0.2901E+00  0.3232E+00
    -14.338  0.2925E+00  0.3668E+00
    -14.189 -0.1525E-02  0.3666E+00
    -14.039  0.7354E-03  0.3667E+00
    -13.890  0.3417E-05  0.3667E+00
    -13.741  0.7111E-10  0.3667E+00
    -13.592  0.1252E-16  0.3667E+00
    -13.443  0.0000E+00  0.3667E+00
    -13.294  0.0000E+00  0.3667E+00
    -13.145  0.0000E+00  0.3667E+00
    -12.995  0.0000E+00  0.3667E+00
    -12.846  0.0000E+00  0.3667E+00
    -12.697  0.0000E+00  0.3667E+00
    -12.548  0.0000E+00  0.3667E+00
    -12.399  0.0000E+00  0.3667E+00
    -12.250  0.0000E+00  0.3667E+00
    -12.101  0.0000E+00  0.3667E+00
    -11.951  0.0000E+00  0.3667E+00
    -11.802  0.0000E+00  0.3667E+00
    -11.653  0.0000E+00  0.3667E+00
    -11.504  0.0000E+00  0.3667E+00
    -11.355  0.0000E+00  0.3667E+00
    -11.206  0.0000E+00  0.3667E+00
    -11.057  0.0000E+00  0.3667E+00
    -10.907  0.0000E+00  0.3667E+00
    -10.758  0.0000E+00  0.3667E+00
    -10.609  0.0000E+00  0.3667E+00
    -10.460  0.0000E+00  0.3667E+00
    -10.311  0.0000E+00  0.3667E+00
    -10.162  0.0000E+00  0.3667E+00
    -10.012  0.0000E+00  0.3667E+00
     -9.863  0.0000E+00  0.3667E+00
     -9.714  0.0000E+00  0.3667E+00
     -9.565  0.0000E+00  0.3667E+00
     -9.416  0.0000E+00  0.3667E+00
     -9.267  0.0000E+00  0.3667E+00
     -9.118  0.0000E+00  0.3667E+00
     -8.968  0.0000E+00  0.3667E+00
     -8.819  0.0000E+00  0.3667E+00
     -8.670  0.0000E+00  0.3667E+00
     -8.521  0.0000E+00  0.3667E+00
     -8.372  0.0000E+00  0.3667E+00
     -8.223  0.0000E+00  0.3667E+00
     -8.074  0.0000E+00  0.3667E+00
     -7.924  0.0000E+00  0.3667E+00
     -7.775  0.7259E-36  0.3667E+00
     -7.626  0.1721E-25  0.3667E+00
     -7.477  0.4170E-17  0.3667E+00
     -7.328  0.9667E-11  0.3667E+00
     -7.179  0.1901E-06  0.3667E+00
     -7.030  0.1776E-04  0.3667E+00
     -6.880  0.8810E-04  0.3667E+00
     -6.731  0.8791E-02  0.3680E+00
     -6.582  0.2548E-01  0.3718E+00
     -6.433  0.4723E-01  0.3788E+00
     -6.284  0.4438E-01  0.3855E+00
     -6.135  0.4704E-01  0.3925E+00
     -5.986  0.4452E-01  0.3991E+00
     -5.836  0.6059E-02  0.4000E+00
     -5.687 -0.1210E-03  0.4000E+00
     -5.538  0.8067E-05  0.4000E+00
     -5.389  0.2034E-08  0.4000E+00
     -5.240  0.8292E-11  0.4000E+00
     -5.091  0.2169E-06  0.4000E+00
     -4.941  0.1425E-04  0.4000E+00
     -4.792  0.2695E-03  0.4000E+00
     -4.643  0.9067E-02  0.4014E+00
     -4.494  0.2032E-01  0.4044E+00
     -4.345  0.1719E-01  0.4070E+00
     -4.196  0.2007E-01  0.4100E+00
     -4.047  0.1815E-01  0.4127E+00
     -3.897  0.1076E-01  0.4143E+00
     -3.748  0.1933E-01  0.4172E+00
     -3.599  0.1608E-01  0.4196E+00
     -3.450  0.7006E-02  0.4206E+00
     -3.301  0.2013E-01  0.4236E+00
     -3.152  0.2185E-01  0.4269E+00
     -3.003  0.3133E-01  0.4316E+00
     -2.853  0.1205E-01  0.4334E+00
     -2.704  0.1647E-02  0.4336E+00
     -2.555  0.5953E-02  0.4345E+00
     -2.406  0.3764E-01  0.4401E+00
     -2.257  0.5720E-01  0.4486E+00
     -2.108  0.9887E-01  0.4634E+00
     -1.959  0.7813E-01  0.4750E+00
     -1.809  0.6157E-01  0.4842E+00
     -1.660  0.5745E-01  0.4928E+00
     -1.511  0.8473E-01  0.5054E+00
     -1.362  0.1060E+00  0.5212E+00
     -1.213  0.1327E+00  0.5410E+00
     -1.064  0.7266E-01  0.5519E+00
     -0.915  0.7088E-01  0.5624E+00
     -0.765  0.2955E-01  0.5668E+00
     -0.616  0.1617E-01  0.5692E+00
     -0.467  0.6808E-01  0.5794E+00
     -0.318  0.1066E+00  0.5953E+00
     -0.169  0.8856E-01  0.6085E+00
     -0.020  0.2676E-01  0.6125E+00
      0.129  0.3015E-01  0.6170E+00
      0.279  0.8221E-02  0.6182E+00
      0.428 -0.2053E-03  0.6182E+00
      0.577 -0.1715E-03  0.6182E+00
      0.726  0.7957E-02  0.6193E+00
      0.875  0.2332E-01  0.6228E+00
      1.024  0.9204E-02  0.6242E+00
      1.174  0.3182E-03  0.6242E+00
      1.323 -0.1841E-03  0.6242E+00
      1.472  0.5682E-02  0.6251E+00
      1.621  0.1451E-01  0.6272E+00
      1.770  0.1868E-01  0.6300E+00
      1.919  0.2165E-01  0.6332E+00
      2.068  0.2318E-01  0.6367E+00
      2.218  0.2031E-01  0.6397E+00
      2.367  0.1949E-01  0.6426E+00
      2.516  0.2382E-01  0.6462E+00
      2.665  0.2117E-01  0.6493E+00
      2.814  0.1017E-01  0.6509E+00
      2.963  0.3266E-02  0.6513E+00
      3.112  0.3119E-01  0.6560E+00
      3.262  0.1358E-01  0.6580E+00
      3.411  0.1063E-01  0.6596E+00
      3.560  0.3401E-01  0.6647E+00
      3.709  0.2667E-01  0.6687E+00
      3.858  0.3064E-01  0.6732E+00
      4.007  0.4696E-01  0.6802E+00
      4.156  0.6931E-01  0.6906E+00
      4.306  0.4722E-01  0.6976E+00
      4.455  0.5170E-01  0.7053E+00
      4.604  0.6179E-01  0.7145E+00
      4.753  0.9731E-01  0.7291E+00
      4.902  0.8192E-01  0.7413E+00
      5.051  0.5816E-01  0.7499E+00
      5.200  0.8432E-01  0.7625E+00
      5.350  0.9350E-01  0.7765E+00
      5.499  0.9065E-01  0.7900E+00
      5.648  0.1099E+00  0.8064E+00
      5.797  0.8126E-01  0.8185E+00
      5.946  0.5525E-01  0.8267E+00
      6.095  0.3294E-01  0.8317E+00
      6.244  0.4253E-01  0.8380E+00
      6.394  0.8783E-01  0.8511E+00
      6.543  0.1020E+00  0.8663E+00
      6.692  0.6059E-01  0.8753E+00
      6.841  0.7852E-01  0.8871E+00
      6.990  0.7613E-01  0.8984E+00
      7.139  0.7397E-01  0.9094E+00
      7.289  0.7276E-01  0.9203E+00
      7.438  0.4859E-01  0.9275E+00
      7.587  0.2113E-01  0.9307E+00
      7.736  0.1067E-01  0.9323E+00
      7.885  0.5314E-02  0.9331E+00
      8.034  0.4106E-03  0.9331E+00
      8.183  0.1340E-02  0.9333E+00
      8.333 -0.5915E-04  0.9333E+00
      8.482  0.2408E-05  0.9333E+00
      8.631  0.1103E-08  0.9333E+00
      8.780  0.2787E-14  0.9333E+00
      8.929  0.0000E+00  0.9333E+00
      9.078  0.0000E+00  0.9333E+00
      9.227  0.0000E+00  0.9333E+00
      9.377  0.0000E+00  0.9333E+00
      9.526  0.0000E+00  0.9333E+00
      9.675  0.0000E+00  0.9333E+00
      9.824  0.0000E+00  0.9333E+00
      9.973  0.0000E+00  0.9333E+00
     10.122  0.0000E+00  0.9333E+00
