 running on   32 total cores
 distrk:  each k-point on   32 cores,    1 groups
 distr:  one band on    8 cores,    4 groups
 using from now: INCAR     
 vasp.5.4.4.18Apr17-6-g9f103f2a35 (build Nov 01 2019 12:17:22) complex          
  
 POSCAR found type information on POSCAR  Nb H  Sr H  Sr
 POSCAR found :  5 types and      12 ions
 LDA part: xc-table for Pade appr. of Perdew
 generate k-points for:   11    7    7
 POSCAR, INCAR and KPOINTS ok, starting setup
 FFT: planning ...
 WAVECAR not read
 entering main loop
       N       E                     dE             d eps       ncg     rms          rms(c)
DAV:   1     0.177042314216E+03    0.17704E+03   -0.13493E+04 15496   0.777E+02
DAV:   2    -0.347730510056E+02   -0.21182E+03   -0.20731E+03 18948   0.302E+02
DAV:   3    -0.492104377204E+02   -0.14437E+02   -0.14372E+02 24896   0.604E+01
DAV:   4    -0.500089959004E+02   -0.79856E+00   -0.79682E+00 24724   0.119E+01
DAV:   5    -0.500251662636E+02   -0.16170E-01   -0.16168E-01 24076   0.162E+00    0.389E+01
DAV:   6    -0.473172969379E+02    0.27079E+01   -0.53195E+00 21720   0.130E+01    0.190E+01
DAV:   7    -0.464829312144E+02    0.83437E+00   -0.22845E+00 21456   0.628E+00    0.799E+00
DAV:   8    -0.464820693789E+02    0.86184E-03   -0.58333E-01 24876   0.397E+00    0.293E+00
DAV:   9    -0.464741654962E+02    0.79039E-02   -0.11127E-01 19492   0.157E+00    0.745E-01
DAV:  10    -0.464737237359E+02    0.44176E-03   -0.83598E-03 18948   0.535E-01    0.250E-01
DAV:  11    -0.464740826954E+02   -0.35896E-03   -0.97783E-04 20232   0.172E-01    0.700E-02
DAV:  12    -0.464742339766E+02   -0.15128E-03   -0.20213E-04 15196   0.759E-02    0.197E-02
DAV:  13    -0.464742488106E+02   -0.14834E-04   -0.36455E-05 10856   0.343E-02
   1 F= -.46474249E+02 E0= -.46474455E+02  d E =-.464742E+02
 curvature:   0.00 expect dE= 0.000E+00 dE for cont linesearch  0.000E+00
 trial: gam= 0.00000 g(F)=  0.215E-02 g(S)=  0.863E-04 ort = 0.000E+00 (trialstep = 0.100E+01)
 search vector abs. value=  0.224E-02
 bond charge predicted
       N       E                     dE             d eps       ncg     rms          rms(c)
DAV:   1    -0.464734765670E+02    0.75741E-03   -0.10160E-01 18516   0.220E+00    0.139E-01
DAV:   2    -0.464741396788E+02   -0.66311E-03   -0.88869E-03 17856   0.474E-01    0.815E-02
DAV:   3    -0.464740942268E+02    0.45452E-04   -0.21566E-04 21056   0.790E-02
   2 F= -.46474094E+02 E0= -.46474283E+02  d E =0.154584E-03
 trial-energy change:    0.000155  1 .order    0.000075   -0.002241    0.002392
 step:   0.4837(harm=  0.4837)  dis= 0.00314  next Energy=   -46.474791 (dE=-0.542E-03)
 bond charge predicted
       N       E                     dE             d eps       ncg     rms          rms(c)
DAV:   1    -0.464745819497E+02   -0.44227E-03   -0.28234E-02 18424   0.117E+00    0.721E-02
DAV:   2    -0.464747802495E+02   -0.19830E-03   -0.25550E-03 17472   0.259E-01    0.400E-02
DAV:   3    -0.464747648190E+02    0.15431E-04   -0.47442E-05 13764   0.413E-02
   3 F= -.46474765E+02 E0= -.46474964E+02  d E =-.516008E-03
 curvature:  -0.24 expect dE=-0.146E-03 dE for cont linesearch -0.398E-05
 trial: gam= 0.35594 g(F)=  0.552E-03 g(S)=  0.535E-04 ort =-0.192E-03 (trialstep = 0.897E+00)
 search vector abs. value=  0.753E-03
 reached required accuracy - stopping structural energy minimisation
