unknown system                          
           1
     3.847584   -0.257080   -0.830075
     0.193129    6.331941   -0.413657
     0.709880    1.888782    2.647232
   Sr   Nb   H 
   1   1   6
Direct configuration=     1
   0.82470700  0.64451500  0.39504300
   0.29787800  0.13170500  0.40541200
   0.45294500  0.45620600  0.08484500
   0.06493500  0.14587600  0.89475400
   0.33006900  0.78803000  0.73810500
   0.86205700  0.98677600  0.55435900
   0.55548300  0.11848900  0.92047600
   0.95535900  0.34474000  0.19459800
unknown system                          
           1
     3.884604   -0.259757   -0.838045
     0.194749    6.387985   -0.415670
     0.716251    1.906212    2.671213
   Sr   Nb   H 
   1   1   6
Direct configuration=     2
   0.82468709  0.64443834  0.39506858
   0.29660025  0.13216265  0.40482851
   0.45255987  0.45575268  0.08527325
   0.06520494  0.14588149  0.89461026
   0.33007325  0.78840617  0.73808002
   0.86265510  0.98690872  0.55409528
   0.55579267  0.11837438  0.92076576
   0.95585984  0.34441257  0.19487033
unknown system                          
           1
     3.903433   -0.261119   -0.842099
     0.195573    6.416491   -0.416694
     0.719491    1.915078    2.683411
   Sr   Nb   H 
   1   1   6
Direct configuration=     3
   0.82467705  0.64439968  0.39508150
   0.29595655  0.13239342  0.40453426
   0.45236582  0.45552407  0.08548925
   0.06534093  0.14588426  0.89453781
   0.33007541  0.78859586  0.73806733
   0.86295642  0.98697566  0.55396232
   0.55594867  0.11831658  0.92091185
   0.95611215  0.34424746  0.19500769
unknown system                          
           1
     3.920710   -0.264302   -0.844502
     0.191902    6.417523   -0.414971
     0.719740    1.915757    2.684490
   Sr   Nb   H 
   1   1   6
Direct configuration=     4
   0.82444981  0.64434404  0.39512460
   0.29361032  0.13209215  0.40456105
   0.45189414  0.45410869  0.08685906
   0.06699601  0.14582133  0.89454523
   0.32979937  0.79054665  0.73649194
   0.86486931  0.98740162  0.55338477
   0.55435349  0.11830108  0.92114983
   0.95746055  0.34372144  0.19547554
unknown system                          
           1
     3.952779   -0.270212   -0.848963
     0.185088    6.419440   -0.411773
     0.720201    1.917019    2.686493
   Sr   Nb   H 
   1   1   6
Direct configuration=     5
   0.82402974  0.64424058  0.39520476
   0.28927372  0.13153103  0.40461270
   0.45101984  0.45148119  0.08940187
   0.07005464  0.14570587  0.89455779
   0.32929281  0.79416731  0.73356792
   0.86840529  0.98819380  0.55231148
   0.55140542  0.11827103  0.92159259
   0.95995155  0.34274619  0.19634290
unknown system                          
           1
     3.971507   -0.274023   -0.851031
     0.179566    6.418787   -0.413553
     0.719733    1.915320    2.684113
   Sr   Nb   H 
   1   1   6
Direct configuration=     6
   0.82357773  0.64407252  0.39536087
   0.28963290  0.13183991  0.40425469
   0.45079631  0.45057214  0.09025254
   0.07095749  0.14562956  0.89449761
   0.32885599  0.79508741  0.73294890
   0.86944614  0.98823265  0.55212966
   0.54975214  0.11822552  0.92180104
   0.96041429  0.34267729  0.19634668
unknown system                          
           1
     4.005682   -0.280975   -0.854805
     0.169489    6.417594   -0.416800
     0.718878    1.912220    2.679771
   Sr   Nb   H 
   1   1   6
Direct configuration=     7
   0.82275635  0.64376541  0.39564617
   0.29028601  0.13240384  0.40360102
   0.45038826  0.44891335  0.09180473
   0.07259720  0.14549130  0.89438657
   0.32806467  0.79676567  0.73182056
   0.87133675  0.98830461  0.55179652
   0.54674916  0.11814075  0.92218348
   0.96125461  0.34255207  0.19635294
