 running on   16 total cores
 distrk:  each k-point on   16 cores,    1 groups
 distr:  one band on    1 cores,   16 groups
 using from now: INCAR     
 vasp.5.4.4.18Apr17-6-g9f103f2a35 (build Nov 01 2019 12:17:22) complex          
  
 POSCAR found type information on POSCAR  Sr Nb H 
 POSCAR found :  3 types and      12 ions

 ----------------------------------------------------------------------------- 
|                                                                             |
|           W    W    AA    RRRRR   N    N  II  N    N   GGGG   !!!           |
|           W    W   A  A   R    R  NN   N  II  NN   N  G    G  !!!           |
|           W    W  A    A  R    R  N N  N  II  N N  N  G       !!!           |
|           W WW W  AAAAAA  RRRRR   N  N N  II  N  N N  G  GGG   !            |
|           WW  WW  A    A  R   R   N   NN  II  N   NN  G    G                |
|           W    W  A    A  R    R  N    N  II  N    N   GGGG   !!!           |
|                                                                             |
|      For optimal performance we recommend to set                            |
|        NCORE= 4 - approx SQRT( number of cores)                             |
|      NCORE specifies how many cores store one orbital (NPAR=cpu/NCORE).     |
|      This setting can  greatly improve the performance of VASP for DFT.     |
|      The default,   NCORE=1            might be grossly inefficient         |
|      on modern multi-core architectures or massively parallel machines.     |
|      Do your own testing !!!!                                               |
|      Unfortunately you need to use the default for GW and RPA calculations. |
|      (for HF NCORE is supported but not extensively tested yet)             |
|                                                                             |
 ----------------------------------------------------------------------------- 

 LDA part: xc-table for Pade appr. of Perdew
 POSCAR, INCAR and KPOINTS ok, starting setup
 FFT: planning ...
 WAVECAR not read
 entering main loop
       N       E                     dE             d eps       ncg     rms          rms(c)
DAV:   1     0.147253338678E+03    0.14725E+03   -0.14515E+04  8192   0.861E+02
DAV:   2    -0.336974303132E+02   -0.18095E+03   -0.16738E+03  9552   0.242E+02
DAV:   3    -0.439001260449E+02   -0.10203E+02   -0.10068E+02 15872   0.497E+01
DAV:   4    -0.440008440282E+02   -0.10072E+00   -0.10074E+00  8448   0.405E+00
DAV:   5    -0.440032551271E+02   -0.24111E-02   -0.24119E-02 14048   0.592E-01    0.317E+01
RMM:   6    -0.447801486832E+02   -0.77689E+00   -0.44333E+00  8771   0.832E+00    0.150E+01
RMM:   7    -0.442920745516E+02    0.48807E+00   -0.16622E+00  8804   0.705E+00    0.702E+00
RMM:   8    -0.443835301142E+02   -0.91456E-01   -0.30372E-01  8675   0.401E+00    0.406E+00
RMM:   9    -0.443939438138E+02   -0.10414E-01   -0.53626E-02  8460   0.173E+00    0.170E+00
RMM:  10    -0.443977926950E+02   -0.38489E-02   -0.27937E-02  8397   0.103E+00    0.706E-01
RMM:  11    -0.443993022682E+02   -0.15096E-02   -0.43613E-03  7525   0.619E-01    0.251E-01
RMM:  12    -0.443999850362E+02   -0.68277E-03   -0.97409E-04  6575   0.236E-01    0.140E-01
RMM:  13    -0.444004195527E+02   -0.43452E-03   -0.47690E-04  5867   0.148E-01
   1 F= -.44400420E+02 E0= -.44400420E+02  d E =-.444004E+02  mag=     0.8933
 curvature:   0.00 expect dE= 0.000E+00 dE for cont linesearch  0.000E+00
 trial: gam= 0.00000 g(F)=  0.929E-02 g(S)=  0.725E-01 ort = 0.000E+00 (trialstep = 0.100E+01)
 search vector abs. value=  0.818E-01
 bond charge predicted
       N       E                     dE             d eps       ncg     rms          rms(c)
DAV:   1    -0.446063845756E+02   -0.20640E+00   -0.29130E+00 12000   0.107E+01    0.384E+00
RMM:   2    -0.444826702456E+02    0.12371E+00   -0.33144E-01  8683   0.307E+00    0.121E+00
RMM:   3    -0.444576864918E+02    0.24984E-01   -0.32079E-02  8886   0.147E+00    0.807E-01
RMM:   4    -0.444526177629E+02    0.50687E-02   -0.12060E-02  8784   0.695E-01    0.776E-01
RMM:   5    -0.444526255610E+02   -0.77981E-05   -0.42089E-03  7896   0.501E-01
   2 F= -.44452626E+02 E0= -.44452626E+02  d E =-.522060E-01  mag=     0.9073
 trial-energy change:   -0.052206  1 .order   -0.062435   -0.081824   -0.043045
 step:   2.1100(harm=  2.1100)  dis= 0.01718  next Energy=   -44.486744 (dE=-0.863E-01)
 bond charge predicted
       N       E                     dE             d eps       ncg     rms          rms(c)
DAV:   1    -0.446394568325E+02   -0.18684E+00   -0.34477E+00  8272   0.116E+01    0.416E+00
RMM:   2    -0.444860920613E+02    0.15336E+00   -0.38464E-01  8628   0.336E+00    0.133E+00
RMM:   3    -0.444553170268E+02    0.30775E-01   -0.41411E-02  8890   0.157E+00    0.912E-01
RMM:   4    -0.444497198719E+02    0.55972E-02   -0.16093E-02  9094   0.773E-01    0.912E-01
RMM:   5    -0.444501816584E+02   -0.46179E-03   -0.64793E-03  8587   0.540E-01    0.654E-01
RMM:   6    -0.444509855915E+02   -0.80393E-03   -0.50368E-03  8792   0.301E-01    0.860E-02
RMM:   7    -0.444512311667E+02   -0.24558E-03   -0.22537E-03  7898   0.253E-01
   3 F= -.44451231E+02 E0= -.44451231E+02  d E =-.508116E-01  mag=     0.9244
 curvature:  -1.05 expect dE=-0.235E+00 dE for cont linesearch -0.777E-02
 ZBRENT: interpolating
 opt :   1.7068  next Energy=   -44.456180 (dE=-0.558E-01)
 bond charge predicted
       N       E                     dE             d eps       ncg     rms          rms(c)
DAV:   1    -0.444830285547E+02   -0.32043E-01   -0.48289E-01 12112   0.422E+00    0.154E+00
RMM:   2    -0.444640970911E+02    0.18931E-01   -0.54574E-02  8637   0.125E+00    0.507E-01
RMM:   3    -0.444599087475E+02    0.41883E-02   -0.55763E-03  7971   0.621E-01    0.288E-01
RMM:   4    -0.444589694980E+02    0.93925E-03   -0.24584E-03  7055   0.339E-01    0.280E-01
RMM:   5    -0.444590246178E+02   -0.55120E-04   -0.70900E-04  6554   0.262E-01
   4 F= -.44459025E+02 E0= -.44459025E+02  d E =-.586051E-01  mag=     0.9196
 curvature:  -0.67 expect dE=-0.947E-01 dE for cont linesearch -0.164E-02
 trial: gam= 1.89492 g(F)=  0.138E+00 g(S)=  0.253E-02 ort =-0.141E-01 (trialstep = 0.245E+00)
 search vector abs. value=  0.381E+00
 bond charge predicted
       N       E                     dE             d eps       ncg     rms          rms(c)
DAV:   1    -0.445227268858E+02   -0.63757E-01   -0.87140E-01 11680   0.590E+00    0.181E+00
RMM:   2    -0.444919194625E+02    0.30807E-01   -0.98666E-02  8686   0.162E+00    0.618E-01
RMM:   3    -0.444856326042E+02    0.62869E-02   -0.78553E-03  8634   0.746E-01    0.343E-01
RMM:   4    -0.444841165100E+02    0.15161E-02   -0.30499E-03  7440   0.378E-01    0.340E-01
RMM:   5    -0.444840724647E+02    0.44045E-04   -0.93779E-04  6788   0.276E-01
   5 F= -.44484072E+02 E0= -.44484072E+02  d E =-.250478E-01  mag=     0.9254
 ZBRENT: can't locate minimum, use default step
 trial-energy change:   -0.025048  1 .order   -0.026032   -0.027971   -0.024093
 step:   0.9799(harm=  1.7671)  dis= 0.02617  next Energy=   -44.559907 (dE=-0.101E+00)
 bond charge predicted
       N       E                     dE             d eps       ncg     rms          rms(c)
DAV:   1    -0.448364303502E+02   -0.35231E+00   -0.75375E+00  8448   0.175E+01    0.532E+00
RMM:   2    -0.445678128692E+02    0.26862E+00   -0.85513E-01  8684   0.478E+00    0.190E+00
RMM:   3    -0.445036718764E+02    0.64141E-01   -0.68945E-02  8946   0.216E+00    0.113E+00
RMM:   4    -0.444921056425E+02    0.11566E-01   -0.27226E-02  9162   0.994E-01    0.116E+00
RMM:   5    -0.444921114826E+02   -0.58401E-05   -0.10095E-02  9345   0.704E-01    0.831E-01
RMM:   6    -0.444930274013E+02   -0.91592E-03   -0.97557E-03  9537   0.404E-01    0.149E-01
RMM:   7    -0.444934670361E+02   -0.43963E-03   -0.32320E-03  8510   0.318E-01
   6 F= -.44493467E+02 E0= -.44493467E+02  d E =-.344424E-01  mag=     0.9443
 curvature:  -2.16 expect dE=-0.141E+00 dE for cont linesearch -0.120E-01
 ZBRENT: interpolating
 opt :   0.7459  next Energy=   -44.498843 (dE=-0.398E-01)
 bond charge predicted
       N       E                     dE             d eps       ncg     rms          rms(c)
DAV:   1    -0.445354269587E+02   -0.42400E-01   -0.78701E-01 11152   0.553E+00    0.174E+00
RMM:   2    -0.445086531871E+02    0.26774E-01   -0.87409E-02  8605   0.156E+00    0.617E-01
RMM:   3    -0.445027581699E+02    0.58950E-02   -0.75495E-03  8616   0.724E-01    0.310E-01
RMM:   4    -0.445013453737E+02    0.14128E-02   -0.35271E-03  7563   0.387E-01    0.305E-01
RMM:   5    -0.445014035635E+02   -0.58190E-04   -0.10262E-03  6911   0.283E-01
   7 F= -.44501404E+02 E0= -.44501404E+02  d E =-.423789E-01  mag=     0.9396
 curvature:  -0.97 expect dE=-0.346E-01 dE for cont linesearch -0.148E-02
 trial: gam= 0.21244 g(F)=  0.283E-01 g(S)=  0.735E-02 ort =-0.241E-01 (trialstep = 0.345E+00)
 search vector abs. value=  0.426E-01
 bond charge predicted
       N       E                     dE             d eps       ncg     rms          rms(c)
DAV:   1    -0.445114168893E+02   -0.10072E-01   -0.24954E-01 10576   0.372E+00    0.274E-01
RMM:   2    -0.445112595950E+02    0.15729E-03   -0.14291E-02  8650   0.586E-01    0.152E-01
RMM:   3    -0.445110630864E+02    0.19651E-03   -0.49047E-04  6072   0.248E-01
   8 F= -.44511063E+02 E0= -.44511063E+02  d E =-.965952E-02  mag=     0.9401
 ZBRENT: can't locate minimum, use default step
 trial-energy change:   -0.009660  1 .order   -0.009460   -0.010548   -0.008373
 step:   1.3806(harm=  1.6736)  dis= 0.02733  next Energy=   -44.526977 (dE=-0.256E-01)
 bond charge predicted
       N       E                     dE             d eps       ncg     rms          rms(c)
DAV:   1    -0.445260728248E+02   -0.14813E-01   -0.22120E+00 10240   0.111E+01    0.821E-01
RMM:   2    -0.445249361879E+02    0.11366E-02   -0.12845E-01  8785   0.176E+00    0.470E-01
RMM:   3    -0.445229854941E+02    0.19507E-02   -0.54577E-03  8251   0.699E-01    0.447E-01
RMM:   4    -0.445226884711E+02    0.29702E-03   -0.16048E-03  7119   0.207E-01
   9 F= -.44522688E+02 E0= -.44522688E+02  d E =-.212849E-01  mag=     0.9428
 curvature:  -1.11 expect dE=-0.566E-01 dE for cont linesearch -0.654E-04
 trial: gam= 1.41272 g(F)=  0.452E-01 g(S)=  0.581E-02 ort = 0.158E-02 (trialstep = 0.168E+00)
 search vector abs. value=  0.141E+00
 bond charge predicted
       N       E                     dE             d eps       ncg     rms          rms(c)
DAV:   1    -0.445309125145E+02   -0.79270E-02   -0.12305E-01 14192   0.247E+00    0.282E-01
RMM:   2    -0.445300805012E+02    0.83201E-03   -0.76268E-03  8504   0.448E-01    0.183E-01
RMM:   3    -0.445299144072E+02    0.16609E-03   -0.36973E-04  4673   0.209E-01
  10 F= -.44529914E+02 E0= -.44529914E+02  d E =-.722594E-02  mag=     0.9442
 ZBRENT: can't locate minimum, use default step
 trial-energy change:   -0.007226  1 .order   -0.007962   -0.008914   -0.007009
 step:   0.6702(harm=  0.7838)  dis= 0.02774  next Energy=   -44.543541 (dE=-0.209E-01)
 bond charge predicted
       N       E                     dE             d eps       ncg     rms          rms(c)
DAV:   1    -0.445520485301E+02   -0.21968E-01   -0.11427E+00 10240   0.737E+00    0.733E-01
RMM:   2    -0.445443508218E+02    0.76977E-02   -0.72635E-02  8786   0.134E+00    0.518E-01
RMM:   3    -0.445420484052E+02    0.23024E-02   -0.36774E-03  8255   0.490E-01    0.329E-01
RMM:   4    -0.445416582269E+02    0.39018E-03   -0.22111E-03  7522   0.245E-01
  11 F= -.44541658E+02 E0= -.44541658E+02  d E =-.189698E-01  mag=     0.9482
 curvature:  -1.00 expect dE=-0.239E-01 dE for cont linesearch -0.129E-02
 trial: gam= 0.23891 g(F)=  0.169E-01 g(S)=  0.705E-02 ort = 0.135E-01 (trialstep = 0.268E+00)
 search vector abs. value=  0.384E-01
 bond charge predicted
       N       E                     dE             d eps       ncg     rms          rms(c)
DAV:   1    -0.445483408215E+02   -0.62924E-02   -0.11957E-01 13168   0.251E+00    0.243E-01
RMM:   2    -0.445476440583E+02    0.69676E-03   -0.77383E-03  8235   0.420E-01    0.158E-01
RMM:   3    -0.445474562500E+02    0.18781E-03   -0.44343E-04  4722   0.214E-01
  12 F= -.44547456E+02 E0= -.44547456E+02  d E =-.579802E-02  mag=     0.9516
 ZBRENT: can't locate minimum, use default step
 trial-energy change:   -0.005798  1 .order   -0.006622   -0.007274   -0.005971
 step:   1.0723(harm=  1.4959)  dis= 0.01979  next Energy=   -44.561954 (dE=-0.203E-01)
 bond charge predicted
       N       E                     dE             d eps       ncg     rms          rms(c)
DAV:   1    -0.445659450068E+02   -0.18301E-01   -0.11064E+00 10240   0.760E+00    0.846E-01
RMM:   2    -0.445600976521E+02    0.58474E-02   -0.76210E-02  8713   0.129E+00    0.503E-01
RMM:   3    -0.445576681939E+02    0.24295E-02   -0.50199E-03  8411   0.622E-01    0.212E-01
RMM:   4    -0.445573856693E+02    0.28252E-03   -0.22727E-03  7621   0.233E-01
  13 F= -.44557386E+02 E0= -.44557386E+02  d E =-.157274E-01  mag=     0.9601
 curvature:  -0.93 expect dE=-0.103E-01 dE for cont linesearch -0.229E-02
 trial: gam= 0.00000 g(F)=  0.676E-02 g(S)=  0.428E-02 ort = 0.972E-02 (trialstep = 0.429E+00)
 search vector abs. value=  0.110E-01
 bond charge predicted
       N       E                     dE             d eps       ncg     rms          rms(c)
DAV:   1    -0.445612743934E+02   -0.36062E-02   -0.53628E-02 12240   0.138E+00    0.205E-01
RMM:   2    -0.445604117312E+02    0.86266E-03   -0.40355E-03  7937   0.335E-01    0.137E-01
RMM:   3    -0.445602657521E+02    0.14598E-03   -0.32690E-04  4947   0.178E-01
  14 F= -.44560266E+02 E0= -.44560266E+02  d E =-.288008E-02  mag=     0.9607
 trial-energy change:   -0.002880  1 .order   -0.003483   -0.004736   -0.002230
 step:   0.8105(harm=  0.8105)  dis= 0.00602  next Energy=   -44.561860 (dE=-0.447E-02)
 bond charge predicted
       N       E                     dE             d eps       ncg     rms          rms(c)
DAV:   1    -0.445616291161E+02   -0.12174E-02   -0.41777E-02  9824   0.123E+00    0.183E-01
RMM:   2    -0.445608572281E+02    0.77189E-03   -0.31787E-03  7608   0.300E-01    0.116E-01
RMM:   3    -0.445607229532E+02    0.13427E-03   -0.25996E-04  4661   0.163E-01
  15 F= -.44560723E+02 E0= -.44560723E+02  d E =-.333728E-02  mag=     0.9614
 curvature:  -0.41 expect dE=-0.592E-02 dE for cont linesearch -0.264E-05
 trial: gam= 1.29957 g(F)=  0.110E-01 g(S)=  0.360E-02 ort = 0.268E-03 (trialstep = 0.164E+00)
 search vector abs. value=  0.340E-01
 reached required accuracy - stopping structural energy minimisation
