unknown system                          
           1
     3.697174    0.113881   -0.330041
    -0.036317    6.083656    0.389856
    -2.361869   -0.080015    6.582209
   Sr   Nb   H 
   1   2  16
Direct configuration=     1
   0.71734500  0.85147400  0.64710200
   0.59909100  0.55810500  0.11031200
   0.11541600  0.34415200  0.61256800
   0.01898800  0.17883100  0.79965100
   0.46712600  0.80485200  0.93164800
   0.63179900  0.22452000  0.49441600
   0.18100800  0.47939700  0.86180200
   0.16556100  0.63972400  0.57848100
   0.47922900  0.15411600  0.80261600
   0.58286400  0.55865400  0.35772200
   0.52587400  0.25924200  0.23967900
   0.39271200  0.25079800  0.11545000
   0.06119200  0.67064800  0.07913000
   0.67921900  0.30253300  0.93458400
   0.88332100  0.33177900  0.05418300
   0.04289400  0.40515300  0.31491700
   0.69463700  0.46073500  0.65475600
   0.71910300  0.81352100  0.23885900
   0.10313200  0.07448300  0.49573800
unknown system                          
           1
     3.732588    0.115462   -0.333450
    -0.035764    6.141075    0.394654
    -2.385120   -0.079866    6.643601
   Sr   Nb   H 
   1   2  16
Direct configuration=     2
   0.71719727  0.85157474  0.64696359
   0.59933235  0.55912435  0.11072464
   0.11434707  0.34309020  0.61323737
   0.01917454  0.17917335  0.79911127
   0.46749514  0.80438149  0.93199340
   0.63302156  0.22481487  0.49464805
   0.18167195  0.47929581  0.86188475
   0.16557435  0.63949361  0.57855916
   0.47866068  0.15456360  0.80220366
   0.58303767  0.55863759  0.35727992
   0.52508069  0.25919261  0.23923729
   0.39317965  0.25083009  0.11593201
   0.06109757  0.67043012  0.07911788
   0.68071948  0.30272957  0.93556394
   0.88110206  0.33165722  0.05320004
   0.04224424  0.40541310  0.31474920
   0.69525063  0.46056932  0.65466000
   0.71886263  0.81282314  0.23858367
   0.10346148  0.07492224  0.49596415
unknown system                          
           1
     3.792745    0.118147   -0.339241
    -0.034824    6.238614    0.402805
    -2.424617   -0.079614    6.747889
   Sr   Nb   H 
   1   2  16
Direct configuration=     3
   0.71694855  0.85174431  0.64673060
   0.59973808  0.56083961  0.11141883
   0.11254947  0.34130333  0.61436422
   0.01948790  0.17974958  0.79820278
   0.46811675  0.80358955  0.93257490
   0.63507863  0.22531087  0.49503859
   0.18278924  0.47912542  0.86202410
   0.16559700  0.63910588  0.57869079
   0.47770389  0.15531702  0.80150948
   0.58332964  0.55861006  0.35653590
   0.52374561  0.25910970  0.23849382
   0.39396680  0.25088391  0.11674327
   0.06093880  0.67006347  0.07909755
   0.68324468  0.30305991  0.93721328
   0.87736789  0.33145283  0.05154554
   0.04115068  0.40585093  0.31446667
   0.69628320  0.46029044  0.65449853
   0.71845845  0.81164887  0.23812049
   0.10401574  0.07566129  0.49634467
unknown system                          
           1
     3.774706    0.117341   -0.337504
    -0.035106    6.209365    0.400361
    -2.412773   -0.079690    6.716616
   Sr   Nb   H 
   1   2  16
Direct configuration=     4
   0.71702202  0.85169423  0.64679941
   0.59961852  0.56033336  0.11121402
   0.11307948  0.34183079  0.61403140
   0.01939568  0.17957943  0.79847106
   0.46793306  0.80382338  0.93240313
   0.63447156  0.22516457  0.49492329
   0.18245945  0.47917577  0.86198291
   0.16559022  0.63922034  0.57865189
   0.47798651  0.15509454  0.80171452
   0.58324359  0.55861814  0.35675556
   0.52413974  0.25913407  0.23871335
   0.39373436  0.25086811  0.11650374
   0.06098560  0.67017169  0.07910352
   0.68249921  0.30296262  0.93672630
   0.87847018  0.33151290  0.05203408
   0.04147354  0.40572162  0.31455015
   0.69597844  0.46037279  0.65454615
   0.71857760  0.81199544  0.23825714
   0.10385223  0.07544319  0.49623238
unknown system                          
           1
     3.796931    0.120781   -0.340161
    -0.030121    6.223830    0.403320
    -2.428618   -0.080952    6.751526
   Sr   Nb   H 
   1   2  16
Direct configuration=     5
   0.71697978  0.85171581  0.64668973
   0.60002783  0.55898489  0.11190928
   0.10995926  0.34313966  0.61391551
   0.01906051  0.18013609  0.79695423
   0.46964391  0.80142230  0.93399976
   0.63938416  0.22599852  0.49614540
   0.18661332  0.47897516  0.86302886
   0.16505313  0.63602184  0.57954031
   0.47475834  0.15695298  0.79978977
   0.58399663  0.55859573  0.35427861
   0.52153133  0.26001207  0.23641078
   0.39623093  0.25214392  0.11846394
   0.06091685  0.66878155  0.07941592
   0.68468813  0.30425974  0.93885469
   0.87353126  0.33260630  0.05074240
   0.03760256  0.40704168  0.31440517
   0.69850132  0.45924490  0.65415181
   0.71721474  0.80931199  0.23702450
   0.10481703  0.07737188  0.49789333
unknown system                          
           1
     3.806160    0.122210   -0.341264
    -0.028051    6.229836    0.404549
    -2.435198   -0.081476    6.766022
   Sr   Nb   H 
   1   2  16
Direct configuration=     6
   0.71696228  0.85172475  0.64664442
   0.60019793  0.55842622  0.11219672
   0.10867027  0.34368244  0.61386727
   0.01892122  0.18036668  0.79632754
   0.47035235  0.80042738  0.93465979
   0.64141209  0.22634316  0.49665038
   0.18832865  0.47889135  0.86346118
   0.16483382  0.63469696  0.57990778
   0.47342375  0.15772336  0.79899421
   0.58430660  0.55858619  0.35325545
   0.52045309  0.26037616  0.23545934
   0.39726146  0.25267208  0.11927361
   0.06088949  0.66820569  0.07954519
   0.68559171  0.30479679  0.93973382
   0.87149117  0.33306009  0.05020839
   0.03600361  0.40758924  0.31434486
   0.69954342  0.45877717  0.65398922
   0.71665342  0.80820051  0.23651565
   0.10521467  0.07817078  0.49857919
unknown system                          
           1
     3.818933    0.124578   -0.342486
    -0.024168    6.232649    0.408128
    -2.443241   -0.080896    6.792460
   Sr   Nb   H 
   1   2  16
Direct configuration=     7
   0.71679745  0.85181150  0.64666400
   0.59916826  0.55794429  0.11139519
   0.10851852  0.34380259  0.61378974
   0.01823626  0.18073273  0.79527166
   0.47177972  0.79846940  0.93590861
   0.64490925  0.22688125  0.49751985
   0.19174576  0.47865978  0.86431317
   0.16435074  0.63301557  0.58066632
   0.47067230  0.15924852  0.79734200
   0.58492308  0.55849860  0.35184792
   0.52128621  0.26129249  0.23650693
   0.39593827  0.25341603  0.11789918
   0.06085688  0.66679980  0.07993048
   0.68531274  0.30574363  0.94027162
   0.87042073  0.33382495  0.05044936
   0.03323047  0.40855534  0.31451453
   0.70077704  0.45817482  0.65372254
   0.71562912  0.80617825  0.23564231
   0.10595820  0.07966744  0.49995858
unknown system                          
           1
     3.828477    0.126348   -0.343399
    -0.021266    6.234751    0.410803
    -2.449250   -0.080463    6.812214
   Sr   Nb   H 
   1   2  16
Direct configuration=     8
   0.71667461  0.85187633  0.64667854
   0.59840219  0.55758467  0.11079881
   0.10840541  0.34389238  0.61373199
   0.01772610  0.18100638  0.79448564
   0.47284434  0.79700659  0.93683895
   0.64751278  0.22728223  0.49816683
   0.19429048  0.47848594  0.86494746
   0.16399250  0.63175984  0.58123158
   0.46862219  0.16038842  0.79611159
   0.58538268  0.55843318  0.35080039
   0.52190537  0.26197657  0.23728625
   0.39495251  0.25397212  0.11687588
   0.06083393  0.66574977  0.08021784
   0.68510386  0.30645080  0.94067148
   0.86962272  0.33439643  0.05062836
   0.03116426  0.40927752  0.31464033
   0.70169643  0.45772469  0.65352434
   0.71486868  0.80466823  0.23499315
   0.10650995  0.08078493  0.50098460
unknown system                          
           1
     3.830760    0.126229   -0.343399
    -0.021370    6.235223    0.412112
    -2.450176   -0.079418    6.818546
   Sr   Nb   H 
   1   2  16
Direct configuration=     9
   0.71638374  0.85192161  0.64684286
   0.59778483  0.55708374  0.11047970
   0.10948983  0.34365548  0.61383966
   0.01698524  0.18103646  0.79408659
   0.47314960  0.79664005  0.93689398
   0.64842645  0.22727095  0.49827708
   0.19557766  0.47813052  0.86490282
   0.16383134  0.63244353  0.58157024
   0.46807798  0.16074607  0.79557833
   0.58543419  0.55833401  0.35044158
   0.52110356  0.26255967  0.23682149
   0.39515701  0.25441831  0.11720841
   0.06073693  0.66472001  0.08044940
   0.68380925  0.30701986  0.94025187
   0.87135418  0.33422262  0.05146443
   0.03011863  0.40963605  0.31486135
   0.70154753  0.45777207  0.65338372
   0.71448390  0.80407375  0.23469524
   0.10705916  0.08103225  0.50156524
unknown system                          
           1
     3.833639    0.126079   -0.343400
    -0.021502    6.235818    0.413763
    -2.451343   -0.078100    6.826532
   Sr   Nb   H 
   1   2  16
Direct configuration=    10
   0.71601699  0.85197866  0.64704995
   0.59700676  0.55645195  0.11007771
   0.11085688  0.34335669  0.61397537
   0.01605146  0.18107446  0.79358372
   0.47353445  0.79617772  0.93696340
   0.64957820  0.22725672  0.49841599
   0.19720038  0.47768229  0.86484660
   0.16362795  0.63330579  0.58199688
   0.46739212  0.16119727  0.79490623
   0.58549931  0.55820900  0.34998943
   0.52009290  0.26329523  0.23623568
   0.39541460  0.25498104  0.11762735
   0.06061466  0.66342110  0.08074148
   0.68217733  0.30773766  0.93972298
   0.87353657  0.33400329  0.05251804
   0.02880033  0.41008819  0.31513985
   0.70135988  0.45783186  0.65320650
   0.71399903  0.80332397  0.23431996
   0.10775121  0.08134410  0.50229688
unknown system                          
           1
     3.832575    0.124796   -0.342819
    -0.023521    6.236724    0.414092
    -2.449331   -0.077174    6.829899
   Sr   Nb   H 
   1   2  16
Direct configuration=    11
   0.71566283  0.85195219  0.64732992
   0.59720649  0.55608102  0.11003270
   0.11069261  0.34413833  0.61399125
   0.01520697  0.18105520  0.79309127
   0.47366750  0.79596676  0.93678285
   0.65058895  0.22712307  0.49847926
   0.19836253  0.47706675  0.86449153
   0.16354046  0.63437595  0.58238863
   0.46778494  0.16120550  0.79475601
   0.58528942  0.55805870  0.34956834
   0.51950980  0.26402999  0.23618478
   0.39506086  0.25534733  0.11758218
   0.06037286  0.66205234  0.08099632
   0.68197914  0.30860116  0.93994149
   0.87432525  0.33343598  0.05273235
   0.02775419  0.41040597  0.31540002
   0.70132893  0.45788115  0.65299911
   0.71360443  0.80269717  0.23397414
   0.10857284  0.08124243  0.50289183
unknown system                          
           1
     3.829385    0.120946   -0.341076
    -0.029579    6.239442    0.415078
    -2.443295   -0.074397    6.839998
   Sr   Nb   H 
   1   2  16
Direct configuration=    12
   0.71459934  0.85187245  0.64816948
   0.59780534  0.55496855  0.10989769
   0.11020089  0.34648276  0.61403889
   0.01267418  0.18099709  0.79161494
   0.47406690  0.79533411  0.93624147
   0.65362151  0.22672277  0.49866873
   0.20184973  0.47522126  0.86342662
   0.16327857  0.63758574  0.58356325
   0.46896405  0.16123049  0.79430550
   0.58466048  0.55760791  0.34830579
   0.51776136  0.26623363  0.23603227
   0.39400011  0.25644583  0.11744683
   0.05964451  0.65794644  0.08176055
   0.68138522  0.31119104  0.94059669
   0.87669037  0.33173472  0.05337476
   0.02461488  0.41135844  0.31618037
   0.70123668  0.45802907  0.65237728
   0.71242027  0.80081698  0.23293737
   0.11103657  0.08093772  0.50467552
unknown system                          
           1
     3.826900    0.118535   -0.340906
    -0.033325    6.240525    0.417088
    -2.441123   -0.070985    6.843854
   Sr   Nb   H 
   1   2  16
Direct configuration=    13
   0.71422054  0.85203815  0.64873103
   0.59719449  0.55468662  0.10916949
   0.11103572  0.34591365  0.61395770
   0.01157857  0.18131254  0.79074903
   0.47430580  0.79497813  0.93600079
   0.65489016  0.22656586  0.49864200
   0.20339227  0.47437175  0.86315581
   0.16304499  0.63919670  0.58410312
   0.46916201  0.16170094  0.79399705
   0.58405107  0.55732425  0.34786940
   0.51694972  0.26725326  0.23633784
   0.39317567  0.25681155  0.11723292
   0.05962668  0.65599826  0.08208818
   0.68269873  0.31225367  0.94152776
   0.87625868  0.33092984  0.05307281
   0.02379583  0.41169574  0.31664736
   0.70061899  0.45833540  0.65212020
   0.71225047  0.80020258  0.23259998
   0.11226060  0.08114810  0.50561153
unknown system                          
           1
     3.825456    0.117134   -0.340807
    -0.035500    6.241154    0.418256
    -2.439862   -0.069004    6.846094
   Sr   Nb   H 
   1   2  16
Direct configuration=    14
   0.71400012  0.85213413  0.64905702
   0.59683968  0.55452298  0.10874677
   0.11152075  0.34558332  0.61391064
   0.01094234  0.18149578  0.79024628
   0.47444463  0.79477151  0.93586110
   0.65562753  0.22647501  0.49862649
   0.20428866  0.47387878  0.86299869
   0.16290970  0.64013212  0.58441633
   0.46927747  0.16197432  0.79381791
   0.58369694  0.55715951  0.34761608
   0.51647825  0.26784518  0.23651510
   0.39269673  0.25702384  0.11710868
   0.05961521  0.65486667  0.08227866
   0.68346224  0.31287084  0.94206815
   0.87600753  0.33046237  0.05289763
   0.02331965  0.41189131  0.31691845
   0.70026022  0.45851325  0.65197092
   0.71215166  0.79984581  0.23240419
   0.11297170  0.08127026  0.50615491
