   11   11   99    2
  0.8022620E+01  0.3435881E-09  0.3435738E-09  0.7861933E-09  0.5000000E-15
  1.000000000000000E-004
  CAR 
 unknown system                          
     40     74     32
 
  0.3742002E-15  0.3742002E-15  0.3742002E-15  0.6802721E-02
    1      -31.863122    -31.863129   1.000000   1.000000
    2      -27.337684    -27.337682   1.000000   1.000000
    3      -27.109569    -27.109564   1.000000   1.000000
    4      -27.109231    -27.109226   1.000000   1.000000
    5      -27.076834    -27.076832   1.000000   1.000000
    6      -26.953315    -26.953309   1.000000   1.000000
    7      -26.952656    -26.952651   1.000000   1.000000
    8      -13.916202    -13.916208   1.000000   1.000000
    9      -13.644739    -13.644738   1.000000   1.000000
   10      -13.643741    -13.643747   1.000000   1.000000
   11       -5.831963     -5.831965   1.000000   1.000000
   12       -2.970854     -2.970857   1.000000   1.000000
   13       -2.958023     -2.958022   1.000000   1.000000
   14       -2.878639     -2.878641   1.000000   1.000000
   15       -0.602117     -0.602117   1.000000   1.000000
   16        0.290918      0.290916   1.000000   1.000000
   17        1.584309      1.584308   1.000000   1.000000
   18        3.440718      3.440719   1.000000   1.000000
   19        3.441470      3.441473   1.000000   1.000000
   20        3.955441      3.955441   1.112025   1.112042
   21        4.999940      4.999937   0.000000   0.000000
   22        5.158252      5.158261   0.000000   0.000000
   23        5.237634      5.237637   0.000000   0.000000
   24        5.239173      5.239176   0.000000   0.000000
   25        5.786928      5.786926   0.000000   0.000000
   26        6.450475      6.450485   0.000000   0.000000
   27        8.201384      8.201386   0.000000   0.000000
   28        8.202753      8.202754   0.000000   0.000000
   29        8.707426      8.707420   0.000000   0.000000
   30       10.568177     10.568180   0.000000   0.000000
   31       10.908621     10.908621   0.000000   0.000000
   32       10.950176     10.950197   0.000000   0.000000
 
  0.1428571E+00  0.3739735E-15  0.3747003E-15  0.1360544E-01
    1      -31.850227    -31.850232   1.000000   1.000000
    2      -27.331624    -27.331621   1.000000   1.000000
    3      -27.181397    -27.181393   1.000000   1.000000
    4      -27.099317    -27.099313   1.000000   1.000000
    5      -27.042994    -27.042991   1.000000   1.000000
    6      -26.987928    -26.987923   1.000000   1.000000
    7      -26.957935    -26.957930   1.000000   1.000000
    8      -13.888041    -13.888047   1.000000   1.000000
    9      -13.814197    -13.814202   1.000000   1.000000
   10      -13.630753    -13.630751   1.000000   1.000000
   11       -5.503242     -5.503244   1.000000   1.000000
   12       -3.156330     -3.156333   1.000000   1.000000
   13       -2.791214     -2.791214   1.000000   1.000000
   14       -2.444655     -2.444656   1.000000   1.000000
   15       -0.608296     -0.608295   1.000000   1.000000
   16        0.277185      0.277183   1.000000   1.000000
   17        1.354056      1.354055   1.000000   1.000000
   18        1.920355      1.920355   1.000000   1.000000
   19        3.486210      3.486212   1.000000   1.000000
   20        4.508664      4.508670   0.900048   0.900024
   21        4.992449      4.992446  -0.001947  -0.001946
   22        5.629292      5.629293   0.000000   0.000000
   23        5.656741      5.656746   0.000000   0.000000
   24        5.810894      5.810894   0.000000   0.000000
   25        5.977341      5.977349   0.000000   0.000000
   26        6.126888      6.126890   0.000000   0.000000
   27        8.034941      8.034943   0.000000   0.000000
   28        8.757336      8.757336   0.000000   0.000000
   29        9.061817      9.061815   0.000000   0.000000
   30        9.750947      9.750947   0.000000   0.000000
   31       10.172207     10.172172   0.000000   0.000000
   32       10.549400     10.549279   0.000000   0.000000
 
  0.2857143E+00  0.3734636E-15  0.3747003E-15  0.1360544E-01
    1      -31.821037    -31.821043   1.000000   1.000000
    2      -27.328977    -27.328974   1.000000   1.000000
    3      -27.278412    -27.278408   1.000000   1.000000
    4      -27.073042    -27.073037   1.000000   1.000000
    5      -27.051816    -27.051812   1.000000   1.000000
    6      -27.032079    -27.032075   1.000000   1.000000
    7      -26.973708    -26.973703   1.000000   1.000000
    8      -14.171754    -14.171759   1.000000   1.000000
    9      -13.823127    -13.823133   1.000000   1.000000
   10      -13.599104    -13.599102   1.000000   1.000000
   11       -4.679073     -4.679075   1.000000   1.000000
   12       -3.345906     -3.345907   1.000000   1.000000
   13       -2.395942     -2.395943   1.000000   1.000000
   14       -1.724204     -1.724204   1.000000   1.000000
   15       -0.785828     -0.785828   1.000000   1.000000
   16       -0.083780     -0.083780   1.000000   1.000000
   17        0.998035      0.998034   1.000000   1.000000
   18        1.345825      1.345824   1.000000   1.000000
   19        3.503471      3.503474   1.000000   1.000000
   20        3.868054      3.868059   1.002058   1.002058
   21        4.950593      4.950588  -0.000431  -0.000431
   22        5.517225      5.517232   0.000000   0.000000
   23        5.777241      5.777246   0.000000   0.000000
   24        6.063652      6.063653   0.000000   0.000000
   25        6.763058      6.763059   0.000000   0.000000
   26        7.180419      7.180417   0.000000   0.000000
   27        8.100776      8.100776   0.000000   0.000000
   28        8.626689      8.626691   0.000000   0.000000
   29        9.226555      9.226555   0.000000   0.000000
   30        9.399142      9.399143   0.000000   0.000000
   31        9.654340      9.654340   0.000000   0.000000
   32       10.158335     10.158320   0.000000   0.000000
 
  0.4285714E+00  0.3743953E-15  0.3833739E-15  0.1360544E-01
    1      -31.797418    -31.797425   1.000000   1.000000
    2      -27.348763    -27.348760   1.000000   1.000000
    3      -27.340636    -27.340631   1.000000   1.000000
    4      -27.070509    -27.070506   1.000000   1.000000
    5      -27.048392    -27.048388   1.000000   1.000000
    6      -27.038117    -27.038112   1.000000   1.000000
    7      -26.999169    -26.999164   1.000000   1.000000
    8      -14.437491    -14.437495   1.000000   1.000000
    9      -13.769365    -13.769371   1.000000   1.000000
   10      -13.573462    -13.573460   1.000000   1.000000
   11       -3.853958     -3.853959   1.000000   1.000000
   12       -3.509935     -3.509937   1.000000   1.000000
   13       -1.944397     -1.944398   1.000000   1.000000
   14       -1.279496     -1.279498   1.000000   1.000000
   15       -1.101126     -1.101126   1.000000   1.000000
   16       -0.701751     -0.701751   1.000000   1.000000
   17        1.063520      1.063518   1.000000   1.000000
   18        1.481757      1.481756   1.000000   1.000000
   19        3.401458      3.401462   1.000000   1.000000
   20        3.502610      3.502614   1.000000   1.000000
   21        5.042933      5.042927   0.000000   0.000000
   22        5.458511      5.458517   0.000000   0.000000
   23        5.766837      5.766843   0.000000   0.000000
   24        6.276548      6.276546   0.000000   0.000000
   25        6.501853      6.501855   0.000000   0.000000
   26        6.799408      6.799408   0.000000   0.000000
   27        7.956381      7.956383   0.000000   0.000000
   28        8.343233      8.343231   0.000000   0.000000
   29        9.515375      9.515378   0.000000   0.000000
   30        9.579061      9.579062   0.000000   0.000000
   31        9.974407      9.974408   0.000000   0.000000
   32       10.493935     10.493957   0.000000   0.000000
 
  0.3720982E-15  0.1428571E+00  0.3469447E-15  0.1360544E-01
    1      -31.850231    -31.850235   1.000000   1.000000
    2      -27.331624    -27.331621   1.000000   1.000000
    3      -27.181242    -27.181238   1.000000   1.000000
    4      -27.099554    -27.099549   1.000000   1.000000
    5      -27.043022    -27.043019   1.000000   1.000000
    6      -26.987376    -26.987371   1.000000   1.000000
    7      -26.958352    -26.958347   1.000000   1.000000
    8      -13.888083    -13.888088   1.000000   1.000000
    9      -13.815094    -13.815093   1.000000   1.000000
   10      -13.629799    -13.629804   1.000000   1.000000
   11       -5.502002     -5.502003   1.000000   1.000000
   12       -3.162346     -3.162347   1.000000   1.000000
   13       -2.798641     -2.798641   1.000000   1.000000
   14       -2.431218     -2.431220   1.000000   1.000000
   15       -0.607296     -0.607296   1.000000   1.000000
   16        0.270929      0.270928   1.000000   1.000000
   17        1.358550      1.358550   1.000000   1.000000
   18        1.922732      1.922732   1.000000   1.000000
   19        3.487287      3.487289   1.000000   1.000000
   20        4.509368      4.509373   0.898713   0.898689
   21        4.963612      4.963611  -0.002800  -0.002799
   22        5.655777      5.655783   0.000000   0.000000
   23        5.667401      5.667402   0.000000   0.000000
   24        5.795885      5.795884   0.000000   0.000000
   25        5.973538      5.973546   0.000000   0.000000
   26        6.122004      6.122004   0.000000   0.000000
   27        8.041575      8.041576   0.000000   0.000000
   28        8.764474      8.764479   0.000000   0.000000
   29        9.078374      9.078371   0.000000   0.000000
   30        9.751122      9.751123   0.000000   0.000000
   31       10.163035     10.163000   0.000000   0.000000
   32       10.582386     10.582284   0.000000   0.000000
 
  0.1428571E+00  0.1428571E+00  0.3885781E-15  0.1360544E-01
    1      -31.837481    -31.837488   1.000000   1.000000
    2      -27.324716    -27.324713   1.000000   1.000000
    3      -27.179444    -27.179441   1.000000   1.000000
    4      -27.155400    -27.155394   1.000000   1.000000
    5      -27.020976    -27.020974   1.000000   1.000000
    6      -27.004184    -27.004179   1.000000   1.000000
    7      -26.977898    -26.977892   1.000000   1.000000
    8      -13.860405    -13.860411   1.000000   1.000000
    9      -13.818015    -13.818017   1.000000   1.000000
   10      -13.773843    -13.773845   1.000000   1.000000
   11       -5.213272     -5.213274   1.000000   1.000000
   12       -2.779693     -2.779695   1.000000   1.000000
   13       -2.695210     -2.695210   1.000000   1.000000
   14       -2.519010     -2.519011   1.000000   1.000000
   15       -0.591636     -0.591636   1.000000   1.000000
   16        0.433182      0.433180   1.000000   1.000000
   17        0.906999      0.906999   1.000000   1.000000
   18        1.217072      1.217072   1.000000   1.000000
   19        3.533131      3.533133   1.000000   1.000000
   20        4.368730      4.368735   1.033448   1.033449
   21        5.032222      5.032223   0.000000   0.000000
   22        5.619460      5.619467   0.000000   0.000000
   23        5.913646      5.913647   0.000000   0.000000
   24        5.986101      5.986102   0.000000   0.000000
   25        6.302184      6.302184   0.000000   0.000000
   26        6.494015      6.494018   0.000000   0.000000
   27        8.291919      8.291920   0.000000   0.000000
   28        8.570025      8.570044   0.000000   0.000000
   29        8.747801      8.747804   0.000000   0.000000
   30        9.458953      9.458952   0.000000   0.000000
   31       10.655288     10.655282   0.000000   0.000000
   32       10.806293     10.806308   0.000000   0.000000
 
  0.2857143E+00  0.1428571E+00  0.3747003E-15  0.1360544E-01
    1      -31.808631    -31.808638   1.000000   1.000000
    2      -27.320298    -27.320295   1.000000   1.000000
    3      -27.265671    -27.265666   1.000000   1.000000
    4      -27.139077    -27.139073   1.000000   1.000000
    5      -27.068968    -27.068965   1.000000   1.000000
    6      -27.007813    -27.007810   1.000000   1.000000
    7      -26.996612    -26.996607   1.000000   1.000000
    8      -14.146281    -14.146286   1.000000   1.000000
    9      -13.797682    -13.797688   1.000000   1.000000
   10      -13.752400    -13.752399   1.000000   1.000000
   11       -4.421905     -4.421907   1.000000   1.000000
   12       -2.970451     -2.970452   1.000000   1.000000
   13       -2.239733     -2.239734   1.000000   1.000000
   14       -1.904165     -1.904165   1.000000   1.000000
   15       -0.730421     -0.730421   1.000000   1.000000
   16       -0.047246     -0.047246   1.000000   1.000000
   17        0.532858      0.532857   1.000000   1.000000
   18        0.916404      0.916402   1.000000   1.000000
   19        3.389393      3.389395   1.000000   1.000000
   20        3.657756      3.657759   1.000000   1.000000
   21        5.299824      5.299825   0.000000   0.000000
   22        5.393806      5.393811   0.000000   0.000000
   23        5.809769      5.809766   0.000000   0.000000
   24        6.359730      6.359731   0.000000   0.000000
   25        6.790122      6.790122   0.000000   0.000000
   26        7.758370      7.758371   0.000000   0.000000
   27        7.912658      7.912659   0.000000   0.000000
   28        8.505001      8.505001   0.000000   0.000000
   29        9.549559      9.549561   0.000000   0.000000
   30        9.594429      9.594431   0.000000   0.000000
   31        9.910851      9.910852   0.000000   0.000000
   32       10.395263     10.395233   0.000000   0.000000
 
  0.4285714E+00  0.1428571E+00  0.3538836E-15  0.1360544E-01
    1      -31.785290    -31.785297   1.000000   1.000000
    2      -27.338843    -27.338840   1.000000   1.000000
    3      -27.329645    -27.329640   1.000000   1.000000
    4      -27.109838    -27.109834   1.000000   1.000000
    5      -27.092358    -27.092355   1.000000   1.000000
    6      -27.021856    -27.021851   1.000000   1.000000
    7      -27.012649    -27.012644   1.000000   1.000000
    8      -14.405163    -14.405167   1.000000   1.000000
    9      -13.746128    -13.746134   1.000000   1.000000
   10      -13.719855    -13.719854   1.000000   1.000000
   11       -3.563981     -3.563983   1.000000   1.000000
   12       -3.202624     -3.202625   1.000000   1.000000
   13       -1.904258     -1.904259   1.000000   1.000000
   14       -1.221048     -1.221048   1.000000   1.000000
   15       -1.176285     -1.176285   1.000000   1.000000
   16       -0.782207     -0.782206   1.000000   1.000000
   17        0.580776      0.580775   1.000000   1.000000
   18        1.219752      1.219750   1.000000   1.000000
   19        3.061021      3.061022   1.000000   1.000000
   20        3.147293      3.147296   1.000000   1.000000
   21        5.494568      5.494571   0.000000   0.000000
   22        5.726421      5.726418   0.000000   0.000000
   23        5.801409      5.801413   0.000000   0.000000
   24        6.383759      6.383760   0.000000   0.000000
   25        6.619143      6.619145   0.000000   0.000000
   26        7.307052      7.307053   0.000000   0.000000
   27        8.512755      8.512753   0.000000   0.000000
   28        8.567125      8.567124   0.000000   0.000000
   29        9.192765      9.192772   0.000000   0.000000
   30        9.247395      9.247400   0.000000   0.000000
   31        9.867491      9.867492   0.000000   0.000000
   32       10.772393     10.772338   0.000000   0.000000
 
 -0.4285714E+00  0.1428571E+00  0.3608225E-15  0.1360544E-01
    1      -31.785294    -31.785300   1.000000   1.000000
    2      -27.338693    -27.338689   1.000000   1.000000
    3      -27.329538    -27.329533   1.000000   1.000000
    4      -27.110749    -27.110746   1.000000   1.000000
    5      -27.091284    -27.091280   1.000000   1.000000
    6      -27.023104    -27.023099   1.000000   1.000000
    7      -27.011827    -27.011822   1.000000   1.000000
    8      -14.405043    -14.405047   1.000000   1.000000
    9      -13.746182    -13.746188   1.000000   1.000000
   10      -13.719879    -13.719877   1.000000   1.000000
   11       -3.555668     -3.555669   1.000000   1.000000
   12       -3.219646     -3.219647   1.000000   1.000000
   13       -1.873670     -1.873671   1.000000   1.000000
   14       -1.269509     -1.269510   1.000000   1.000000
   15       -1.173634     -1.173634   1.000000   1.000000
   16       -0.775175     -0.775175   1.000000   1.000000
   17        0.546548      0.546547   1.000000   1.000000
   18        1.335315      1.335314   1.000000   1.000000
   19        3.007053      3.007054   1.000000   1.000000
   20        3.145485      3.145489   1.000000   1.000000
   21        5.441540      5.441543   0.000000   0.000000
   22        5.744251      5.744246   0.000000   0.000000
   23        5.836428      5.836430   0.000000   0.000000
   24        6.441761      6.441763   0.000000   0.000000
   25        6.664856      6.664857   0.000000   0.000000
   26        7.090244      7.090245   0.000000   0.000000
   27        8.394443      8.394441   0.000000   0.000000
   28        8.664787      8.664786   0.000000   0.000000
   29        9.117230      9.117232   0.000000   0.000000
   30        9.463817      9.463820   0.000000   0.000000
   31        9.972679      9.972681   0.000000   0.000000
   32       10.469022     10.469030   0.000000   0.000000
 
 -0.2857143E+00  0.1428571E+00  0.3469447E-15  0.1360544E-01
    1      -31.808637    -31.808644   1.000000   1.000000
    2      -27.320098    -27.320094   1.000000   1.000000
    3      -27.265497    -27.265493   1.000000   1.000000
    4      -27.139277    -27.139273   1.000000   1.000000
    5      -27.068518    -27.068513   1.000000   1.000000
    6      -27.009735    -27.009732   1.000000   1.000000
    7      -26.995317    -26.995312   1.000000   1.000000
    8      -14.146046    -14.146051   1.000000   1.000000
    9      -13.798067    -13.798072   1.000000   1.000000
   10      -13.752444    -13.752442   1.000000   1.000000
   11       -4.344849     -4.344851   1.000000   1.000000
   12       -3.177975     -3.177976   1.000000   1.000000
   13       -2.320794     -2.320794   1.000000   1.000000
   14       -1.609176     -1.609176   1.000000   1.000000
   15       -0.739407     -0.739406   1.000000   1.000000
   16       -0.263418     -0.263418   1.000000   1.000000
   17        0.482235      0.482235   1.000000   1.000000
   18        1.244124      1.244123   1.000000   1.000000
   19        3.322108      3.322109   1.000000   1.000000
   20        3.634178      3.634182   1.001652   1.001653
   21        5.295718      5.295720  -0.001657  -0.001657
   22        5.353148      5.353151   0.000000   0.000000
   23        5.714154      5.714152   0.000000   0.000000
   24        6.400584      6.400586   0.000000   0.000000
   25        6.862983      6.862985   0.000000   0.000000
   26        7.604337      7.604337   0.000000   0.000000
   27        7.824962      7.824960   0.000000   0.000000
   28        8.789085      8.789086   0.000000   0.000000
   29        9.218087      9.218088   0.000000   0.000000
   30        9.582182      9.582184   0.000000   0.000000
   31        9.966539      9.966542   0.000000   0.000000
   32       10.496210     10.496240   0.000000   0.000000
 
 -0.1428571E+00  0.1428571E+00  0.3608225E-15  0.1360544E-01
    1      -31.837482    -31.837489   1.000000   1.000000
    2      -27.324732    -27.324729   1.000000   1.000000
    3      -27.179563    -27.179559   1.000000   1.000000
    4      -27.155159    -27.155155   1.000000   1.000000
    5      -27.018736    -27.018732   1.000000   1.000000
    6      -27.007437    -27.007432   1.000000   1.000000
    7      -26.976981    -26.976977   1.000000   1.000000
    8      -13.860991    -13.860997   1.000000   1.000000
    9      -13.817611    -13.817614   1.000000   1.000000
   10      -13.774138    -13.774140   1.000000   1.000000
   11       -5.155642     -5.155644   1.000000   1.000000
   12       -3.202396     -3.202397   1.000000   1.000000
   13       -2.697793     -2.697793   1.000000   1.000000
   14       -2.093409     -2.093411   1.000000   1.000000
   15       -0.578418     -0.578418   1.000000   1.000000
   16        0.129462      0.129461   1.000000   1.000000
   17        1.197963      1.197964   1.000000   1.000000
   18        1.249953      1.249952   1.000000   1.000000
   19        3.511036      3.511036   1.000000   1.000000
   20        4.350806      4.350812   0.997389   0.997388
   21        5.006766      5.006767  -0.001130  -0.001130
   22        5.618235      5.618241   0.000000   0.000000
   23        5.656812      5.656813   0.000000   0.000000
   24        5.902569      5.902569   0.000000   0.000000
   25        6.483943      6.483945   0.000000   0.000000
   26        6.669708      6.669708   0.000000   0.000000
   27        8.283179      8.283172   0.000000   0.000000
   28        8.389408      8.389414   0.000000   0.000000
   29        9.024529      9.024526   0.000000   0.000000
   30        9.523586      9.523583   0.000000   0.000000
   31       10.462416     10.462423   0.000000   0.000000
   32       10.577776     10.577694   0.000000   0.000000
 
  0.3712308E-15  0.2857143E+00  0.3885781E-15  0.1360544E-01
    1      -31.821047    -31.821054   1.000000   1.000000
    2      -27.328967    -27.328964   1.000000   1.000000
    3      -27.278187    -27.278183   1.000000   1.000000
    4      -27.073132    -27.073127   1.000000   1.000000
    5      -27.052503    -27.052499   1.000000   1.000000
    6      -27.030994    -27.030990   1.000000   1.000000
    7      -26.974168    -26.974162   1.000000   1.000000
    8      -14.172518    -14.172516   1.000000   1.000000
    9      -13.823203    -13.823209   1.000000   1.000000
   10      -13.598158    -13.598164   1.000000   1.000000
   11       -4.675838     -4.675839   1.000000   1.000000
   12       -3.349835     -3.349835   1.000000   1.000000
   13       -2.411237     -2.411238   1.000000   1.000000
   14       -1.704283     -1.704285   1.000000   1.000000
   15       -0.782659     -0.782660   1.000000   1.000000
   16       -0.097293     -0.097294   1.000000   1.000000
   17        0.999835      0.999835   1.000000   1.000000
   18        1.351574      1.351574   1.000000   1.000000
   19        3.505002      3.505004   1.000000   1.000000
   20        3.867510      3.867515   1.002098   1.002099
   21        4.939022      4.939021  -0.000645  -0.000645
   22        5.516162      5.516169   0.000000   0.000000
   23        5.775534      5.775539   0.000000   0.000000
   24        6.066795      6.066796   0.000000   0.000000
   25        6.763561      6.763561   0.000000   0.000000
   26        7.188930      7.188929   0.000000   0.000000
   27        8.112622      8.112623   0.000000   0.000000
   28        8.627562      8.627564   0.000000   0.000000
   29        9.228116      9.228116   0.000000   0.000000
   30        9.407272      9.407278   0.000000   0.000000
   31        9.637088      9.637087   0.000000   0.000000
   32       10.217420     10.217390   0.000000   0.000000
 
  0.1428571E+00  0.2857143E+00  0.3608225E-15  0.1360544E-01
    1      -31.808639    -31.808645   1.000000   1.000000
    2      -27.320285    -27.320283   1.000000   1.000000
    3      -27.265435    -27.265431   1.000000   1.000000
    4      -27.139230    -27.139225   1.000000   1.000000
    5      -27.068922    -27.068918   1.000000   1.000000
    6      -27.007188    -27.007184   1.000000   1.000000
    7      -26.997322    -26.997316   1.000000   1.000000
    8      -14.147029    -14.147028   1.000000   1.000000
    9      -13.797720    -13.797726   1.000000   1.000000
   10      -13.751523    -13.751528   1.000000   1.000000
   11       -4.419744     -4.419746   1.000000   1.000000
   12       -2.975325     -2.975325   1.000000   1.000000
   13       -2.251832     -2.251833   1.000000   1.000000
   14       -1.888406     -1.888408   1.000000   1.000000
   15       -0.728294     -0.728295   1.000000   1.000000
   16       -0.050105     -0.050106   1.000000   1.000000
   17        0.531122      0.531122   1.000000   1.000000
   18        0.915412      0.915411   1.000000   1.000000
   19        3.392894      3.392896   1.000000   1.000000
   20        3.656328      3.656331   1.000000   1.000000
   21        5.292690      5.292692   0.000000   0.000000
   22        5.401870      5.401875   0.000000   0.000000
   23        5.813389      5.813390   0.000000   0.000000
   24        6.364630      6.364632   0.000000   0.000000
   25        6.791999      6.791999   0.000000   0.000000
   26        7.732788      7.732788   0.000000   0.000000
   27        7.968142      7.968144   0.000000   0.000000
   28        8.450387      8.450388   0.000000   0.000000
   29        9.557313      9.557316   0.000000   0.000000
   30        9.619499      9.619504   0.000000   0.000000
   31        9.909503      9.909503   0.000000   0.000000
   32       10.356445     10.356441   0.000000   0.000000
 
  0.2857143E+00  0.2857143E+00  0.3053113E-15  0.1360544E-01
    1      -31.780566    -31.780573   1.000000   1.000000
    2      -27.311525    -27.311522   1.000000   1.000000
    3      -27.257133    -27.257127   1.000000   1.000000
    4      -27.210775    -27.210771   1.000000   1.000000
    5      -27.113441    -27.113438   1.000000   1.000000
    6      -27.033046    -27.033040   1.000000   1.000000
    7      -27.006052    -27.006048   1.000000   1.000000
    8      -14.113845    -14.113847   1.000000   1.000000
    9      -14.052103    -14.052106   1.000000   1.000000
   10      -13.740052    -13.740059   1.000000   1.000000
   11       -3.713014     -3.713016   1.000000   1.000000
   12       -2.229087     -2.229088   1.000000   1.000000
   13       -2.076332     -2.076332   1.000000   1.000000
   14       -2.033207     -2.033208   1.000000   1.000000
   15       -0.566063     -0.566063   1.000000   1.000000
   16       -0.473046     -0.473046   1.000000   1.000000
   17       -0.229341     -0.229340   1.000000   1.000000
   18        0.711182      0.711180   1.000000   1.000000
   19        2.954192      2.954194   1.000000   1.000000
   20        2.995810      2.995812   1.000000   1.000000
   21        5.458588      5.458590   0.000000   0.000000
   22        5.669604      5.669607   0.000000   0.000000
   23        6.306694      6.306696   0.000000   0.000000
   24        6.577925      6.577925   0.000000   0.000000
   25        7.388277      7.388276   0.000000   0.000000
   26        7.454559      7.454559   0.000000   0.000000
   27        8.397193      8.397198   0.000000   0.000000
   28        8.594190      8.594191   0.000000   0.000000
   29        9.680798      9.680799   0.000000   0.000000
   30        9.853020      9.853017   0.000000   0.000000
   31       10.026937     10.026940   0.000000   0.000000
   32       10.190849     10.190897   0.000000   0.000000
 
  0.4285714E+00  0.2857143E+00  0.3330669E-15  0.1360544E-01
    1      -31.757855    -31.757862   1.000000   1.000000
    2      -27.327003    -27.326999   1.000000   1.000000
    3      -27.316044    -27.316038   1.000000   1.000000
    4      -27.176398    -27.176394   1.000000   1.000000
    5      -27.139430    -27.139427   1.000000   1.000000
    6      -27.048865    -27.048859   1.000000   1.000000
    7      -27.029206    -27.029202   1.000000   1.000000
    8      -14.330945    -14.330950   1.000000   1.000000
    9      -14.032392    -14.032391   1.000000   1.000000
   10      -13.693094    -13.693100   1.000000   1.000000
   11       -2.961946     -2.961948   1.000000   1.000000
   12       -2.376784     -2.376784   1.000000   1.000000
   13       -1.917657     -1.917657   1.000000   1.000000
   14       -1.399765     -1.399765   1.000000   1.000000
   15       -0.965809     -0.965808   1.000000   1.000000
   16       -0.923291     -0.923290   1.000000   1.000000
   17       -0.223572     -0.223573   1.000000   1.000000
   18        0.837961      0.837959   1.000000   1.000000
   19        2.343779      2.343779   1.000000   1.000000
   20        2.508752      2.508754   1.000000   1.000000
   21        5.737646      5.737648   0.000000   0.000000
   22        6.162446      6.162449   0.000000   0.000000
   23        6.407875      6.407876   0.000000   0.000000
   24        6.505516      6.505518   0.000000   0.000000
   25        7.395396      7.395393   0.000000   0.000000
   26        8.107553      8.107554   0.000000   0.000000
   27        8.343205      8.343206   0.000000   0.000000
   28        8.597758      8.597764   0.000000   0.000000
   29        8.998058      8.998060   0.000000   0.000000
   30        9.730785      9.730786   0.000000   0.000000
   31        9.976440      9.976440   0.000000   0.000000
   32       11.248389     11.247277   0.000000   0.000000
 
 -0.4285714E+00  0.2857143E+00  0.3608225E-15  0.1360544E-01
    1      -31.757858    -31.757865   1.000000   1.000000
    2      -27.327070    -27.327065   1.000000   1.000000
    3      -27.315841    -27.315836   1.000000   1.000000
    4      -27.177126    -27.177122   1.000000   1.000000
    5      -27.138611    -27.138608   1.000000   1.000000
    6      -27.049066    -27.049062   1.000000   1.000000
    7      -27.029223    -27.029218   1.000000   1.000000
    8      -14.330911    -14.330915   1.000000   1.000000
    9      -14.032474    -14.032473   1.000000   1.000000
   10      -13.693290    -13.693296   1.000000   1.000000
   11       -2.827008     -2.827010   1.000000   1.000000
   12       -2.580251     -2.580252   1.000000   1.000000
   13       -1.850375     -1.850375   1.000000   1.000000
   14       -1.396322     -1.396322   1.000000   1.000000
   15       -0.982159     -0.982158   1.000000   1.000000
   16       -0.950885     -0.950884   1.000000   1.000000