unknown system                          
           1
     4.587254    0.035223    0.015577
     0.022248    3.371325    0.238914
     0.057357    1.038402    8.803110
   Nb   H    Sr
   1  12   2
Direct configuration=     1
   0.62978437  0.10000340  0.41853993
   0.51359946  0.99916497  0.62121123
   0.02218449  0.11493335  0.38414236
   0.45875857  0.18777547  0.23182916
   0.96100761  0.88528655  0.84938924
   0.21252511  0.31786092  0.97747995
   0.66280938  0.74678518  0.02821493
   0.64491131  0.52201259  0.07998869
   0.15029269  0.56124872  0.67695603
   0.14845019  0.32825517  0.69229709
   0.38513301  0.60368673  0.43305532
   0.79586705  0.55975969  0.51318983
   0.71969733  0.66588336  0.30521580
   0.14375422  0.73064172  0.15624351
   0.65031618  0.41496417  0.80248094
unknown system                          
           1
     4.594148    0.035655    0.016637
     0.022680    3.367918    0.238711
     0.059575    1.036489    8.807726
   Nb   H    Sr
   1  12   2
Direct configuration=     2
   0.63003069  0.09981838  0.41840823
   0.51347563  0.99944515  0.62120163
   0.02200627  0.11487143  0.38402946
   0.45873997  0.18757924  0.23188566
   0.96077098  0.88543976  0.84955804
   0.21327760  0.31753606  0.97753818
   0.66303291  0.74631047  0.02838040
   0.64517233  0.52236324  0.07998952
   0.14996760  0.55933828  0.67716694
   0.14824567  0.33042810  0.69215870
   0.38500029  0.60369546  0.43301193
   0.79576579  0.55955626  0.51310647
   0.71966235  0.66574828  0.30515845
   0.14380409  0.73073628  0.15621817
   0.65013883  0.41539561  0.80242221
unknown system                          
           1
     4.591639    0.035498    0.016251
     0.022523    3.369157    0.238785
     0.058768    1.037185    8.806046
   Nb   H    Sr
   1  12   2
Direct configuration=     3
   0.62994117  0.09988581  0.41845613
   0.51352063  0.99934310  0.62120512
   0.02207100  0.11489401  0.38407051
   0.45874673  0.18765070  0.23186511
   0.96085699  0.88538390  0.84949664
   0.21300420  0.31765439  0.97751704
   0.66295171  0.74648334  0.02832023
   0.64507751  0.52223552  0.07998923
   0.15008568  0.56003408  0.67709022
   0.14832003  0.32963666  0.69220902
   0.38504850  0.60369229  0.43302771
   0.79580256  0.55963038  0.51313678
   0.71967505  0.66579749  0.30517931
   0.14378597  0.73070184  0.15622739
   0.65020327  0.41523847  0.80244356
unknown system                          
           1
     4.600207    0.036282    0.017674
     0.023234    3.367007    0.238063
     0.061791    1.034347    8.810000
   Nb   H    Sr
   1  12   2
Direct configuration=     4
   0.63022788  0.09963252  0.41828877
   0.51337964  0.99980931  0.62112632
   0.02170265  0.11477793  0.38390543
   0.45878849  0.18732951  0.23198303
   0.96046490  0.88560882  0.84976918
   0.21422795  0.31719441  0.97758319
   0.66333777  0.74614688  0.02849891
   0.64544342  0.52241701  0.08007737
   0.14962770  0.56049468  0.67718576
   0.14799687  0.32961987  0.69221301
   0.38489722  0.60369238  0.43295938
   0.79566706  0.55929444  0.51301852
   0.71965708  0.66556619  0.30505870
   0.14382899  0.73080051  0.15620135
   0.64984339  0.41587752  0.80236508
unknown system                          
           1
     4.625911    0.038635    0.021942
     0.025366    3.360556    0.235895
     0.070861    1.025831    8.821862
   Nb   H    Sr
   1  12   2
Direct configuration=     5
   0.63108688  0.09887153  0.41778675
   0.51295740  0.00120864  0.62089020
   0.02060004  0.11442917  0.38341057
   0.45891345  0.18636567  0.23233654
   0.95929019  0.88628501  0.85058665
   0.21789246  0.31581320  0.97778088
   0.66449359  0.74513719  0.02903445
   0.64653884  0.52296189  0.08034154
   0.14825589  0.56187788  0.67747252
   0.14702918  0.32956964  0.69222512
   0.38444433  0.60369254  0.43275455
   0.79526169  0.55828572  0.51266391
   0.71960363  0.66487151  0.30469702
   0.14395780  0.73109661  0.15612327
   0.64876562  0.41779580  0.80213004
unknown system                          
           1
     4.677319    0.043340    0.030478
     0.029629    3.347655    0.231560
     0.089000    1.008801    8.845585
   Nb   H    Sr
   1  12   2
Direct configuration=     6
   0.63279803  0.09734286  0.41678304
   0.51211721  0.00401153  0.62041956
   0.01840931  0.11372848  0.38242313
   0.45916151  0.18443639  0.23304205
   0.95694995  0.88764595  0.85222059
   0.22518136  0.31304318  0.97817183
   0.66679129  0.74311609  0.03010255
   0.64871599  0.52405417  0.08086835
   0.14552505  0.56465250  0.67804703
   0.14510454  0.32947003  0.69225016
   0.38354439  0.60369208  0.43234589
   0.79445781  0.55626281  0.51195567
   0.71949940  0.66347744  0.30397447
   0.14421403  0.73168931  0.15596733
   0.64662114  0.42163917  0.80166236
unknown system                          
           1
     4.647893    0.040647    0.025592
     0.027189    3.355039    0.234041
     0.078617    1.018549    8.832006
   Nb   H    Sr
   1  12   2
Direct configuration=     7
   0.63182628  0.09822556  0.41735716
   0.51259333  0.00240230  0.62068712
   0.01964696  0.11413319  0.38298577
   0.45902160  0.18554256  0.23263993
   0.95827914  0.88685710  0.85128646
   0.22105435  0.31463747  0.97795307
   0.66549179  0.74427494  0.02949454
   0.64748522  0.52342604  0.08056853
   0.14707379  0.56305485  0.67771708
   0.14619411  0.32952609  0.69223490
   0.38405296  0.60369324  0.43257868
   0.79491024  0.55742703  0.51235996
   0.71955606  0.66428081  0.30438715
   0.14406895  0.73134946  0.15605633
   0.64783621  0.41943139  0.80192732
unknown system                          
           1
     4.642522    0.041278    0.025743
     0.027622    3.355244    0.233370
     0.079004    1.017409    8.824014
   Nb   H    Sr
   1  12   2
Direct configuration=     8
   0.63082362  0.09869450  0.41788313
   0.51289611  0.00261927  0.62032283
   0.01920006  0.11399248  0.38285454
   0.45910966  0.18543754  0.23268863
   0.95782440  0.88705402  0.85137089
   0.22174498  0.31468957  0.97795606
   0.66579089  0.74609016  0.02916763
   0.64742026  0.52160017  0.08103890
   0.14695815  0.56222072  0.67781814
   0.14609216  0.33056967  0.69219095
   0.38465186  0.60360326  0.43248936
   0.79488174  0.55729573  0.51232960
   0.71977098  0.66404292  0.30416921
   0.14415375  0.73091136  0.15615101
   0.64777237  0.41944063  0.80180313
unknown system                          
           1
     4.641764    0.041367    0.025764
     0.027684    3.355272    0.233276
     0.079059    1.017248    8.822885
   Nb   H    Sr
   1  12   2
Direct configuration=     9
   0.63068184  0.09876076  0.41795749
   0.51293893  0.00264989  0.62027133
   0.01913688  0.11397262  0.38283599
   0.45912212  0.18542271  0.23269552
   0.95776010  0.88708184  0.85138283
   0.22184263  0.31469691  0.97795648
   0.66583316  0.74634649  0.02912143
   0.64741110  0.52134234  0.08110537
   0.14694181  0.56210293  0.67783242
   0.14607773  0.33071705  0.69218475
   0.38473654  0.60359053  0.43247673
   0.79487772  0.55727719  0.51232530
   0.71980137  0.66400932  0.30413839
   0.14416574  0.73084949  0.15616438
   0.64776334  0.41944193  0.80178558
unknown system                          
           1
     4.637897    0.042170    0.026280
     0.028271    3.355105    0.232952
     0.080191    1.016823    8.816077
   Nb   H    Sr
   1  12   2
Direct configuration=    10
   0.63032325  0.09932836  0.41795551
   0.51307089  0.00280001  0.62014224
   0.01852582  0.11383698  0.38272368
   0.45913034  0.18533400  0.23275992
   0.95723358  0.88729070  0.85149109
   0.22267095  0.31469621  0.97796832
   0.66601095  0.74618779  0.02925589
   0.64754553  0.52137603  0.08114927
   0.14679157  0.56292316  0.67783877
   0.14594023  0.33018513  0.69223607
   0.38520417  0.60346211  0.43242268
   0.79482200  0.55710743  0.51233441
   0.71988518  0.66377318  0.30402699
   0.14428596  0.73045984  0.15620021
   0.64765059  0.41950106  0.80172894
unknown system                          
           1
     4.635007    0.042771    0.026665
     0.028709    3.354979    0.232710
     0.081037    1.016506    8.810987
   Nb   H    Sr
   1  12   2
Direct configuration=    11
   0.63005490  0.09975277  0.41795406
   0.51316965  0.00291223  0.62004566
   0.01806866  0.11373570  0.38263968
   0.45913649  0.18526768  0.23280811
   0.95683959  0.88744693  0.85157211
   0.22329070  0.31469554  0.97797715
   0.66614397  0.74606910  0.02935647
   0.64764610  0.52140120  0.08118211
   0.14667909  0.56353640  0.67784356
   0.14583739  0.32978749  0.69227446
   0.38555407  0.60336603  0.43238221
   0.79478032  0.55698052  0.51234122
   0.71994792  0.66359662  0.30394363
   0.14437594  0.73016852  0.15622700
   0.64756622  0.41954530  0.80168658
unknown system                          
           1
     4.632350    0.043717    0.027405
     0.029427    3.353811    0.232477
     0.082638    1.015876    8.806200
   Nb   H    Sr
   1  12   2
Direct configuration=    12
   0.63004240  0.10018717  0.41781656
   0.51316808  0.00306341  0.62006504
   0.01750255  0.11363229  0.38249565
   0.45899163  0.18522166  0.23278822
   0.95627118  0.88766830  0.85171169
   0.22431314  0.31460626  0.97799625
   0.66634990  0.74561232  0.02956636
   0.64784610  0.52166336  0.08118836
   0.14646751  0.56321556  0.67794035
   0.14566424  0.33048945  0.69225133
   0.38588358  0.60322756  0.43234033
   0.79471023  0.55678376  0.51235339
   0.71996250  0.66334219  0.30386064
   0.14454550  0.72982626  0.15623868
   0.64737246  0.41972244  0.80162117
unknown system                          
           1
     4.630403    0.044410    0.027947
     0.029952    3.352955    0.232306
     0.083811    1.015415    8.802692
   Nb   H    Sr
   1  12   2
Direct configuration=    13
   0.63003322  0.10050562  0.41771574
   0.51316691  0.00317424  0.62007925
   0.01708751  0.11355659  0.38239007
   0.45888542  0.18518796  0.23277364
   0.95585434  0.88783070  0.85181407
   0.22506284  0.31454061  0.97801020
   0.66650090  0.74527744  0.02972023
   0.64799272  0.52185550  0.08119293
   0.14631238  0.56298040  0.67801132
   0.14553720  0.33100407  0.69223438
   0.38612522  0.60312599  0.43230961
   0.79465885  0.55663954  0.51236231
   0.71997324  0.66315566  0.30379979
   0.14466987  0.72957533  0.15624722
   0.64723038  0.41985234  0.80157322
