       N       E                     dE             d eps       ncg     rms          rms(c)
DAV:   1     0.174036911565E+03    0.17404E+03   -0.13548E+04 14968   0.768E+02
DAV:   2    -0.340667008980E+02   -0.20810E+03   -0.20402E+03 17872   0.299E+02
DAV:   3    -0.484174759804E+02   -0.14351E+02   -0.14267E+02 23752   0.598E+01
DAV:   4    -0.492210079552E+02   -0.80353E+00   -0.80166E+00 23168   0.119E+01
DAV:   5    -0.492392553834E+02   -0.18247E-01   -0.18244E-01 23104   0.168E+00    0.367E+01
DAV:   6    -0.463598824549E+02    0.28794E+01   -0.83218E+00 21312   0.156E+01    0.165E+01
DAV:   7    -0.457464073037E+02    0.61348E+00   -0.21305E+00 20456   0.604E+00    0.896E+00
DAV:   8    -0.457136862908E+02    0.32721E-01   -0.69312E-01 22888   0.414E+00    0.257E+00
DAV:   9    -0.457050379602E+02    0.86483E-02   -0.55718E-02 17928   0.110E+00    0.552E-01
DAV:  10    -0.457045089983E+02    0.52896E-03   -0.12902E-02 20744   0.514E-01    0.202E-01
DAV:  11    -0.457051112203E+02   -0.60222E-03   -0.94541E-04 18316   0.171E-01    0.538E-02
DAV:  12    -0.457052742364E+02   -0.16302E-03   -0.27390E-04 15596   0.867E-02    0.316E-02
DAV:  13    -0.457052969755E+02   -0.22739E-04   -0.33486E-05 12296   0.342E-02
   1 F= -.45705297E+02 E0= -.45705557E+02  d E =-.457053E+02
       N       E                     dE             d eps       ncg     rms          rms(c)
DAV:   1    -0.457037135826E+02    0.15607E-02   -0.70099E+00 16192   0.210E+01    0.168E+00
DAV:   2    -0.457620121633E+02   -0.58299E-01   -0.85861E-01 15600   0.518E+00    0.709E-01
DAV:   3    -0.457586824738E+02    0.33297E-02   -0.23430E-02 22476   0.889E-01    0.388E-01
DAV:   4    -0.457573881584E+02    0.12943E-02   -0.52107E-03 23768   0.446E-01    0.251E-01
DAV:   5    -0.457574909842E+02   -0.10283E-03   -0.89185E-04 20688   0.166E-01    0.148E-01
DAV:   6    -0.457575352431E+02   -0.44259E-04   -0.14066E-04 11096   0.725E-02
   2 F= -.45757535E+02 E0= -.45757800E+02  d E =-.522383E-01
       N       E                     dE             d eps       ncg     rms          rms(c)
DAV:   1    -0.457573103466E+02    0.18064E-03   -0.10529E-01 16704   0.257E+00    0.190E-01
DAV:   2    -0.457581529611E+02   -0.84261E-03   -0.12542E-02 16112   0.627E-01    0.839E-02
DAV:   3    -0.457581086393E+02    0.44322E-04   -0.31561E-04 18284   0.106E-01
   3 F= -.45758109E+02 E0= -.45758368E+02  d E =-.528117E-01
       N       E                     dE             d eps       ncg     rms          rms(c)
DAV:   1    -0.457947158431E+02   -0.36563E-01   -0.24170E+00 14224   0.103E+01    0.108E+00
DAV:   2    -0.457958624742E+02   -0.11466E-02   -0.14868E-01 19128   0.267E+00    0.460E-01
DAV:   3    -0.457939637386E+02    0.18987E-02   -0.80204E-03 23308   0.498E-01    0.263E-01
DAV:   4    -0.457935360688E+02    0.42767E-03   -0.17290E-03 24180   0.241E-01    0.192E-01
DAV:   5    -0.457935938319E+02   -0.57763E-04   -0.19167E-04 14816   0.692E-02
   4 F= -.45793594E+02 E0= -.45793825E+02  d E =-.354852E-01
       N       E                     dE             d eps       ncg     rms          rms(c)
DAV:   1    -0.458033884206E+02   -0.98524E-02   -0.16674E+00 14252   0.855E+00    0.900E-01
DAV:   2    -0.458043278256E+02   -0.93940E-03   -0.10290E-01 19192   0.223E+00    0.379E-01
DAV:   3    -0.458030576027E+02    0.12702E-02   -0.55228E-03 23364   0.414E-01    0.211E-01
DAV:   4    -0.458027766519E+02    0.28095E-03   -0.11678E-03 23896   0.201E-01    0.155E-01
DAV:   5    -0.458028151155E+02   -0.38464E-04   -0.10703E-04 12196   0.566E-02
   5 F= -.45802815E+02 E0= -.45803006E+02  d E =-.447065E-01
       N       E                     dE             d eps       ncg     rms          rms(c)
DAV:   1    -0.458291364337E+02   -0.26360E-01   -0.30131E+00 16240   0.126E+01    0.120E+00
DAV:   2    -0.458380734557E+02   -0.89370E-02   -0.24640E-01 16360   0.320E+00    0.479E-01
DAV:   3    -0.458362450429E+02    0.18284E-02   -0.12582E-02 25308   0.601E-01    0.274E-01
DAV:   4    -0.458358963015E+02    0.34874E-03   -0.18441E-03 24480   0.249E-01    0.212E-01
DAV:   5    -0.458359856991E+02   -0.89398E-04   -0.28922E-04 16376   0.101E-01
   6 F= -.45835986E+02 E0= -.45836179E+02  d E =-.331706E-01
       N       E                     dE             d eps       ncg     rms          rms(c)
DAV:   1    -0.458399476654E+02   -0.40514E-02   -0.42171E+00 16248   0.150E+01    0.146E+00
DAV:   2    -0.458523681452E+02   -0.12420E-01   -0.34479E-01 16296   0.380E+00    0.566E-01
DAV:   3    -0.458497445465E+02    0.26236E-02   -0.18098E-02 25288   0.722E-01    0.325E-01
DAV:   4    -0.458492859367E+02    0.45861E-03   -0.26117E-03 24544   0.297E-01    0.254E-01
DAV:   5    -0.458494197840E+02   -0.13385E-03   -0.44547E-04 20196   0.118E-01    0.880E-02
DAV:   6    -0.458494443592E+02   -0.24575E-04   -0.97806E-05 10248   0.631E-02
   7 F= -.45849444E+02 E0= -.45849647E+02  d E =-.466292E-01
       N       E                     dE             d eps       ncg     rms          rms(c)
DAV:   1    -0.458656123939E+02   -0.16193E-01   -0.68681E-01 14268   0.561E+00    0.503E-01
DAV:   2    -0.458665691325E+02   -0.95674E-03   -0.41879E-02 17704   0.135E+00    0.236E-01
DAV:   3    -0.458660156674E+02    0.55347E-03   -0.21273E-03 21892   0.274E-01    0.131E-01
DAV:   4    -0.458658775555E+02    0.13811E-03   -0.52200E-04 17552   0.144E-01    0.581E-02
DAV:   5    -0.458658796458E+02   -0.20903E-05   -0.56552E-05 10116   0.532E-02
   8 F= -.45865880E+02 E0= -.45866095E+02  d E =-.164353E-01
       N       E                     dE             d eps       ncg     rms          rms(c)
DAV:   1    -0.458866703445E+02   -0.20793E-01   -0.61441E+00 14224   0.168E+01    0.145E+00
DAV:   2    -0.458940176511E+02   -0.73473E-02   -0.37730E-01 17832   0.402E+00    0.681E-01
DAV:   3    -0.458895355779E+02    0.44821E-02   -0.19205E-02 22416   0.833E-01    0.395E-01
DAV:   4    -0.458883200007E+02    0.12156E-02   -0.45299E-03 19728   0.422E-01    0.182E-01
DAV:   5    -0.458883570638E+02   -0.37063E-04   -0.61437E-04 20524   0.142E-01
   9 F= -.45888357E+02 E0= -.45888582E+02  d E =-.389127E-01
       N       E                     dE             d eps       ncg     rms          rms(c)
DAV:   1    -0.458998300577E+02   -0.11510E-01   -0.35353E-01 14456   0.378E+00    0.383E-01
DAV:   2    -0.458995827727E+02    0.24728E-03   -0.17465E-02 18632   0.907E-01    0.170E-01
DAV:   3    -0.458992390329E+02    0.34374E-03   -0.11670E-03 22836   0.200E-01    0.932E-02
DAV:   4    -0.458991650285E+02    0.74004E-04   -0.24130E-04 11768   0.102E-01
  10 F= -.45899165E+02 E0= -.45899397E+02  d E =-.108080E-01
       N       E                     dE             d eps       ncg     rms          rms(c)
DAV:   1    -0.459072830351E+02   -0.80440E-02   -0.91346E-01 14232   0.608E+00    0.623E-01
DAV:   2    -0.459065593651E+02    0.72367E-03   -0.45418E-02 18600   0.146E+00    0.273E-01
DAV:   3    -0.459056671402E+02    0.89222E-03   -0.30540E-03 23368   0.324E-01    0.157E-01
DAV:   4    -0.459054786595E+02    0.18848E-03   -0.72607E-04 19076   0.165E-01    0.942E-02
DAV:   5    -0.459054835060E+02   -0.48465E-05   -0.76410E-05 10144   0.573E-02
  11 F= -.45905484E+02 E0= -.45905723E+02  d E =-.171264E-01
       N       E                     dE             d eps       ncg     rms          rms(c)
DAV:   1    -0.459101639537E+02   -0.46853E-02   -0.31737E-01 16336   0.427E+00    0.256E-01
DAV:   2    -0.459120959143E+02   -0.19320E-02   -0.27382E-02 16220   0.974E-01    0.136E-01
DAV:   3    -0.459120093600E+02    0.86554E-04   -0.70702E-04 21844   0.158E-01
  12 F= -.45912009E+02 E0= -.45912265E+02  d E =-.652585E-02
       N       E                     dE             d eps       ncg     rms          rms(c)
DAV:   1    -0.459036456927E+02    0.84502E-02   -0.28349E+00 15408   0.128E+01    0.797E-01
DAV:   2    -0.459218560404E+02   -0.18210E-01   -0.25828E-01 16208   0.299E+00    0.418E-01
DAV:   3    -0.459211698927E+02    0.68615E-03   -0.69244E-03 22976   0.481E-01    0.249E-01
DAV:   4    -0.459208253193E+02    0.34457E-03   -0.14901E-03 20612   0.253E-01    0.914E-02
DAV:   5    -0.459208428458E+02   -0.17526E-04   -0.22219E-04 13456   0.975E-02
  13 F= -.45920843E+02 E0= -.45921142E+02  d E =-.153593E-01
       N       E                     dE             d eps       ncg     rms          rms(c)
DAV:   1    -0.459287353767E+02   -0.79101E-02   -0.29455E-01 14308   0.373E+00    0.454E-01
DAV:   2    -0.459284210779E+02    0.31430E-03   -0.21047E-02 18768   0.103E+00    0.176E-01
DAV:   3    -0.459280360712E+02    0.38501E-03   -0.13290E-03 21124   0.215E-01    0.107E-01
DAV:   4    -0.459279625548E+02    0.73516E-04   -0.41727E-04 18904   0.114E-01
  14 F= -.45927963E+02 E0= -.45928259E+02  d E =-.711971E-02
       N       E                     dE             d eps       ncg     rms          rms(c)
DAV:   1    -0.459310344908E+02   -0.29984E-02   -0.29319E-01 14232   0.373E+00    0.473E-01
DAV:   2    -0.459305129072E+02    0.52158E-03   -0.21191E-02 18728   0.104E+00    0.180E-01
DAV:   3    -0.459300727165E+02    0.44019E-03   -0.14433E-03 21396   0.220E-01    0.127E-01
DAV:   4    -0.459300111280E+02    0.61588E-04   -0.50699E-04 20376   0.121E-01
  15 F= -.45930011E+02 E0= -.45930300E+02  d E =-.916828E-02
       N       E                     dE             d eps       ncg     rms          rms(c)
DAV:   1    -0.459350269785E+02   -0.49543E-02   -0.21625E-01 14236   0.320E+00    0.350E-01
DAV:   2    -0.459350372816E+02   -0.10303E-04   -0.14486E-02 18416   0.838E-01    0.145E-01
DAV:   3    -0.459348036834E+02    0.23360E-03   -0.83643E-04 21132   0.166E-01    0.105E-01
DAV:   4    -0.459347738096E+02    0.29874E-04   -0.25362E-04 14416   0.959E-02
  16 F= -.45934774E+02 E0= -.45935045E+02  d E =-.476268E-02
       N       E                     dE             d eps       ncg     rms          rms(c)
DAV:   1    -0.459374514285E+02   -0.26477E-02   -0.47468E-01 14224   0.476E+00    0.520E-01
DAV:   2    -0.459376628906E+02   -0.21146E-03   -0.31769E-02 18416   0.124E+00    0.213E-01
DAV:   3    -0.459371877138E+02    0.47518E-03   -0.17350E-03 21460   0.242E-01    0.140E-01
DAV:   4    -0.459371172466E+02    0.70467E-04   -0.58411E-04 20216   0.136E-01
  17 F= -.45937117E+02 E0= -.45937360E+02  d E =-.710612E-02
       N       E                     dE             d eps       ncg     rms          rms(c)
DAV:   1    -0.459388112695E+02   -0.16236E-02   -0.12330E-01 16276   0.278E+00    0.209E-01
DAV:   2    -0.459398542107E+02   -0.10429E-02   -0.14195E-02 15588   0.653E-01    0.104E-01
DAV:   3    -0.459398210120E+02    0.33199E-04   -0.33859E-04 18440   0.112E-01
  18 F= -.45939821E+02 E0= -.45940078E+02  d E =-.270377E-02
       N       E                     dE             d eps       ncg     rms          rms(c)
DAV:   1    -0.459363120213E+02    0.35422E-02   -0.68645E-01 16216   0.657E+00    0.449E-01
DAV:   2    -0.459420835145E+02   -0.57715E-02   -0.78392E-02 15520   0.154E+00    0.217E-01
DAV:   3    -0.459419135911E+02    0.16992E-03   -0.19181E-03 21756   0.257E-01    0.127E-01
DAV:   4    -0.459418268455E+02    0.86746E-04   -0.38148E-04 16564   0.135E-01
  19 F= -.45941827E+02 E0= -.45942105E+02  d E =-.470960E-02
       N       E                     dE             d eps       ncg     rms          rms(c)
DAV:   1    -0.459436191083E+02   -0.17055E-02   -0.83377E-02 16360   0.212E+00    0.194E-01
DAV:   2    -0.459438843056E+02   -0.26520E-03   -0.66278E-03 16400   0.496E-01    0.866E-02
DAV:   3    -0.459438265684E+02    0.57737E-04   -0.24024E-04 15960   0.960E-02
  20 F= -.45943827E+02 E0= -.45944116E+02  d E =-.199972E-02
       N       E                     dE             d eps       ncg     rms          rms(c)
DAV:   1    -0.459442187432E+02   -0.33444E-03   -0.32622E-01 16264   0.417E+00    0.389E-01
DAV:   2    -0.459452209101E+02   -0.10022E-02   -0.26118E-02 16416   0.983E-01    0.168E-01
DAV:   3    -0.459450030443E+02    0.21787E-03   -0.11482E-03 22824   0.190E-01    0.996E-02
DAV:   4    -0.459449545317E+02    0.48513E-04   -0.18359E-04 12192   0.964E-02
  21 F= -.45944955E+02 E0= -.45945259E+02  d E =-.312769E-02
       N       E                     dE             d eps       ncg     rms          rms(c)
DAV:   1    -0.459468353631E+02   -0.18323E-02   -0.94395E-02 16308   0.222E+00    0.188E-01
DAV:   2    -0.459470952374E+02   -0.25987E-03   -0.71135E-03 17360   0.523E-01    0.842E-02
DAV:   3    -0.459470178333E+02    0.77404E-04   -0.24187E-04 14936   0.964E-02
  22 F= -.45947018E+02 E0= -.45947311E+02  d E =-.206330E-02
       N       E                     dE             d eps       ncg     rms          rms(c)
DAV:   1    -0.459473463507E+02   -0.25111E-03   -0.59506E-01 16200   0.558E+00    0.460E-01
DAV:   2    -0.459489460611E+02   -0.15997E-02   -0.44822E-02 17432   0.132E+00    0.210E-01
DAV:   3    -0.459484963809E+02    0.44968E-03   -0.17911E-03 22860   0.240E-01    0.123E-01
DAV:   4    -0.459484001763E+02    0.96205E-04   -0.44959E-04 17224   0.130E-01
  23 F= -.45948400E+02 E0= -.45948672E+02  d E =-.344564E-02
       N       E                     dE             d eps       ncg     rms          rms(c)
DAV:   1    -0.459493364389E+02   -0.84006E-03   -0.10357E-01 16312   0.222E+00    0.154E-01
DAV:   2    -0.459496755102E+02   -0.33907E-03   -0.61743E-03 16840   0.481E-01    0.762E-02
DAV:   3    -0.459496346055E+02    0.40905E-04   -0.16747E-04 15496   0.846E-02
  24 F= -.45949635E+02 E0= -.45949906E+02  d E =-.123443E-02
       N       E                     dE             d eps       ncg     rms          rms(c)
DAV:   1    -0.459496423938E+02    0.33116E-04   -0.22704E-02 16676   0.104E+00    0.677E-02
DAV:   2    -0.459497179010E+02   -0.75507E-04   -0.13353E-03 17104   0.220E-01    0.375E-02
DAV:   3    -0.459497111388E+02    0.67622E-05   -0.35289E-05 10504   0.401E-02
  25 F= -.45949711E+02 E0= -.45949981E+02  d E =-.131096E-02
       N       E                     dE             d eps       ncg     rms          rms(c)
DAV:   1    -0.459504586083E+02   -0.74071E-03   -0.16791E-01 16240   0.318E+00    0.264E-01
DAV:   2    -0.459513459858E+02   -0.88738E-03   -0.17429E-02 16364   0.783E-01    0.102E-01
DAV:   3    -0.459512781097E+02    0.67876E-04   -0.64722E-04 22008   0.141E-01
  26 F= -.45951278E+02 E0= -.45951555E+02  d E =-.156697E-02
       N       E                     dE             d eps       ncg     rms          rms(c)
DAV:   1    -0.459506799050E+02    0.66608E-03   -0.19304E-01 16264   0.341E+00    0.289E-01
DAV:   2    -0.459516213107E+02   -0.94141E-03   -0.19834E-02 16436   0.841E-01    0.120E-01
DAV:   3    -0.459515414025E+02    0.79908E-04   -0.80624E-04 22168   0.154E-01
  27 F= -.45951541E+02 E0= -.45951823E+02  d E =-.183026E-02
       N       E                     dE             d eps       ncg     rms          rms(c)
DAV:   1    -0.459528093596E+02   -0.11880E-02   -0.14469E-01 15592   0.277E+00    0.331E-01
DAV:   2    -0.459526194035E+02    0.18996E-03   -0.12643E-02 17564   0.762E-01    0.122E-01
DAV:   3    -0.459524531151E+02    0.16629E-03   -0.80865E-04 21460   0.156E-01    0.923E-02
DAV:   4    -0.459524245844E+02    0.28531E-04   -0.15135E-04 11564   0.823E-02
  28 F= -.45952425E+02 E0= -.45952694E+02  d E =-.883182E-03
       N       E                     dE             d eps       ncg     rms          rms(c)
DAV:   1    -0.459528650409E+02   -0.41193E-03   -0.10875E-01 15596   0.241E+00    0.284E-01
DAV:   2    -0.459527429877E+02    0.12205E-03   -0.93077E-03 17524   0.647E-01    0.100E-01
DAV:   3    -0.459526202967E+02    0.12269E-03   -0.59868E-04 20644   0.134E-01    0.738E-02
DAV:   4    -0.459526001032E+02    0.20194E-04   -0.98090E-05 10080   0.706E-02
  29 F= -.45952600E+02 E0= -.45952860E+02  d E =-.105870E-02
       N       E                     dE             d eps       ncg     rms          rms(c)
DAV:   1    -0.459532210965E+02   -0.60080E-03   -0.61839E-02 16264   0.176E+00    0.174E-01
DAV:   2    -0.459533760233E+02   -0.15493E-03   -0.47211E-03 17712   0.429E-01    0.879E-02
DAV:   3    -0.459533116315E+02    0.64392E-04   -0.20892E-04 14656   0.889E-02
  30 F= -.45953312E+02 E0= -.45953561E+02  d E =-.711528E-03
       N       E                     dE             d eps       ncg     rms          rms(c)
DAV:   1    -0.459532956060E+02    0.80417E-04   -0.61998E-05  9824   0.608E-02    0.294E-02
DAV:   2    -0.459532966335E+02   -0.10276E-05   -0.23312E-05  8976   0.444E-02
  31 F= -.45953297E+02 E0= -.45953546E+02  d E =-.696530E-03
