 running on   32 total cores
 distrk:  each k-point on   32 cores,    1 groups
 distr:  one band on    8 cores,    4 groups
 using from now: INCAR     
 vasp.5.4.4.18Apr17-6-g9f103f2a35 (build Nov 01 2019 12:17:22) complex          
  
 POSCAR found type information on POSCAR  H  Nb Sr H  Sr H 
 POSCAR found :  6 types and      12 ions
 LDA part: xc-table for Pade appr. of Perdew
 generate k-points for:   11    7    7
 POSCAR, INCAR and KPOINTS ok, starting setup
 FFT: planning ...
 WAVECAR not read
 entering main loop
       N       E                     dE             d eps       ncg     rms          rms(c)
DAV:   1     0.171817381362E+03    0.17182E+03   -0.12858E+04 15360   0.792E+02
DAV:   2    -0.319517901015E+02   -0.20377E+03   -0.19927E+03 18916   0.294E+02
DAV:   3    -0.469487797315E+02   -0.14997E+02   -0.14884E+02 24696   0.610E+01
DAV:   4    -0.477596225642E+02   -0.81084E+00   -0.80830E+00 24400   0.123E+01
DAV:   5    -0.477794306662E+02   -0.19808E-01   -0.19802E-01 24068   0.179E+00    0.334E+01
DAV:   6    -0.455139909329E+02    0.22654E+01   -0.41244E+00 21904   0.107E+01    0.166E+01
DAV:   7    -0.448031022374E+02    0.71089E+00   -0.22347E+00 20344   0.554E+00    0.718E+00
DAV:   8    -0.447957481104E+02    0.73541E-02   -0.54715E-01 24136   0.387E+00    0.259E+00
DAV:   9    -0.447903373859E+02    0.54107E-02   -0.73164E-02 20128   0.129E+00    0.517E-01
DAV:  10    -0.447904080356E+02   -0.70650E-04   -0.38961E-03 20636   0.321E-01    0.157E-01
DAV:  11    -0.447908868193E+02   -0.47878E-03   -0.66748E-04 16976   0.139E-01    0.479E-02
DAV:  12    -0.447909938388E+02   -0.10702E-03   -0.14248E-04 16228   0.619E-02    0.191E-02
DAV:  13    -0.447910050301E+02   -0.11191E-04   -0.16206E-05 10640   0.256E-02
   1 F= -.44791005E+02 E0= -.44790576E+02  d E =-.447910E+02
 curvature:   0.00 expect dE= 0.000E+00 dE for cont linesearch  0.000E+00
 trial: gam= 0.00000 g(F)=  0.445E-02 g(S)=  0.133E-02 ort = 0.000E+00 (trialstep = 0.100E+01)
 search vector abs. value=  0.578E-02
 bond charge predicted
       N       E                     dE             d eps       ncg     rms          rms(c)
DAV:   1    -0.447920332701E+02   -0.10394E-02   -0.38208E-01 17528   0.476E+00    0.453E-01
DAV:   2    -0.447945750656E+02   -0.25418E-02   -0.50615E-02 16760   0.123E+00    0.188E-01
DAV:   3    -0.447941847367E+02    0.39033E-03   -0.18195E-03 22756   0.238E-01    0.988E-02
DAV:   4    -0.447940725739E+02    0.11216E-03   -0.51973E-04 19744   0.135E-01    0.841E-02
DAV:   5    -0.447940871655E+02   -0.14592E-04   -0.60242E-05 10164   0.498E-02
   2 F= -.44794087E+02 E0= -.44793644E+02  d E =-.308214E-02
 trial-energy change:   -0.003082  1 .order   -0.003146   -0.005783   -0.000509
 step:   1.0965(harm=  1.0965)  dis= 0.00652  next Energy=   -44.794175 (dE=-0.317E-02)
 bond charge predicted
       N       E                     dE             d eps       ncg     rms          rms(c)
DAV:   1    -0.447940916683E+02   -0.19094E-04   -0.35128E-03 18220   0.455E-01    0.478E-02
DAV:   2    -0.447941086574E+02   -0.16989E-04   -0.44770E-04 14392   0.116E-01
   3 F= -.44794109E+02 E0= -.44793665E+02  d E =-.310363E-02
 curvature:  -0.55 expect dE=-0.316E-02 dE for cont linesearch -0.398E-06
 trial: gam= 1.00768 g(F)=  0.519E-02 g(S)=  0.569E-03 ort =-0.648E-04 (trialstep = 0.512E+00)
 search vector abs. value=  0.115E-01
 bond charge predicted
       N       E                     dE             d eps       ncg     rms          rms(c)
DAV:   1    -0.447964060122E+02   -0.23143E-02   -0.13489E-01 17364   0.270E+00    0.313E-01
DAV:   2    -0.447963969351E+02    0.90771E-05   -0.12967E-02 17008   0.681E-01    0.121E-01
DAV:   3    -0.447961804847E+02    0.21645E-03   -0.80949E-04 23404   0.152E-01    0.679E-02
DAV:   4    -0.447961485557E+02    0.31929E-04   -0.12948E-04 10580   0.759E-02
   4 F= -.44796149E+02 E0= -.44795688E+02  d E =-.203990E-02
 trial-energy change:   -0.002040  1 .order   -0.002212   -0.002919   -0.001505
 step:   1.0574(harm=  1.0574)  dis= 0.00873  next Energy=   -44.797121 (dE=-0.301E-02)
 bond charge predicted
       N       E                     dE             d eps       ncg     rms          rms(c)
DAV:   1    -0.447969951751E+02   -0.81469E-03   -0.15256E-01 17320   0.289E+00    0.327E-01
DAV:   2    -0.447969827183E+02    0.12457E-04   -0.14642E-02 16968   0.724E-01    0.129E-01
DAV:   3    -0.447967402468E+02    0.24247E-03   -0.92918E-04 23584   0.163E-01    0.783E-02
DAV:   4    -0.447967086553E+02    0.31591E-04   -0.14895E-04 10788   0.815E-02
   5 F= -.44796709E+02 E0= -.44796235E+02  d E =-.260000E-02
 curvature:  -1.07 expect dE=-0.497E-02 dE for cont linesearch -0.133E-05
 trial: gam= 0.75906 g(F)=  0.419E-02 g(S)=  0.464E-03 ort =-0.120E-03 (trialstep = 0.621E+00)
 search vector abs. value=  0.111E-01
 bond charge predicted
       N       E                     dE             d eps       ncg     rms          rms(c)
DAV:   1    -0.447996812138E+02   -0.29410E-02   -0.15290E-01 15152   0.266E+00    0.292E-01
DAV:   2    -0.447993691303E+02    0.31208E-03   -0.10076E-02 17736   0.636E-01    0.117E-01
DAV:   3    -0.447991422623E+02    0.22687E-03   -0.69285E-04 21292   0.144E-01    0.771E-02
DAV:   4    -0.447991188858E+02    0.23376E-04   -0.10101E-04 10132   0.696E-02
   6 F= -.44799119E+02 E0= -.44798637E+02  d E =-.241023E-02
 ZBRENT: can't locate minimum, use default step
 trial-energy change:   -0.002410  1 .order   -0.002558   -0.002838   -0.002278
 step:   2.4855(harm=  3.1508)  dis= 0.01652  next Energy=   -44.803904 (dE=-0.720E-02)
 bond charge predicted
       N       E                     dE             d eps       ncg     rms          rms(c)
DAV:   1    -0.448073900619E+02   -0.82478E-02   -0.13802E+00 15120   0.802E+00    0.891E-01
DAV:   2    -0.448049537028E+02    0.24364E-02   -0.90923E-02 17792   0.191E+00    0.355E-01
DAV:   3    -0.448029056745E+02    0.20480E-02   -0.60003E-03 22640   0.430E-01    0.203E-01
DAV:   4    -0.448026667145E+02    0.23896E-03   -0.11284E-03 25096   0.192E-01    0.171E-01
DAV:   5    -0.448026838110E+02   -0.17096E-04   -0.13254E-04 12012   0.669E-02
   7 F= -.44802684E+02 E0= -.44802184E+02  d E =-.597516E-02
 curvature:  -3.57 expect dE=-0.270E-01 dE for cont linesearch -0.248E-03
 trial: gam= 1.41072 g(F)=  0.568E-02 g(S)=  0.189E-02 ort = 0.878E-03 (trialstep = 0.343E+00)
 search vector abs. value=  0.321E-01
 bond charge predicted
       N       E                     dE             d eps       ncg     rms          rms(c)
DAV:   1    -0.448050030483E+02   -0.23363E-02   -0.12564E-01 16592   0.247E+00    0.204E-01
DAV:   2    -0.448052733517E+02   -0.27030E-03   -0.84129E-03 17360   0.548E-01    0.944E-02
DAV:   3    -0.448051743881E+02    0.98964E-04   -0.35576E-04 17932   0.113E-01
   8 F= -.44805174E+02 E0= -.44804671E+02  d E =-.249058E-02
 trial-energy change:   -0.002491  1 .order   -0.002628   -0.003024   -0.002232
 step:   1.3107(harm=  1.3107)  dis= 0.01706  next Energy=   -44.808454 (dE=-0.577E-02)
 bond charge predicted
       N       E                     dE             d eps       ncg     rms          rms(c)
DAV:   1    -0.448060091076E+02   -0.73576E-03   -0.99779E-01 16592   0.695E+00    0.550E-01
DAV:   2    -0.448080701136E+02   -0.20610E-02   -0.65981E-02 17348   0.152E+00    0.255E-01
DAV:   3    -0.448073167029E+02    0.75341E-03   -0.28620E-03 23704   0.306E-01    0.129E-01
DAV:   4    -0.448071766914E+02    0.14001E-03   -0.49633E-04 17808   0.142E-01    0.674E-02
DAV:   5    -0.448071731847E+02    0.35067E-05   -0.60524E-05 10652   0.536E-02
   9 F= -.44807173E+02 E0= -.44806657E+02  d E =-.448937E-02
 curvature:  -2.39 expect dE=-0.297E-01 dE for cont linesearch -0.172E-03
 trial: gam= 0.00000 g(F)=  0.101E-01 g(S)=  0.233E-02 ort =-0.152E-02 (trialstep = 0.537E+00)
 search vector abs. value=  0.124E-01
 bond charge predicted
       N       E                     dE             d eps       ncg     rms          rms(c)
DAV:   1    -0.448108617182E+02   -0.36850E-02   -0.14435E-01 17328   0.265E+00    0.259E-01
DAV:   2    -0.448112522041E+02   -0.39049E-03   -0.13354E-02 17528   0.656E-01    0.120E-01
DAV:   3    -0.448110830575E+02    0.16915E-03   -0.50976E-04 20692   0.131E-01    0.659E-02
DAV:   4    -0.448110425310E+02    0.40526E-04   -0.19621E-04 12552   0.874E-02
  10 F= -.44811043E+02 E0= -.44810529E+02  d E =-.386935E-02
 trial-energy change:   -0.003869  1 .order   -0.003855   -0.006661   -0.001049
 step:   0.6373(harm=  0.6373)  dis= 0.00919  next Energy=   -44.811126 (dE=-0.395E-02)
 bond charge predicted
       N       E                     dE             d eps       ncg     rms          rms(c)
DAV:   1    -0.448111226840E+02   -0.39627E-04   -0.50828E-03 17504   0.511E-01    0.501E-02
DAV:   2    -0.448111354676E+02   -0.12784E-04   -0.47083E-04 17348   0.123E-01
  11 F= -.44811135E+02 E0= -.44810622E+02  d E =-.396228E-02
 curvature:  -0.32 expect dE=-0.143E-02 dE for cont linesearch -0.317E-09
 trial: gam= 0.36239 g(F)=  0.282E-02 g(S)=  0.168E-02 ort = 0.351E-05 (trialstep = 0.557E+00)
 search vector abs. value=  0.613E-02
 bond charge predicted
       N       E                     dE             d eps       ncg     rms          rms(c)
DAV:   1    -0.448141115313E+02   -0.29888E-02   -0.82991E-02 15120   0.204E+00    0.319E-01
DAV:   2    -0.448134741737E+02    0.63736E-03   -0.84790E-03 19832   0.585E-01    0.115E-01
DAV:   3    -0.448132150150E+02    0.25916E-03   -0.63880E-04 20808   0.143E-01    0.763E-02
DAV:   4    -0.448131501932E+02    0.64822E-04   -0.15687E-04 10176   0.815E-02
  12 F= -.44813150E+02 E0= -.44812637E+02  d E =-.201473E-02
 ZBRENT: can't locate minimum, use default step
 trial-energy change:   -0.002015  1 .order   -0.002218   -0.002507   -0.001928
 step:   2.2279(harm=  2.4140)  dis= 0.00972  next Energy=   -44.816567 (dE=-0.543E-02)
 bond charge predicted
       N       E                     dE             d eps       ncg     rms          rms(c)
DAV:   1    -0.448237287756E+02   -0.10514E-01   -0.74858E-01 15120   0.612E+00    0.939E-01
DAV:   2    -0.448180230160E+02    0.57058E-02   -0.76065E-02 19660   0.174E+00    0.343E-01
DAV:   3    -0.448157024249E+02    0.23206E-02   -0.57341E-03 21232   0.429E-01    0.230E-01
DAV:   4    -0.448151979516E+02    0.50447E-03   -0.20827E-03 26592   0.241E-01    0.235E-01
DAV:   5    -0.448152661834E+02   -0.68232E-04   -0.20623E-04 15072   0.688E-02
  13 F= -.44815266E+02 E0= -.44814756E+02  d E =-.413072E-02
 curvature:  -1.63 expect dE=-0.550E-02 dE for cont linesearch -0.100E-03
 trial: gam= 0.62408 g(F)=  0.320E-02 g(S)=  0.181E-03 ort = 0.614E-03 (trialstep = 0.836E+00)
 search vector abs. value=  0.653E-02
 bond charge predicted
       N       E                     dE             d eps       ncg     rms          rms(c)
DAV:   1    -0.448161193118E+02   -0.92136E-03   -0.24403E-01 17168   0.373E+00    0.311E-01
DAV:   2    -0.448175329111E+02   -0.14136E-02   -0.27797E-02 16288   0.882E-01    0.138E-01
DAV:   3    -0.448173492182E+02    0.18369E-03   -0.89710E-04 22604   0.162E-01    0.666E-02
DAV:   4    -0.448172958064E+02    0.53412E-04   -0.15876E-04 10888   0.836E-02
  14 F= -.44817296E+02 E0= -.44816787E+02  d E =-.202962E-02
 trial-energy change:   -0.002030  1 .order   -0.002419   -0.003146   -0.001691
 step:   1.8080(harm=  1.8080)  dis= 0.01220  next Energy=   -44.818667 (dE=-0.340E-02)
 bond charge predicted
       N       E                     dE             d eps       ncg     rms          rms(c)
DAV:   1    -0.448167147632E+02    0.63445E-03   -0.33239E-01 17016   0.436E+00    0.349E-01
DAV:   2    -0.448186358128E+02   -0.19210E-02   -0.37421E-02 16296   0.102E+00    0.159E-01
DAV:   3    -0.448183862856E+02    0.24953E-03   -0.11789E-03 22696   0.189E-01    0.821E-02
DAV:   4    -0.448183079923E+02    0.78293E-04   -0.24042E-04 12800   0.996E-02
  15 F= -.44818308E+02 E0= -.44817807E+02  d E =-.304181E-02
 curvature:  -1.57 expect dE=-0.585E-02 dE for cont linesearch -0.577E-04
 trial: gam= 0.89803 g(F)=  0.248E-02 g(S)=  0.124E-02 ort = 0.490E-03 (trialstep = 0.682E+00)
 search vector abs. value=  0.987E-02
 bond charge predicted
       N       E                     dE             d eps       ncg     rms          rms(c)
DAV:   1    -0.448201779046E+02   -0.17916E-02   -0.19835E-01 15128   0.318E+00    0.304E-01
DAV:   2    -0.448207906389E+02   -0.61273E-03   -0.17493E-02 17216   0.801E-01    0.123E-01
DAV:   3    -0.448206248875E+02    0.16575E-03   -0.77360E-04 22532   0.157E-01    0.668E-02
DAV:   4    -0.448205678539E+02    0.57034E-04   -0.13428E-04 10360   0.809E-02
  16 F= -.44820568E+02 E0= -.44820072E+02  d E =-.225986E-02
 trial-energy change:   -0.002260  1 .order   -0.002364   -0.002840   -0.001888
 step:   2.0350(harm=  2.0350)  dis= 0.01678  next Energy=   -44.822545 (dE=-0.424E-02)
 bond charge predicted
       N       E                     dE             d eps       ncg     rms          rms(c)
DAV:   1    -0.448201922578E+02    0.43263E-03   -0.77782E-01 15240   0.630E+00    0.585E-01
DAV:   2    -0.448225688555E+02   -0.23766E-02   -0.67660E-02 17116   0.157E+00    0.229E-01
DAV:   3    -0.448219501634E+02    0.61869E-03   -0.29189E-03 23344   0.301E-01    0.136E-01
DAV:   4    -0.448217946560E+02    0.15551E-03   -0.72653E-04 21000   0.157E-01    0.113E-01
DAV:   5    -0.448218199014E+02   -0.25245E-04   -0.77059E-05 10548   0.534E-02
  17 F= -.44821820E+02 E0= -.44821340E+02  d E =-.351191E-02
 curvature:  -2.41 expect dE=-0.322E-01 dE for cont linesearch -0.413E-04
 trial: gam= 3.73213 g(F)=  0.116E-01 g(S)=  0.174E-02 ort =-0.411E-03 (trialstep = 0.636E-01)
 search vector abs. value=  0.148E+00
 bond charge predicted
       N       E                     dE             d eps       ncg     rms          rms(c)
DAV:   1    -0.448225599221E+02   -0.76527E-03   -0.22682E-02 15288   0.996E-01    0.113E-01
DAV:   2    -0.448225336746E+02    0.26247E-04   -0.15432E-03 18976   0.258E-01    0.404E-02
DAV:   3    -0.448225118285E+02    0.21846E-04   -0.79968E-05 10144   0.525E-02
  18 F= -.44822512E+02 E0= -.44822034E+02  d E =-.691927E-03
 ZBRENT: can't locate minimum, use default step
 trial-energy change:   -0.000692  1 .order   -0.000740   -0.000752   -0.000728
 step:   0.2545(harm=  2.0333)  dis= 0.00884  next Energy=   -44.833832 (dE=-0.120E-01)
 bond charge predicted
       N       E                     dE             d eps       ncg     rms          rms(c)
DAV:   1    -0.448246877631E+02   -0.21541E-02   -0.20723E-01 15120   0.302E+00    0.342E-01
DAV:   2    -0.448245451877E+02    0.14258E-03   -0.14664E-02 19216   0.806E-01    0.121E-01
DAV:   3    -0.448243387809E+02    0.20641E-03   -0.88187E-04 22856   0.161E-01    0.851E-02
DAV:   4    -0.448242854486E+02    0.53332E-04   -0.14376E-04 10856   0.806E-02
  19 F= -.44824285E+02 E0= -.44823816E+02  d E =-.246555E-02
 curvature:  -2.35 expect dE=-0.308E-01 dE for cont linesearch -0.155E-02
 ZBRENT: increasing intervall
 opt :   0.6363  next Energy=   -44.827469 (dE=-0.565E-02)
 bond charge predicted
       N       E                     dE             d eps       ncg     rms          rms(c)
DAV:   1    -0.448284128362E+02   -0.40741E-02   -0.83346E-01 15120   0.607E+00    0.681E-01
DAV:   2    -0.448278105117E+02    0.60232E-03   -0.58598E-02 18948   0.161E+00    0.243E-01
DAV:   3    -0.448269330674E+02    0.87744E-03   -0.35267E-03 23012   0.323E-01    0.169E-01
DAV:   4    -0.448267543931E+02    0.17867E-03   -0.94762E-04 25344   0.165E-01    0.164E-01
DAV:   5    -0.448268099641E+02   -0.55571E-04   -0.82752E-05 11188   0.455E-02
  20 F= -.44826810E+02 E0= -.44826360E+02  d E =-.499006E-02
 curvature:  -4.81 expect dE=-0.658E-01 dE for cont linesearch -0.142E-02
 ZBRENT: increasing intervall
 opt :   1.3999  next Energy=   -44.829342 (dE=-0.752E-02)
 bond charge predicted
       N       E                     dE             d eps       ncg     rms          rms(c)
DAV:   1    -0.448333301640E+02   -0.65758E-02   -0.33313E+00 15120   0.121E+01    0.142E+00
DAV:   2    -0.448314600971E+02    0.18701E-02   -0.23680E-01 19044   0.326E+00    0.499E-01
DAV:   3    -0.448280366768E+02    0.34234E-02   -0.13667E-02 23020   0.642E-01    0.301E-01
DAV:   4    -0.448272476381E+02    0.78904E-03   -0.37005E-03 27272   0.329E-01    0.296E-01
DAV:   5    -0.448274217072E+02   -0.17407E-03   -0.35935E-04 16592   0.822E-02    0.140E-01
DAV:   6    -0.448274701546E+02   -0.48447E-04   -0.73536E-04 22528   0.139E-01
  21 F= -.44827470E+02 E0= -.44827071E+02  d E =-.565025E-02
 curvature:  -8.58 expect dE=-0.196E+00 dE for cont linesearch -0.483E-03
 trial: gam= 0.85882 g(F)=  0.147E-01 g(S)=  0.814E-02 ort =-0.289E-02 (trialstep = 0.331E+00)
 search vector abs. value=  0.127E+00
 bond charge predicted
       N       E                     dE             d eps       ncg     rms          rms(c)
DAV:   1    -0.448322517127E+02   -0.48300E-02   -0.44695E-01 15128   0.393E+00    0.262E-01
DAV:   2    -0.448332345007E+02   -0.98279E-03   -0.17269E-02 18952   0.898E-01    0.128E-01
DAV:   3    -0.448331841242E+02    0.50377E-04   -0.76116E-04 22760   0.131E-01
  22 F= -.44833184E+02 E0= -.44832793E+02  d E =-.571397E-02
 trial-energy change:   -0.005714  1 .order   -0.005798   -0.006748   -0.004847
 step:   1.1742(harm=  1.1742)  dis= 0.03791  next Energy=   -44.839444 (dE=-0.120E-01)
 bond charge predicted
       N       E                     dE             d eps       ncg     rms          rms(c)
DAV:   1    -0.448322908203E+02    0.94368E-03   -0.28878E+00 15120   0.999E+00    0.673E-01
DAV:   2    -0.448384881529E+02   -0.61973E-02   -0.11136E-01 19056   0.228E+00    0.331E-01
DAV:   3    -0.448381010744E+02    0.38708E-03   -0.49484E-03 23876   0.332E-01    0.189E-01
DAV:   4    -0.448379849367E+02    0.11614E-03   -0.79898E-04 19820   0.180E-01    0.809E-02
DAV:   5    -0.448380067487E+02   -0.21812E-04   -0.14042E-04 12880   0.711E-02
  23 F= -.44838007E+02 E0= -.44837641E+02  d E =-.105366E-01
 curvature:  -3.65 expect dE=-0.145E+00 dE for cont linesearch -0.198E-03
 trial: gam= 1.72491 g(F)=  0.309E-01 g(S)=  0.889E-02 ort =-0.262E-02 (trialstep = 0.155E+00)
 search vector abs. value=  0.408E+00
 bond charge predicted
       N       E                     dE             d eps       ncg     rms          rms(c)
DAV:   1    -0.448426032318E+02   -0.46183E-02   -0.30956E-01 15172   0.337E+00    0.264E-01
DAV:   2    -0.448432057418E+02   -0.60251E-03   -0.12734E-02 18848   0.770E-01    0.115E-01
DAV:   3    -0.448431254328E+02    0.80309E-04   -0.62150E-04 22352   0.129E-01
  24 F= -.44843125E+02 E0= -.44842776E+02  d E =-.511868E-02
 ZBRENT: can't locate minimum, use default step
 trial-energy change:   -0.005119  1 .order   -0.005193   -0.005478   -0.004908
 step:   0.6210(harm=  1.4929)  dis= 0.03465  next Energy=   -44.864346 (dE=-0.263E-01)
 bond charge predicted
       N       E                     dE             d eps       ncg     rms          rms(c)
DAV:   1    -0.448494763946E+02   -0.62707E-02   -0.27673E+00 15120   0.101E+01    0.775E-01
DAV:   2    -0.448545997587E+02   -0.51234E-02   -0.11191E-01 18824   0.230E+00    0.334E-01
DAV:   3    -0.448539159690E+02    0.68379E-03   -0.55400E-03 25000   0.378E-01    0.201E-01
DAV:   4    -0.448537231533E+02    0.19282E-03   -0.87700E-04 22368   0.181E-01    0.114E-01
DAV:   5    -0.448537353081E+02   -0.12155E-04   -0.10461E-04 10856   0.606E-02
  25 F= -.44853735E+02 E0= -.44853442E+02  d E =-.157286E-01
 curvature:  -4.97 expect dE=-0.810E-01 dE for cont linesearch -0.300E-02
 ZBRENT: increasing intervall
 opt :   1.5525  next Energy=   -44.853526 (dE=-0.155E-01)
 bond charge predicted
       N       E                     dE             d eps       ncg     rms          rms(c)
DAV:   1    -0.448346864660E+02    0.19037E-01   -0.11028E+01 15120   0.201E+01    0.150E+00
DAV:   2    -0.448561177607E+02   -0.21431E-01   -0.45101E-01 18920   0.461E+00    0.667E-01
DAV:   3    -0.448535052640E+02    0.26125E-02   -0.21680E-02 25444   0.758E-01    0.385E-01
DAV:   4    -0.448526397515E+02    0.86551E-03   -0.34302E-03 24232   0.354E-01    0.216E-01
DAV:   5    -0.448526955044E+02   -0.55753E-04   -0.56240E-04 20568   0.112E-01
  26 F= -.44852696E+02 E0= -.44852533E+02  d E =-.146888E-01
 curvature:   0.35 expect dE= 0.168E-01 dE for cont linesearch  0.260E-03
 trial: gam= 0.00000 g(F)=  0.452E-01 g(S)=  0.320E-02 ort =-0.175E-01 (trialstep = 0.435E+00)
 search vector abs. value=  0.484E-01
 bond charge predicted
       N       E                     dE             d eps       ncg     rms          rms(c)
DAV:   1    -0.448581787958E+02   -0.55390E-02   -0.80847E-01 17284   0.692E+00    0.438E-01
DAV:   2    -0.448672210318E+02   -0.90422E-02   -0.10673E-01 15812   0.163E+00    0.235E-01
DAV:   3    -0.448670173061E+02    0.20373E-03   -0.21309E-03 22660   0.252E-01    0.137E-01
DAV:   4    -0.448668914317E+02    0.12587E-03   -0.65114E-04 17952   0.156E-01    0.506E-02
DAV:   5    -0.448669005995E+02   -0.91678E-05   -0.96689E-05 10892   0.656E-02
  27 F= -.44866901E+02 E0= -.44866742E+02  d E =-.142051E-01
 trial-energy change:   -0.014205  1 .order   -0.014117   -0.021039   -0.007194
 step:   0.6606(harm=  0.6606)  dis= 0.01874  next Energy=   -44.868681 (dE=-0.160E-01)
 bond charge predicted
       N       E                     dE             d eps       ncg     rms          rms(c)
DAV:   1    -0.448662716481E+02    0.61978E-03   -0.21880E-01 17292   0.360E+00    0.227E-01
DAV:   2    -0.448687315982E+02   -0.24600E-02   -0.28918E-02 16028   0.847E-01    0.126E-01
DAV:   3    -0.448686749944E+02    0.56604E-04   -0.56588E-04 20252   0.130E-01
  28 F= -.44868675E+02 E0= -.44868516E+02  d E =-.159795E-01
 curvature:  -0.33 expect dE=-0.610E-02 dE for cont linesearch -0.340E-07
 trial: gam= 0.38301 g(F)=  0.166E-01 g(S)=  0.191E-02 ort =-0.705E-04 (trialstep = 0.480E+00)
 search vector abs. value=  0.255E-01
 bond charge predicted
       N       E                     dE             d eps       ncg     rms          rms(c)
DAV:   1    -0.448684088240E+02    0.32277E-03   -0.55386E-01 17184   0.577E+00    0.361E-01
DAV:   2    -0.448746222736E+02   -0.62134E-02   -0.73948E-02 16080   0.138E+00    0.200E-01
DAV:   3    -0.448745002507E+02    0.12202E-03   -0.14947E-03 23152   0.211E-01    0.119E-01
DAV:   4    -0.448744118848E+02    0.88366E-04   -0.52123E-04 16364   0.147E-01
  29 F= -.44874412E+02 E0= -.44874270E+02  d E =-.573689E-02
 trial-energy change:   -0.005737  1 .order   -0.005998   -0.008849   -0.003148
 step:   0.7449(harm=  0.7449)  dis= 0.01541  next Energy=   -44.875543 (dE=-0.687E-02)
 bond charge predicted
       N       E                     dE             d eps       ncg     rms          rms(c)
DAV:   1    -0.448732917340E+02    0.12085E-02   -0.17106E-01 17188   0.323E+00    0.202E-01
DAV:   2    -0.448752305552E+02   -0.19388E-02   -0.23117E-02 16384   0.771E-01    0.113E-01
DAV:   3    -0.448751943894E+02    0.36166E-04   -0.45533E-04 19884   0.118E-01
  30 F= -.44875194E+02 E0= -.44875059E+02  d E =-.651940E-02
 curvature:  -0.52 expect dE=-0.169E-02 dE for cont linesearch -0.119E-05
 trial: gam= 0.15373 g(F)=  0.249E-02 g(S)=  0.789E-03 ort = 0.243E-03 (trialstep = 0.533E+00)
 search vector abs. value=  0.396E-02
 bond charge predicted
       N       E                     dE             d eps       ncg     rms          rms(c)
DAV:   1    -0.448767098384E+02   -0.14793E-02   -0.45277E-02 15220   0.139E+00    0.132E-01
DAV:   2    -0.448767163534E+02   -0.65149E-05   -0.25571E-03 19288   0.313E-01    0.657E-02
DAV:   3    -0.448766580848E+02    0.58269E-04   -0.14178E-04 12380   0.712E-02
  31 F= -.44876658E+02 E0= -.44876526E+02  d E =-.146370E-02
 ZBRENT: can't locate minimum, use default step
 trial-energy change:   -0.001464  1 .order   -0.001600   -0.001768   -0.001432
 step:   2.1315(harm=  2.7997)  dis= 0.01004  next Energy=   -44.879839 (dE=-0.464E-02)
 bond charge predicted
       N       E                     dE             d eps       ncg     rms          rms(c)
DAV:   1    -0.448797358383E+02   -0.30195E-02   -0.41103E-01 15136   0.413E+00    0.385E-01
DAV:   2    -0.448796404571E+02    0.95381E-04   -0.21703E-02 19720   0.905E-01    0.195E-01
DAV:   3    -0.448791692055E+02    0.47125E-03   -0.15096E-03 24500   0.206E-01    0.755E-02
DAV:   4    -0.448791172822E+02    0.51923E-04   -0.16199E-04 11152   0.804E-02
  32 F= -.44879117E+02 E0= -.44878994E+02  d E =-.392289E-02
 curvature:  -1.52 expect dE=-0.506E-02 dE for cont linesearch -0.185E-03
 trial: gam= 0.78035 g(F)=  0.314E-02 g(S)=  0.176E-03 ort = 0.693E-03 (trialstep = 0.496E+00)
 search vector abs. value=  0.681E-02
 bond charge predicted
       N       E                     dE             d eps       ncg     rms          rms(c)
DAV:   1    -0.448803774321E+02   -0.12082E-02   -0.48879E-02 16076   0.144E+00    0.104E-01
DAV:   2    -0.448805104391E+02   -0.13301E-03   -0.27993E-03 18776   0.331E-01    0.578E-02
DAV:   3    -0.448804760344E+02    0.34405E-04   -0.91707E-05 12760   0.638E-02
  33 F= -.44880476E+02 E0= -.44880355E+02  d E =-.135875E-02
 trial-energy change:   -0.001359  1 .order   -0.001421   -0.001912   -0.000930
 step:   0.9647(harm=  0.9647)  dis= 0.00581  next Energy=   -44.880978 (dE=-0.186E-02)
 bond charge predicted
       N       E                     dE             d eps       ncg     rms          rms(c)
DAV:   1    -0.448806894846E+02   -0.17905E-03   -0.42744E-02 16048   0.134E+00    0.993E-02
DAV:   2    -0.448807919633E+02   -0.10248E-03   -0.23700E-03 19512   0.302E-01    0.570E-02
DAV:   3    -0.448807605697E+02    0.31394E-04   -0.83805E-05 12084   0.602E-02
  34 F= -.44880761E+02 E0= -.44880643E+02  d E =-.164329E-02
 curvature:  -0.85 expect dE=-0.312E-02 dE for cont linesearch -0.677E-05
 trial: gam= 1.41991 g(F)=  0.333E-02 g(S)=  0.341E-03 ort =-0.233E-03 (trialstep = 0.240E+00)
 search vector abs. value=  0.167E-01
 bond charge predicted
       N       E                     dE             d eps       ncg     rms          rms(c)
DAV:   1    -0.448815031727E+02   -0.71121E-03   -0.23012E-02 15200   0.947E-01    0.815E-02
DAV:   2    -0.448814897116E+02    0.13461E-04   -0.92159E-04 20560   0.196E-01
  35 F= -.44881490E+02 E0= -.44881373E+02  d E =-.729142E-03
 ZBRENT: can't locate minimum, use default step
 trial-energy change:   -0.000729  1 .order   -0.000780   -0.000801   -0.000760
 step:   0.9592(harm=  4.7084)  dis= 0.00931  next Energy=   -44.888623 (dE=-0.786E-02)
 bond charge predicted
       N       E                     dE             d eps       ncg     rms          rms(c)
DAV:   1    -0.448835772903E+02   -0.20741E-02   -0.21022E-01 15120   0.287E+00    0.260E-01
DAV:   2    -0.448833823423E+02    0.19495E-03   -0.84576E-03 20024   0.608E-01    0.122E-01
DAV:   3    -0.448831846840E+02    0.19766E-03   -0.63433E-04 22068   0.136E-01    0.649E-02
DAV:   4    -0.448831529011E+02    0.31783E-04   -0.87466E-05 10656   0.657E-02
  36 F= -.44883153E+02 E0= -.44883044E+02  d E =-.239233E-02
 curvature:  -3.49 expect dE=-0.184E-01 dE for cont linesearch -0.862E-03
 trial: gam= 0.30588 g(F)=  0.514E-02 g(S)=  0.121E-03 ort = 0.203E-02 (trialstep = 0.384E+00)
 search vector abs. value=  0.808E-02
 bond charge predicted
       N       E                     dE             d eps       ncg     rms          rms(c)
DAV:   1    -0.448844661114E+02   -0.12814E-02   -0.34889E-02 17360   0.128E+00    0.833E-02
DAV:   2    -0.448846692096E+02   -0.20310E-03   -0.29894E-03 17768   0.297E-01    0.532E-02
DAV:   3    -0.448846420459E+02    0.27164E-04   -0.64703E-05 14168   0.535E-02
  37 F= -.44884642E+02 E0= -.44884532E+02  d E =-.148914E-02
 trial-energy change:   -0.001489  1 .order   -0.001539   -0.002259   -0.000820
 step:   0.6023(harm=  0.6023)  dis= 0.00372  next Energy=   -44.884926 (dE=-0.177E-02)
 bond charge predicted
       N       E                     dE             d eps       ncg     rms          rms(c)
DAV:   1    -0.448847566513E+02   -0.87442E-04   -0.10675E-02 17308   0.710E-01    0.469E-02
DAV:   2    -0.448848134425E+02   -0.56791E-04   -0.87481E-04 18160   0.159E-01
  38 F= -.44884813E+02 E0= -.44884704E+02  d E =-.166054E-02
 curvature:  -0.41 expect dE=-0.951E-03 dE for cont linesearch -0.215E-05
 trial: gam= 0.61162 g(F)=  0.204E-02 g(S)=  0.262E-03 ort =-0.205E-03 (trialstep = 0.427E+00)
 search vector abs. value=  0.507E-02
 bond charge predicted
       N       E                     dE             d eps       ncg     rms          rms(c)
DAV:   1    -0.448854543478E+02   -0.69770E-03   -0.33655E-02 17312   0.140E+00    0.955E-02
DAV:   2    -0.448856848946E+02   -0.23055E-03   -0.35026E-03 16972   0.318E-01    0.483E-02
DAV:   3    -0.448856682455E+02    0.16649E-04   -0.78398E-05 12956   0.554E-02
  39 F= -.44885668E+02 E0= -.44885561E+02  d E =-.854803E-03
 ZBRENT: can't locate minimum, use default step
 trial-energy change:   -0.000855  1 .order   -0.000886   -0.000931   -0.000840
 step:   1.7095(harm=  4.3848)  dis= 0.00719  next Energy=   -44.889589 (dE=-0.478E-02)
 bond charge predicted
       N       E                     dE             d eps       ncg     rms          rms(c)
DAV:   1    -0.448854706590E+02    0.21424E-03   -0.30142E-01 17284   0.417E+00    0.286E-01
DAV:   2    -0.448876052033E+02   -0.21345E-02   -0.31581E-02 16772   0.947E-01    0.132E-01
DAV:   3    -0.448874965668E+02    0.10864E-03   -0.83437E-04 23212   0.159E-01    0.751E-02
DAV:   4    -0.448874497786E+02    0.46788E-04   -0.14263E-04 10924   0.865E-02
  40 F= -.44887450E+02 E0= -.44887350E+02  d E =-.263634E-02
 curvature:  -2.77 expect dE=-0.100E-01 dE for cont linesearch -0.607E-03
 trial: gam= 0.62120 g(F)=  0.331E-02 g(S)=  0.297E-03 ort = 0.105E-02 (trialstep = 0.505E+00)
 search vector abs. value=  0.688E-02
 bond charge predicted
       N       E                     dE             d eps       ncg     rms          rms(c)
DAV:   1    -0.448889041051E+02   -0.14075E-02   -0.41708E-02 15160   0.120E+00    0.121E-01
DAV:   2    -0.448889135461E+02   -0.94410E-05   -0.20479E-03 20248   0.298E-01    0.616E-02
DAV:   3    -0.448888650924E+02    0.48454E-04   -0.90581E-05 10764   0.615E-02
  41 F= -.44888865E+02 E0= -.44888770E+02  d E =-.141531E-02
 trial-energy change:   -0.001415  1 .order   -0.001496   -0.002151   -0.000840
 step:   0.8280(harm=  0.8280)  dis= 0.00547  next Energy=   -44.889215 (dE=-0.177E-02)
 bond charge predicted
       N       E                     dE             d eps       ncg     rms          rms(c)
DAV:   1    -0.448890257231E+02   -0.11218E-03   -0.16217E-02 15176   0.751E-01    0.760E-02
DAV:   2    -0.448890197062E+02    0.60169E-05   -0.73872E-04 20968   0.182E-01
  42 F= -.44889020E+02 E0= -.44888927E+02  d E =-.156993E-02
 curvature:  -0.67 expect dE=-0.259E-02 dE for cont linesearch -0.598E-05
 trial: gam= 1.38232 g(F)=  0.362E-02 g(S)=  0.263E-03 ort =-0.248E-03 (trialstep = 0.240E+00)
 search vector abs. value=  0.163E-01
 bond charge predicted
       N       E                     dE             d eps       ncg     rms          rms(c)
DAV:   1    -0.448897953469E+02   -0.76962E-03   -0.21387E-02 15156   0.946E-01    0.896E-02
DAV:   2    -0.448897725738E+02    0.22773E-04   -0.10578E-03 20056   0.229E-01    0.444E-02
DAV:   3    -0.448897495451E+02    0.23029E-04   -0.62807E-05 10152   0.473E-02
  43 F= -.44889750E+02 E0= -.44889659E+02  d E =-.729839E-03
 ZBRENT: can't locate minimum, use default step
 trial-energy change:   -0.000730  1 .order   -0.000807   -0.000848   -0.000766
 step:   0.9586(harm=  2.4988)  dis= 0.00915  next Energy=   -44.893439 (dE=-0.442E-02)
 bond charge predicted
       N       E                     dE             d eps       ncg     rms          rms(c)
DAV:   1    -0.448916969353E+02   -0.19244E-02   -0.19389E-01 15128   0.284E+00    0.246E-01
DAV:   2    -0.448917219639E+02   -0.25029E-04   -0.93065E-03 20184   0.669E-01    0.111E-01
DAV:   3    -0.448915646127E+02    0.15735E-03   -0.51391E-04 19892   0.125E-01    0.680E-02
DAV:   4    -0.448915271097E+02    0.37503E-04   -0.11503E-04 10672   0.769E-02
  44 F= -.44891527E+02 E0= -.44891443E+02  d E =-.250740E-02
 curvature:  -3.09 expect dE=-0.228E-01 dE for cont linesearch -0.986E-03
 trial: gam= 0.00000 g(F)=  0.694E-02 g(S)=  0.444E-03 ort = 0.228E-02 (trialstep = 0.383E+00)
 search vector abs. value=  0.739E-02
 bond charge predicted
       N       E                     dE             d eps       ncg     rms          rms(c)
DAV:   1    -0.448930239553E+02   -0.14593E-02   -0.33050E-02 17792   0.110E+00    0.104E-01
DAV:   2    -0.448931638462E+02   -0.13989E-03   -0.25812E-03 19648   0.280E-01    0.676E-02
DAV:   3    -0.448931194554E+02    0.44391E-04   -0.69463E-05 11256   0.558E-02
  45 F= -.44893119E+02 E0= -.44893033E+02  d E =-.159235E-02
 trial-energy change:   -0.001592  1 .order   -0.001637   -0.002833   -0.000441
 step:   0.4541(harm=  0.4541)  dis= 0.00334  next Energy=   -44.893204 (dE=-0.168E-02)
 bond charge predicted
       N       E                     dE             d eps       ncg     rms          rms(c)
DAV:   1    -0.448931210327E+02    0.42814E-04   -0.85361E-04 18968   0.181E-01    0.198E-02
DAV:   2    -0.448931220476E+02   -0.10149E-05   -0.44448E-05  8536   0.402E-02
  46 F= -.44893122E+02 E0= -.44893035E+02  d E =-.159494E-02
 curvature:  -0.23 expect dE=-0.309E-03 dE for cont linesearch -0.603E-05
 trial: gam= 0.24439 g(F)=  0.122E-02 g(S)=  0.143E-03 ort =-0.443E-03 (trialstep = 0.398E+00)
 search vector abs. value=  0.159E-02
 reached required accuracy - stopping structural energy minimisation
