 running on   32 total cores
 distrk:  each k-point on   32 cores,    1 groups
 distr:  one band on    8 cores,    4 groups
 using from now: INCAR     
 vasp.5.4.4.18Apr17-6-g9f103f2a35 (build Nov 01 2019 12:17:22) complex          
  
 POSCAR found type information on POSCAR  Sr H  Nb H  Sr
 POSCAR found :  5 types and      16 ions
 LDA part: xc-table for Pade appr. of Perdew
 generate k-points for:    7    8    7
 POSCAR, INCAR and KPOINTS ok, starting setup
 FFT: planning ...
 WAVECAR not read
 entering main loop
       N       E                     dE             d eps       ncg     rms          rms(c)
DAV:   1     0.233393971817E+03    0.23339E+03   -0.17369E+04 15008   0.774E+02
DAV:   2    -0.413509666279E+02   -0.27474E+03   -0.26811E+03 18464   0.298E+02
DAV:   3    -0.618351833604E+02   -0.20484E+02   -0.20394E+02 21624   0.624E+01
DAV:   4    -0.631290563080E+02   -0.12939E+01   -0.12916E+01 24168   0.144E+01
DAV:   5    -0.631597536790E+02   -0.30697E-01   -0.30695E-01 21336   0.186E+00    0.448E+01
DAV:   6    -0.598465522170E+02    0.33132E+01   -0.64357E+00 20472   0.139E+01    0.217E+01
DAV:   7    -0.589632377029E+02    0.88331E+00   -0.26808E+00 18928   0.635E+00    0.928E+00
DAV:   8    -0.589735008217E+02   -0.10263E-01   -0.67103E-01 21848   0.363E+00    0.328E+00
DAV:   9    -0.589742305179E+02   -0.72970E-03   -0.72020E-02 19528   0.103E+00    0.735E-01
DAV:  10    -0.589743222785E+02   -0.91761E-04   -0.14652E-02 19112   0.590E-01    0.257E-01
DAV:  11    -0.589753458473E+02   -0.10236E-02   -0.15641E-03 18932   0.193E-01    0.776E-02
DAV:  12    -0.589757206914E+02   -0.37484E-03   -0.45183E-04 14968   0.900E-02    0.457E-02
DAV:  13    -0.589758054400E+02   -0.84749E-04   -0.12432E-04 13656   0.510E-02
   1 F= -.58975805E+02 E0= -.58975675E+02  d E =-.589758E+02
 curvature:   0.00 expect dE= 0.000E+00 dE for cont linesearch  0.000E+00
 trial: gam= 0.00000 g(F)=  0.279E-01 g(S)=  0.173E-02 ort = 0.000E+00 (trialstep = 0.100E+01)
 search vector abs. value=  0.297E-01
 bond charge predicted
       N       E                     dE             d eps       ncg     rms          rms(c)
DAV:   1    -0.589369576443E+02    0.38763E-01   -0.35590E+00 15116   0.122E+01    0.891E-01
DAV:   2    -0.589848743841E+02   -0.47917E-01   -0.55662E-01 14680   0.301E+00    0.403E-01
DAV:   3    -0.589848838671E+02   -0.94830E-05   -0.96679E-03 20648   0.442E-01    0.234E-01
DAV:   4    -0.589845987327E+02    0.28513E-03   -0.16608E-03 18696   0.254E-01    0.100E-01
DAV:   5    -0.589846320081E+02   -0.33275E-04   -0.32077E-04 16472   0.855E-02
   2 F= -.58984632E+02 E0= -.58984473E+02  d E =-.882657E-02
 trial-energy change:   -0.008827  1 .order   -0.008922   -0.029656    0.011812
 step:   0.7152(harm=  0.7152)  dis= 0.02007  next Energy=   -58.986410 (dE=-0.106E-01)
 bond charge predicted
       N       E                     dE             d eps       ncg     rms          rms(c)
DAV:   1    -0.589827543005E+02    0.18444E-02   -0.28928E-01 15796   0.346E+00    0.245E-01
DAV:   2    -0.589863571001E+02   -0.36028E-02   -0.42070E-02 14764   0.839E-01    0.108E-01
DAV:   3    -0.589863653279E+02   -0.82278E-05   -0.74946E-04 17452   0.120E-01
   3 F= -.58986365E+02 E0= -.58986215E+02  d E =-.105599E-01
 curvature:  -0.36 expect dE=-0.188E-02 dE for cont linesearch -0.272E-05
 trial: gam= 0.19353 g(F)=  0.412E-02 g(S)=  0.114E-02 ort =-0.475E-03 (trialstep = 0.943E+00)
 search vector abs. value=  0.619E-02
 bond charge predicted
       N       E                     dE             d eps       ncg     rms          rms(c)
DAV:   1    -0.589909913659E+02   -0.46343E-02   -0.22165E-01 14216   0.245E+00    0.278E-01
DAV:   2    -0.589910482566E+02   -0.56891E-04   -0.86999E-03 18376   0.599E-01    0.153E-01
DAV:   3    -0.589908678586E+02    0.18040E-03   -0.53423E-04 18404   0.121E-01    0.631E-02
DAV:   4    -0.589908373060E+02    0.30553E-04   -0.82306E-05  9440   0.648E-02
   4 F= -.58990837E+02 E0= -.58990689E+02  d E =-.447198E-02
 ZBRENT: can't locate minimum, use default step
 trial-energy change:   -0.004472  1 .order   -0.004462   -0.004878   -0.004045
 step:   3.7721(harm=  5.5204)  dis= 0.01810  next Energy=   -59.000643 (dE=-0.143E-01)
 bond charge predicted
       N       E                     dE             d eps       ncg     rms          rms(c)
DAV:   1    -0.589992692071E+02   -0.84013E-02   -0.19770E+00 14184   0.734E+00    0.851E-01
DAV:   2    -0.589994943362E+02   -0.22513E-03   -0.78173E-02 18392   0.178E+00    0.474E-01
DAV:   3    -0.589978267841E+02    0.16676E-02   -0.54236E-03 22476   0.365E-01    0.201E-01
DAV:   4    -0.589975644407E+02    0.26234E-03   -0.86435E-04 19416   0.179E-01    0.682E-02
DAV:   5    -0.589975769441E+02   -0.12503E-04   -0.74733E-05  9456   0.580E-02
   5 F= -.58997577E+02 E0= -.58997442E+02  d E =-.112116E-01
 curvature:  -2.82 expect dE=-0.198E-01 dE for cont linesearch -0.136E-03
 trial: gam= 1.24297 g(F)=  0.524E-02 g(S)=  0.179E-02 ort = 0.546E-03 (trialstep = 0.520E+00)
 search vector abs. value=  0.180E-01
 bond charge predicted
       N       E                     dE             d eps       ncg     rms          rms(c)
DAV:   1    -0.590010608895E+02   -0.34964E-02   -0.23885E-01 15776   0.299E+00    0.298E-01
DAV:   2    -0.590015055790E+02   -0.44469E-03   -0.16465E-02 16644   0.767E-01    0.117E-01
DAV:   3    -0.590013416834E+02    0.16390E-03   -0.74567E-04 20052   0.139E-01    0.667E-02
DAV:   4    -0.590012783910E+02    0.63292E-04   -0.13447E-04  9552   0.785E-02
   6 F= -.59001278E+02 E0= -.59001148E+02  d E =-.370145E-02
 ZBRENT: can't locate minimum, use default step
 trial-energy change:   -0.003701  1 .order   -0.003763   -0.004012   -0.003513
 step:   2.0812(harm=  4.1811)  dis= 0.01614  next Energy=   -59.013697 (dE=-0.161E-01)
 bond charge predicted
       N       E                     dE             d eps       ncg     rms          rms(c)
DAV:   1    -0.590060270416E+02   -0.46854E-02   -0.21410E+00 15000   0.897E+00    0.859E-01
DAV:   2    -0.590103320347E+02   -0.43050E-02   -0.15208E-01 16668   0.232E+00    0.354E-01
DAV:   3    -0.590088821474E+02    0.14499E-02   -0.67686E-03 20580   0.420E-01    0.205E-01
DAV:   4    -0.590083275083E+02    0.55464E-03   -0.16970E-03 21560   0.242E-01    0.132E-01
DAV:   5    -0.590083375088E+02   -0.10000E-04   -0.17023E-04 11916   0.712E-02
   7 F= -.59008338E+02 E0= -.59008226E+02  d E =-.107606E-01
 curvature:  -3.27 expect dE=-0.391E-01 dE for cont linesearch -0.145E-02
 ZBRENT: increasing intervall
 opt :   5.2030  next Energy=   -59.004867 (dE=-0.729E-02)
 bond charge predicted
       N       E                     dE             d eps       ncg     rms          rms(c)
DAV:   1    -0.589928385439E+02    0.15489E-01   -0.85621E+00 14184   0.179E+01    0.169E+00
DAV:   2    -0.590124244271E+02   -0.19586E-01   -0.62855E-01 16624   0.470E+00    0.704E-01
DAV:   3    -0.590067833986E+02    0.56410E-02   -0.27896E-02 20724   0.864E-01    0.407E-01
DAV:   4    -0.590043539367E+02    0.24295E-02   -0.62263E-03 20440   0.473E-01    0.254E-01
DAV:   5    -0.590044063019E+02   -0.52365E-04   -0.10084E-03 23640   0.149E-01    0.158E-01
DAV:   6    -0.590044268372E+02   -0.20535E-04   -0.10036E-04  9936   0.588E-02
   8 F= -.59004427E+02 E0= -.59004379E+02  d E =-.684989E-02
 curvature:   7.83 expect dE= 0.615E+00 dE for cont linesearch  0.108E-01
 ZBRENT: bracketing found
 ZBRENT: interpolating
 opt :   3.2096  next Energy=   -59.009929 (dE=-0.124E-01)
 bond charge predicted
       N       E                     dE             d eps       ncg     rms          rms(c)
DAV:   1    -0.590061125912E+02   -0.17063E-02   -0.34995E+00 15392   0.114E+01    0.113E+00
DAV:   2    -0.590128731882E+02   -0.67606E-02   -0.24182E-01 16456   0.290E+00    0.448E-01
DAV:   3    -0.590104734698E+02    0.23997E-02   -0.10800E-02 20632   0.519E-01    0.251E-01
DAV:   4    -0.590096318830E+02    0.84159E-03   -0.28160E-03 22712   0.295E-01    0.162E-01
DAV:   5    -0.590096622576E+02   -0.30375E-04   -0.24065E-04 14520   0.831E-02
   9 F= -.59009662E+02 E0= -.59009571E+02  d E =-.120853E-01
 curvature:  -1.15 expect dE=-0.320E-01 dE for cont linesearch -0.152E-04
 trial: gam= 4.21522 g(F)=  0.276E-01 g(S)=  0.202E-03 ort =-0.487E-03 (trialstep = 0.554E-01)
 search vector abs. value=  0.343E+00
 bond charge predicted
       N       E                     dE             d eps       ncg     rms          rms(c)
DAV:   1    -0.590112301668E+02   -0.15983E-02   -0.45245E-02 14204   0.109E+00    0.124E-01
DAV:   2    -0.590112147518E+02    0.15415E-04   -0.18539E-03 18144   0.282E-01    0.499E-02
DAV:   3    -0.590111726727E+02    0.42079E-04   -0.97313E-05  8728   0.562E-02
  10 F= -.59011173E+02 E0= -.59011086E+02  d E =-.151042E-02
 ZBRENT: can't locate minimum, use default step
 trial-energy change:   -0.001510  1 .order   -0.001489   -0.001428   -0.001551
 step:   0.2217(harm=  0.2217)  dis= 0.00778  next Energy=   -59.016359 (dE=-0.670E-02)
 bond charge predicted
       N       E                     dE             d eps       ncg     rms          rms(c)
DAV:   1    -0.590159852110E+02   -0.47705E-02   -0.40011E-01 14184   0.325E+00    0.376E-01
DAV:   2    -0.590157359339E+02    0.24928E-03   -0.16241E-02 19088   0.831E-01    0.152E-01
DAV:   3    -0.590154083809E+02    0.32755E-03   -0.11553E-03 21504   0.162E-01    0.862E-02
DAV:   4    -0.590153029977E+02    0.10538E-03   -0.20483E-04 10440   0.897E-02    0.486E-02
DAV:   5    -0.590153049511E+02   -0.19533E-05   -0.59080E-05  9232   0.546E-02
  11 F= -.59015305E+02 E0= -.59015236E+02  d E =-.564269E-02
 curvature:  -2.28 expect dE=-0.553E-01 dE for cont linesearch -0.395E-02
 ZBRENT: increasing intervall
 opt :   0.5544  next Energy=   -59.022207 (dE=-0.125E-01)
 bond charge predicted
       N       E                     dE             d eps       ncg     rms          rms(c)
DAV:   1    -0.590248799541E+02   -0.95770E-02   -0.16100E+00 14184   0.651E+00    0.753E-01
DAV:   2    -0.590240554707E+02    0.82448E-03   -0.65162E-02 18848   0.168E+00    0.303E-01
DAV:   3    -0.590227844851E+02    0.12710E-02   -0.44889E-03 21680   0.318E-01    0.167E-01
DAV:   4    -0.590223908608E+02    0.39362E-03   -0.98421E-04 20304   0.179E-01    0.105E-01
DAV:   5    -0.590223931588E+02   -0.22981E-05   -0.95395E-05  9456   0.583E-02
  12 F= -.59022393E+02 E0= -.59022363E+02  d E =-.127309E-01
 curvature:  -3.99 expect dE=-0.812E-01 dE for cont linesearch -0.447E-02
 ZBRENT: increasing intervall
 opt :   1.2196  next Energy=   -59.032263 (dE=-0.226E-01)
 bond charge predicted
       N       E                     dE             d eps       ncg     rms          rms(c)
DAV:   1    -0.590414482213E+02   -0.19057E-01   -0.64437E+00 14184   0.130E+01    0.151E+00
DAV:   2    -0.590384239209E+02    0.30243E-02   -0.26186E-01 18880   0.335E+00    0.612E-01
DAV:   3    -0.590333368702E+02    0.50871E-02   -0.18180E-02 21712   0.628E-01    0.334E-01
DAV:   4    -0.590316905661E+02    0.16463E-02   -0.39265E-03 20344   0.361E-01    0.210E-01
DAV:   5    -0.590317242786E+02   -0.33712E-04   -0.60888E-04 21060   0.116E-01
  13 F= -.59031724E+02 E0= -.59031778E+02  d E =-.220620E-01
 curvature:  -8.81 expect dE=-0.172E+00 dE for cont linesearch -0.261E-02
 ZBRENT: increasing intervall
 opt :   2.5500  next Energy=   -59.032484 (dE=-0.228E-01)
 bond charge predicted
       N       E                     dE             d eps       ncg     rms          rms(c)
DAV:   1    -0.590654171867E+02   -0.33727E-01   -0.25787E+01 14184   0.260E+01    0.294E+00
DAV:   2    -0.590571097363E+02    0.83075E-02   -0.10616E+00 18912   0.665E+00    0.125E+00
DAV:   3    -0.590374899013E+02    0.19620E-01   -0.77939E-02 21864   0.128E+00    0.681E-01
DAV:   4    -0.590304548634E+02    0.70350E-02   -0.15944E-02 19904   0.698E-01    0.416E-01
DAV:   5    -0.590305721454E+02   -0.11728E-03   -0.25349E-03 24956   0.226E-01    0.232E-01
DAV:   6    -0.590306384457E+02   -0.66300E-04   -0.23562E-04 13944   0.781E-02
  14 F= -.59030638E+02 E0= -.59030775E+02  d E =-.209762E-01
 curvature:  -2.56 expect dE=-0.106E+00 dE for cont linesearch -0.962E-03
 trial: gam= 0.00000 g(F)=  0.159E-01 g(S)=  0.255E-01 ort =-0.113E-01 (trialstep = 0.554E+00)
 search vector abs. value=  0.414E-01
 bond charge predicted
       N       E                     dE             d eps       ncg     rms          rms(c)
DAV:   1    -0.590615367398E+02   -0.30965E-01   -0.62701E-01 14316   0.491E+00    0.123E+00
DAV:   2    -0.590535388562E+02    0.79979E-02   -0.63585E-02 19444   0.168E+00    0.401E-01
DAV:   3    -0.590507264024E+02    0.28125E-02   -0.56954E-03 18860   0.434E-01    0.240E-01
DAV:   4    -0.590501161456E+02    0.61026E-03   -0.30917E-03 23808   0.218E-01    0.289E-01
DAV:   5    -0.590502977014E+02   -0.18156E-03   -0.27416E-04 16256   0.718E-02    0.132E-01
DAV:   6    -0.590502745378E+02    0.23164E-04   -0.51611E-04 17524   0.101E-01
  15 F= -.59050275E+02 E0= -.59050414E+02  d E =-.196361E-01
 trial-energy change:   -0.019636  1 .order   -0.019689   -0.022971   -0.016407
 step:   1.9401(harm=  1.9401)  dis= 0.02065  next Energy=   -59.070834 (dE=-0.402E-01)
 bond charge predicted
       N       E                     dE             d eps       ncg     rms          rms(c)
DAV:   1    -0.591369696698E+02   -0.86672E-01   -0.39214E+00 14184   0.123E+01    0.316E+00
DAV:   2    -0.590869141035E+02    0.50056E-01   -0.39031E-01 19380   0.419E+00    0.100E+00
DAV:   3    -0.590696657482E+02    0.17248E-01   -0.34701E-02 18832   0.106E+00    0.569E-01
DAV:   4    -0.590662481516E+02    0.34176E-02   -0.20361E-02 24616   0.556E-01    0.689E-01
DAV:   5    -0.590673154289E+02   -0.10673E-02   -0.16874E-03 20448   0.179E-01    0.323E-01
DAV:   6    -0.590672970960E+02    0.18333E-04   -0.34111E-03 24288   0.240E-01    0.187E-01
DAV:   7    -0.590672915382E+02    0.55578E-05   -0.24532E-04 15720   0.652E-02
  16 F= -.59067292E+02 E0= -.59067436E+02  d E =-.366531E-01
 curvature:  -0.97 expect dE=-0.267E-01 dE for cont linesearch -0.418E-03
 trial: gam= 0.76638 g(F)=  0.245E-01 g(S)=  0.308E-02 ort =-0.422E-02 (trialstep = 0.759E+00)
 search vector abs. value=  0.454E-01
 bond charge predicted
       N       E                     dE             d eps       ncg     rms          rms(c)
DAV:   1    -0.590780235941E+02   -0.10726E-01   -0.13896E+00 15760   0.763E+00    0.827E-01
DAV:   2    -0.590807976180E+02   -0.27740E-02   -0.12595E-01 17464   0.206E+00    0.374E-01
DAV:   3    -0.590796549757E+02    0.11426E-02   -0.54077E-03 21096   0.376E-01    0.195E-01
DAV:   4    -0.590792793554E+02    0.37562E-03   -0.15477E-03 23656   0.214E-01    0.166E-01
DAV:   5    -0.590793037939E+02   -0.24439E-04   -0.16591E-04 13312   0.635E-02
  17 F= -.59079304E+02 E0= -.59079452E+02  d E =-.120123E-01
 trial-energy change:   -0.012012  1 .order   -0.012447   -0.018440   -0.006454
 step:   1.4637(harm=  1.1677)  dis= 0.01824  next Energy=   -59.081952 (dE=-0.147E-01)
 bond charge predicted
       N       E                     dE             d eps       ncg     rms          rms(c)
DAV:   1    -0.590782442641E+02    0.10351E-02   -0.11951E+00 15768   0.710E+00    0.774E-01
DAV:   2    -0.590805820922E+02   -0.23378E-02   -0.10902E-01 17496   0.192E+00    0.346E-01
DAV:   3    -0.590796085510E+02    0.97354E-03   -0.47086E-03 21144   0.352E-01    0.180E-01
DAV:   4    -0.590792949549E+02    0.31360E-03   -0.13738E-03 23752   0.201E-01    0.151E-01
DAV:   5    -0.590793173651E+02   -0.22410E-04   -0.13773E-04 12348   0.603E-02
  18 F= -.59079317E+02 E0= -.59079467E+02  d E =-.120258E-01
 curvature:  -0.52 expect dE=-0.200E-01 dE for cont linesearch -0.540E-03
 trial: gam= 0.00000 g(F)=  0.326E-01 g(S)=  0.599E-02 ort =-0.688E-02 (trialstep = 0.900E+00)
 search vector abs. value=  0.386E-01
 bond charge predicted
       N       E                     dE             d eps       ncg     rms          rms(c)
DAV:   1    -0.590651292074E+02    0.14166E-01   -0.28669E+00 14184   0.115E+01    0.125E+00
DAV:   2    -0.590949724406E+02   -0.29843E-01   -0.45192E-01 15348   0.306E+00    0.608E-01
DAV:   3    -0.590932920665E+02    0.16804E-02   -0.11860E-02 18912   0.599E-01    0.363E-01
DAV:   4    -0.590925758675E+02    0.71620E-03   -0.34092E-03 22224   0.310E-01    0.266E-01
DAV:   5    -0.590926932960E+02   -0.11743E-03   -0.48330E-04 18768   0.104E-01    0.133E-01
DAV:   6    -0.590926719167E+02    0.21379E-04   -0.34219E-04 14904   0.955E-02
  19 F= -.59092672E+02 E0= -.59092822E+02  d E =-.133546E-01
 trial-energy change:   -0.013355  1 .order   -0.013722   -0.034748    0.007305
 step:   0.7436(harm=  0.7436)  dis= 0.01123  next Energy=   -59.093673 (dE=-0.144E-01)
 bond charge predicted
       N       E                     dE             d eps       ncg     rms          rms(c)
DAV:   1    -0.590926648451E+02    0.28451E-04   -0.87712E-02 15388   0.199E+00    0.239E-01
DAV:   2    -0.590934972983E+02   -0.83245E-03   -0.12868E-02 15412   0.520E-01    0.101E-01
DAV:   3    -0.590934325033E+02    0.64795E-04   -0.38750E-04 17060   0.104E-01
  20 F= -.59093433E+02 E0= -.59093582E+02  d E =-.141151E-01
 curvature:  -0.37 expect dE=-0.459E-02 dE for cont linesearch -0.237E-04
 trial: gam= 0.36033 g(F)=  0.119E-01 g(S)=  0.486E-03 ort =-0.157E-02 (trialstep = 0.869E+00)
 search vector abs. value=  0.162E-01
 bond charge predicted
       N       E                     dE             d eps       ncg     rms          rms(c)
DAV:   1    -0.591005813386E+02   -0.70840E-02   -0.64912E-01 14192   0.474E+00    0.684E-01
DAV:   2    -0.591020151376E+02   -0.14338E-02   -0.43389E-02 17808   0.127E+00    0.379E-01
DAV:   3    -0.591013435260E+02    0.67161E-03   -0.25555E-03 20056   0.276E-01    0.190E-01
DAV:   4    -0.591012560993E+02    0.87427E-04   -0.60493E-04 19472   0.132E-01
  21 F= -.59101256E+02 E0= -.59101408E+02  d E =-.782360E-02
 trial-energy change:   -0.007824  1 .order   -0.007732   -0.010233   -0.005231
 step:   1.7772(harm=  1.7772)  dis= 0.01710  next Energy=   -59.103900 (dE=-0.105E-01)
 bond charge predicted
       N       E                     dE             d eps       ncg     rms          rms(c)
DAV:   1    -0.591032586356E+02   -0.19151E-02   -0.70940E-01 14188   0.496E+00    0.730E-01
DAV:   2    -0.591044259493E+02   -0.11673E-02   -0.46782E-02 17632   0.132E+00    0.390E-01
DAV:   3    -0.591035985246E+02    0.82742E-03   -0.30006E-03 20148   0.291E-01    0.219E-01
DAV:   4    -0.591035470293E+02    0.51495E-04   -0.87328E-04 23304   0.147E-01
  22 F= -.59103547E+02 E0= -.59103700E+02  d E =-.101145E-01
 curvature:  -1.22 expect dE=-0.111E-01 dE for cont linesearch -0.210E-04
 trial: gam= 0.74837 g(F)=  0.564E-02 g(S)=  0.340E-02 ort =-0.527E-03 (trialstep = 0.983E+00)
 search vector abs. value=  0.173E-01
 bond charge predicted
       N       E                     dE             d eps       ncg     rms          rms(c)
DAV:   1    -0.591104209960E+02   -0.68225E-02   -0.96387E-01 14184   0.524E+00    0.570E-01
DAV:   2    -0.591120108385E+02   -0.15898E-02   -0.49977E-02 18624   0.147E+00    0.247E-01
DAV:   3    -0.591117878911E+02    0.22295E-03   -0.27220E-03 23048   0.244E-01    0.122E-01
DAV:   4    -0.591116518852E+02    0.13601E-03   -0.34672E-04 15328   0.101E-01    0.754E-02
DAV:   5    -0.591116540243E+02   -0.21391E-05   -0.62112E-05  9448   0.495E-02
  23 F= -.59111654E+02 E0= -.59111814E+02  d E =-.810699E-02
 ZBRENT: can't locate minimum, use default step
 trial-energy change:   -0.008107  1 .order   -0.008168   -0.008500   -0.007835
 step:   3.9317(harm= 12.5731)  dis= 0.04398  next Energy=   -59.157911 (dE=-0.544E-01)
 bond charge predicted
       N       E                     dE             d eps       ncg     rms          rms(c)
DAV:   1    -0.591204805700E+02   -0.88287E-02   -0.86751E+00 14184   0.157E+01    0.171E+00
DAV:   2    -0.591333041732E+02   -0.12824E-01   -0.45167E-01 18688   0.443E+00    0.661E-01
DAV:   3    -0.591311695188E+02    0.21347E-02   -0.23319E-02 22520   0.711E-01    0.363E-01
DAV:   4    -0.591302968762E+02    0.87264E-03   -0.39446E-03 24328   0.303E-01    0.277E-01
DAV:   5    -0.591303985667E+02   -0.10169E-03   -0.44422E-04 21640   0.924E-02    0.162E-01
DAV:   6    -0.591304812616E+02   -0.82695E-04   -0.33355E-04 15624   0.713E-02
  24 F= -.59130481E+02 E0= -.59130656E+02  d E =-.269342E-01
 curvature:  -5.60 expect dE=-0.137E+00 dE for cont linesearch -0.821E-02
 ZBRENT: increasing intervall
 opt :   9.8291  next Energy=   -59.142956 (dE=-0.394E-01)
 bond charge predicted
       N       E                     dE             d eps       ncg     rms          rms(c)
DAV:   1    -0.591037853500E+02    0.26613E-01   -0.34822E+01 14184   0.316E+01    0.350E+00
DAV:   2    -0.591542612173E+02   -0.50476E-01   -0.18496E+00 18992   0.897E+00    0.135E+00
DAV:   3    -0.591453333597E+02    0.89279E-02   -0.91625E-02 21888   0.142E+00    0.726E-01
DAV:   4    -0.591423039813E+02    0.30294E-02   -0.17366E-02 24680   0.628E-01    0.544E-01
DAV:   5    -0.591428308198E+02   -0.52684E-03   -0.19377E-03 26648   0.188E-01    0.311E-01
DAV:   6    -0.591431480157E+02   -0.31720E-03   -0.97885E-04 24864   0.123E-01    0.394E-02
DAV:   7    -0.591431528727E+02   -0.48570E-05   -0.55324E-05  9896   0.438E-02
  25 F= -.59143153E+02 E0= -.59143352E+02  d E =-.396058E-01
 curvature:  -8.51 expect dE=-0.117E+01 dE for cont linesearch -0.205E-03
 trial: gam=15.46195 g(F)=  0.133E+00 g(S)=  0.443E-02 ort =-0.646E-03 (trialstep = 0.112E-01)
 search vector abs. value=  0.426E+01
 bond charge predicted
       N       E                     dE             d eps       ncg     rms          rms(c)
DAV:   1    -0.591445554884E+02   -0.14075E-02   -0.29421E-02 15072   0.841E-01    0.977E-02
DAV:   2    -0.591445863973E+02   -0.30909E-04   -0.13106E-03 17944   0.238E-01    0.373E-02
DAV:   3    -0.591445780434E+02    0.83539E-05   -0.58407E-05  9312   0.409E-02
  26 F= -.59144578E+02 E0= -.59144778E+02  d E =-.142517E-02
 ZBRENT: can't locate minimum, use default step
 trial-energy change:   -0.001425  1 .order   -0.001446   -0.001429   -0.001462
 step:   0.0448(harm=  0.0448)  dis= 0.00788  next Energy=   -59.149131 (dE=-0.598E-02)
 bond charge predicted
       N       E                     dE             d eps       ncg     rms          rms(c)
DAV:   1    -0.591486989479E+02   -0.41126E-02   -0.26575E-01 14240   0.253E+00    0.293E-01
DAV:   2    -0.591489132972E+02   -0.21435E-03   -0.11877E-02 19616   0.728E-01    0.128E-01
DAV:   3    -0.591488413789E+02    0.71918E-04   -0.71320E-04 21936   0.117E-01
  27 F= -.59148841E+02 E0= -.59149044E+02  d E =-.568851E-02
 curvature:  -1.13 expect dE=-0.155E+00 dE for cont linesearch -0.481E-02
 ZBRENT: increasing intervall
 opt :   0.1119  next Energy=   -59.158149 (dE=-0.150E-01)
 bond charge predicted
       N       E                     dE             d eps       ncg     rms          rms(c)
DAV:   1    -0.591568846267E+02   -0.79713E-02   -0.10621E+00 14184   0.505E+00    0.591E-01
DAV:   2    -0.591575999493E+02   -0.71532E-03   -0.47361E-02 19536   0.147E+00    0.262E-01
DAV:   3    -0.591572747847E+02    0.32516E-03   -0.26697E-03 22372   0.231E-01    0.153E-01
DAV:   4    -0.591571410623E+02    0.13372E-03   -0.50972E-04 18992   0.105E-01    0.113E-01
DAV:   5    -0.591571551796E+02   -0.14117E-04   -0.63633E-05  9436   0.482E-02
  28 F= -.59157155E+02 E0= -.59157363E+02  d E =-.140023E-01
 curvature:  -2.19 expect dE=-0.295E+00 dE for cont linesearch -0.826E-02
 ZBRENT: increasing intervall
 opt :   0.2463  next Energy=   -59.173141 (dE=-0.300E-01)
 bond charge predicted
       N       E                     dE             d eps       ncg     rms          rms(c)
DAV:   1    -0.591714020734E+02   -0.14261E-01   -0.42783E+00 14184   0.101E+01    0.122E+00
DAV:   2    -0.591750011867E+02   -0.35991E-02   -0.19263E-01 19496   0.296E+00    0.503E-01
DAV:   3    -0.591738137769E+02    0.11874E-02   -0.10445E-02 22392   0.459E-01    0.269E-01
DAV:   4    -0.591733199160E+02    0.49386E-03   -0.19523E-03 23892   0.202E-01    0.196E-01
DAV:   5    -0.591733614770E+02   -0.41561E-04   -0.21574E-04 15964   0.727E-02
  29 F= -.59173361E+02 E0= -.59173580E+02  d E =-.302086E-01
 curvature:  -4.24 expect dE=-0.559E+00 dE for cont linesearch -0.151E-01
 ZBRENT: increasing intervall
 opt :   0.5149  next Energy=   -59.205511 (dE=-0.624E-01)
 bond charge predicted
       N       E                     dE             d eps       ncg     rms          rms(c)
DAV:   1    -0.591963449862E+02   -0.23025E-01   -0.17178E+01 14184   0.203E+01    0.247E+00
DAV:   2    -0.592098650819E+02   -0.13520E-01   -0.78097E-01 19648   0.596E+00    0.101E+00
DAV:   3    -0.592048956770E+02    0.49694E-02   -0.40939E-02 22228   0.908E-01    0.540E-01
DAV:   4    -0.592030770746E+02    0.18186E-02   -0.83554E-03 24116   0.410E-01    0.389E-01
DAV:   5    -0.592032959866E+02   -0.21891E-03   -0.10863E-03 26164   0.146E-01    0.213E-01
DAV:   6    -0.592034234388E+02   -0.12745E-03   -0.39439E-04 19212   0.882E-02    0.234E-02
DAV:   7    -0.592034289906E+02   -0.55517E-05   -0.53416E-05  9444   0.475E-02
  30 F= -.59203429E+02 E0= -.59203653E+02  d E =-.602761E-01
 curvature:  -9.03 expect dE=-0.117E+01 dE for cont linesearch -0.239E-01
 ZBRENT: increasing intervall
 opt :   1.0522  next Energy=   -59.251486 (dE=-0.108E+00)
 bond charge predicted
       N       E                     dE             d eps       ncg     rms          rms(c)
DAV:   1    -0.592162470832E+02   -0.12824E-01   -0.69528E+01 14184   0.409E+01    0.502E+00
DAV:   2    -0.592731277516E+02   -0.56881E-01   -0.32736E+00 19776   0.120E+01    0.205E+00
DAV:   3    -0.592532688854E+02    0.19859E-01   -0.16967E-01 22028   0.183E+00    0.106E+00
DAV:   4    -0.592475226266E+02    0.57463E-02   -0.34291E-02 24572   0.832E-01    0.752E-01
DAV:   5    -0.592486525688E+02   -0.11299E-02   -0.46891E-03 25960   0.308E-01    0.377E-01
DAV:   6    -0.592491387910E+02   -0.48622E-03   -0.15244E-03 25120   0.163E-01    0.537E-02
DAV:   7    -0.592491475226E+02   -0.87316E-05   -0.10860E-04 12716   0.639E-02
  31 F= -.59249148E+02 E0= -.59249306E+02  d E =-.105995E+00
 curvature: -18.12 expect dE=-0.258E+01 dE for cont linesearch -0.173E-01
 ZBRENT: increasing intervall
 opt :   2.1269  next Energy=   -59.272167 (dE=-0.129E+00)
 bond charge predicted
       N       E                     dE             d eps       ncg     rms          rms(c)
DAV:   1    -0.588961773741E+02    0.35296E+00   -0.28744E+02 14184   0.824E+01    0.113E+01
DAV:   2    -0.592845237204E+02   -0.38835E+00   -0.15497E+01 19920   0.247E+01    0.463E+00
DAV:   3    -0.592313872901E+02    0.53136E-01   -0.91487E-01 22824   0.392E+00    0.224E+00
DAV:   4    -0.592152949519E+02    0.16092E-01   -0.12446E-01 25340   0.165E+00    0.136E+00
DAV:   5    -0.592213078142E+02   -0.60129E-02   -0.25502E-02 27428   0.731E-01    0.650E-01
DAV:   6    -0.592229726248E+02   -0.16648E-02   -0.35096E-03 24832   0.270E-01    0.114E-01
DAV:   7    -0.592229951298E+02   -0.22505E-04   -0.39801E-04 18588   0.118E-01
  32 F= -.59222995E+02 E0= -.59223172E+02  d E =-.798423E-01
 curvature: -24.05 expect dE=-0.698E+01 dE for cont linesearch -0.105E+00
 ZBRENT: bracketing found
 ZBRENT: interpolating
 opt :   1.3953  next Energy=   -59.260106 (dE=-0.117E+00)
 bond charge predicted
       N       E                     dE             d eps       ncg     rms          rms(c)
DAV:   1    -0.591128064974E+02    0.11017E+00   -0.13124E+02 14184   0.557E+01    0.589E+00
DAV:   2    -0.593324906983E+02   -0.21968E+00   -0.68138E+00 20264   0.179E+01    0.325E+00
DAV:   3    -0.592938551822E+02    0.38636E-01   -0.47360E-01 23996   0.321E+00    0.180E+00
DAV:   4    -0.592597932894E+02    0.34062E-01   -0.75694E-02 20800   0.131E+00    0.128E+00
DAV:   5    -0.592590268342E+02    0.76646E-03   -0.16062E-02 27728   0.503E-01    0.881E-01
DAV:   6    -0.592590986812E+02   -0.71847E-04   -0.36356E-03 24104   0.259E-01    0.108E-01
DAV:   7    -0.592591179767E+02   -0.19295E-04   -0.83606E-04 22912   0.134E-01
  33 F= -.59259118E+02 E0= -.59259238E+02  d E =-.115965E+00
 curvature:  -2.52 expect dE=-0.425E+00 dE for cont linesearch -0.295E-03
 trial: gam= 0.43597 g(F)=  0.136E+00 g(S)=  0.330E-01 ort = 0.224E-01 (trialstep = 0.288E+00)
 search vector abs. value=  0.999E+00
 bond charge predicted
       N       E                     dE             d eps       ncg     rms          rms(c)
DAV:   1    -0.592903366545E+02   -0.31238E-01   -0.47266E+00 14184   0.123E+01    0.947E-01
DAV:   2    -0.593066111270E+02   -0.16274E-01   -0.26435E-01 18048   0.322E+00    0.512E-01
DAV:   3    -0.593058336974E+02    0.77743E-03   -0.11164E-02 22948   0.487E-01    0.272E-01
DAV:   4    -0.593053049827E+02    0.52871E-03   -0.17374E-03 19104   0.255E-01    0.707E-02
DAV:   5    -0.593053116738E+02   -0.66911E-05   -0.21661E-04 13956   0.879E-02
  34 F= -.59305312E+02 E0= -.59305417E+02  d E =-.461937E-01
 ZBRENT: can't locate minimum, use default step
 trial-energy change:   -0.046194  1 .order   -0.046403   -0.051450   -0.041357
 step:   1.1521(harm=  1.4682)  dis= 0.08584  next Energy=   -59.390252 (dE=-0.131E+00)
 bond charge predicted
       N       E                     dE             d eps       ncg     rms          rms(c)
DAV:   1    -0.592424413686E+02    0.62864E-01   -0.42811E+01 14184   0.367E+01    0.280E+00
DAV:   2    -0.593938797912E+02   -0.15144E+00   -0.24217E+00 18232   0.964E+00    0.151E+00
DAV:   3    -0.593874701278E+02    0.64097E-02   -0.99848E-02 22300   0.145E+00    0.838E-01
DAV:   4    -0.593827331672E+02    0.47370E-02   -0.15932E-02 18768   0.761E-01    0.234E-01
DAV:   5    -0.593828100061E+02   -0.76839E-04   -0.22156E-03 18672   0.274E-01    0.102E-01
DAV:   6    -0.593827984137E+02    0.11592E-04   -0.21491E-04 11912   0.102E-01
  35 F= -.59382798E+02 E0= -.59382899E+02  d E =-.123680E+00
 curvature:  -3.81 expect dE=-0.711E+00 dE for cont linesearch -0.533E-02
 ZBRENT: extrapolating
 opt :   1.4560  next Energy=   -59.388477 (dE=-0.129E+00)
 bond charge predicted
       N       E                     dE             d eps       ncg     rms          rms(c)
DAV:   1    -0.593716710554E+02    0.11139E-01   -0.53229E+00 14184   0.129E+01    0.950E-01
DAV:   2    -0.593897969130E+02   -0.18126E-01   -0.29425E-01 17984   0.338E+00    0.518E-01
DAV:   3    -0.593890014724E+02    0.79544E-03   -0.12954E-02 23148   0.518E-01    0.279E-01
DAV:   4    -0.593884061538E+02    0.59532E-03   -0.19769E-03 18288   0.270E-01    0.776E-02
DAV:   5    -0.593884171346E+02   -0.10981E-04   -0.26435E-04 14592   0.969E-02
  36 F= -.59388417E+02 E0= -.59388525E+02  d E =-.129299E+00
 curvature:  -4.06 expect dE=-0.112E+01 dE for cont linesearch -0.664E-06
 trial: gam= 1.52999 g(F)=  0.262E+00 g(S)=  0.135E-01 ort = 0.404E-03 (trialstep = 0.199E+00)
 search vector abs. value=  0.261E+01
 bond charge predicted
       N       E                     dE             d eps       ncg     rms          rms(c)
DAV:   1    -0.594282523049E+02   -0.39846E-01   -0.57243E+00 14184   0.123E+01    0.102E+00
DAV:   2    -0.594414751249E+02   -0.13223E-01   -0.25895E-01 19008   0.323E+00    0.594E-01
DAV:   3    -0.594404180476E+02    0.10571E-02   -0.12853E-02 22980   0.488E-01    0.301E-01
DAV:   4    -0.594398261306E+02    0.59192E-03   -0.16650E-03 18760   0.239E-01    0.777E-02
DAV:   5    -0.594398291258E+02   -0.29952E-05   -0.16904E-04 12124   0.843E-02
  37 F= -.59439829E+02 E0= -.59439950E+02  d E =-.514120E-01
 ZBRENT: can't locate minimum, use default step
 trial-energy change:   -0.051412  1 .order   -0.051625   -0.054970   -0.048280
 step:   0.7971(harm=  1.6373)  dis= 0.08643  next Energy=   -59.614247 (dE=-0.226E+00)
 bond charge predicted
       N       E                     dE             d eps       ncg     rms          rms(c)
DAV:   1    -0.594393567623E+02    0.46937E-03   -0.52047E+01 14184   0.369E+01    0.303E+00
DAV:   2    -0.595669142976E+02   -0.12756E+00   -0.23929E+00 18952   0.968E+00    0.180E+00
DAV:   3    -0.595580067007E+02    0.89076E-02   -0.11715E-01 22500   0.148E+00    0.940E-01
DAV:   4    -0.595523100420E+02    0.56967E-02   -0.15729E-02 18888   0.724E-01    0.251E-01
DAV:   5    -0.595523328870E+02   -0.22845E-04   -0.20312E-03 20304   0.263E-01    0.127E-01
DAV:   6    -0.595523302778E+02    0.26092E-05   -0.18221E-04 12788   0.835E-02
  38 F= -.59552330E+02 E0= -.59552428E+02  d E =-.163913E+00
 curvature:  -5.11 expect dE=-0.766E+00 dE for cont linesearch -0.344E-01
 ZBRENT: increasing intervall
 opt :   1.9927  next Energy=   -59.579820 (dE=-0.191E+00)
 bond charge predicted
       N       E                     dE             d eps       ncg     rms          rms(c)
DAV:   1    -0.589694557895E+02    0.58288E+00   -0.21420E+02 14184   0.735E+01    0.681E+00
DAV:   2    -0.595899497845E+02   -0.62049E+00   -0.10591E+01 18776   0.194E+01    0.369E+00
DAV:   3    -0.595638298442E+02    0.26120E-01   -0.56892E-01 22288   0.314E+00    0.194E+00
DAV:   4    -0.595412189881E+02    0.22611E-01   -0.63548E-02 18976   0.146E+00    0.607E-01
DAV:   5    -0.595409615181E+02    0.25747E-03   -0.91518E-03 19640   0.561E-01    0.326E-01
DAV:   6    -0.595410172501E+02   -0.55732E-04   -0.10911E-03 22732   0.179E-01    0.853E-02
DAV:   7    -0.595410470940E+02   -0.29844E-04   -0.13494E-04 10376   0.647E-02
  39 F= -.59541047E+02 E0= -.59540953E+02  d E =-.152630E+00
 curvature:  -4.09 expect dE=-0.101E+01 dE for cont linesearch -0.541E-01
 ZBRENT: bracketing found
 ZBRENT: interpolating
 opt :   1.2948  next Energy=   -59.585336 (dE=-0.197E+00)
 bond charge predicted
       N       E                     dE             d eps       ncg     rms          rms(c)
DAV:   1    -0.594466850054E+02    0.94332E-01   -0.73073E+01 14184   0.439E+01    0.378E+00
DAV:   2    -0.596142924267E+02   -0.16761E+00   -0.32979E+00 19072   0.116E+01    0.216E+00
DAV:   3    -0.595987961737E+02    0.15496E-01   -0.18180E-01 23308   0.192E+00    0.103E+00
DAV:   4    -0.595918593520E+02    0.69368E-02   -0.19032E-02 18368   0.773E-01    0.331E-01
DAV:   5    -0.595916299207E+02    0.22943E-03   -0.32624E-03 22700   0.343E-01    0.132E-01
DAV:   6    -0.595916554522E+02   -0.25531E-04   -0.28226E-04 14104   0.102E-01
  40 F= -.59591655E+02 E0= -.59591682E+02  d E =-.203238E+00
 curvature:  -2.49 expect dE=-0.379E+00 dE for cont linesearch -0.455E-03
 trial: gam= 0.12919 g(F)=  0.114E+00 g(S)=  0.381E-01 ort = 0.218E-01 (trialstep = 0.418E+00)
 search vector abs. value=  0.201E+00
 bond charge predicted
       N       E                     dE             d eps       ncg     rms          rms(c)
DAV:   1    -0.596407132987E+02   -0.49083E-01   -0.21527E+00 15760   0.991E+00    0.114E+00
DAV:   2    -0.596509304507E+02   -0.10217E-01   -0.23915E-01 15736   0.267E+00    0.449E-01
DAV:   3    -0.596493720237E+02    0.15584E-02   -0.94895E-03 21032   0.501E-01    0.233E-01
DAV:   4    -0.596488518176E+02    0.52021E-03   -0.20980E-03 22628   0.256E-01    0.206E-01
DAV:   5    -0.596489102266E+02   -0.58409E-04   -0.27696E-04 16772   0.786E-02
  41 F= -.59648910E+02 E0= -.59648888E+02  d E =-.572548E-01
 ZBRENT: can't locate minimum, use default step
 trial-energy change:   -0.057255  1 .order   -0.057763   -0.064747   -0.050779
 step:   1.6735(harm=  1.9392)  dis= 0.05897  next Energy=   -59.741716 (dE=-0.150E+00)
 bond charge predicted
       N       E                     dE             d eps       ncg     rms          rms(c)
DAV:   1    -0.596332483843E+02    0.15603E-01   -0.19156E+01 14192   0.297E+01    0.375E+00
DAV:   2    -0.597475340340E+02   -0.11429E+00   -0.23408E+00 15740   0.837E+00    0.137E+00
DAV:   3    -0.597336325730E+02    0.13901E-01   -0.82169E-02 19348   0.154E+00    0.744E-01
DAV:   4    -0.597275244996E+02    0.61081E-02   -0.25208E-02 22888   0.878E-01    0.629E-01
DAV:   5    -0.597281874153E+02   -0.66292E-03   -0.32352E-03 21352   0.254E-01    0.389E-01
DAV:   6    -0.597284227067E+02   -0.23529E-03   -0.19771E-03 27056   0.180E-01    0.736E-02
DAV:   7    -0.597284172234E+02    0.54833E-05   -0.13333E-04 11780   0.722E-02
  42 F= -.59728417E+02 E0= -.59728212E+02  d E =-.136762E+00
 curvature:  -1.22 expect dE=-0.202E+00 dE for cont linesearch -0.340E-03
 trial: gam= 1.05774 g(F)=  0.158E+00 g(S)=  0.742E-02 ort = 0.748E-02 (trialstep = 0.332E+00)
 search vector abs. value=  0.406E+00
 bond charge predicted
       N       E                     dE             d eps       ncg     rms          rms(c)
DAV:   1    -0.597822002938E+02   -0.53778E-01   -0.17634E+00 14216   0.784E+00    0.101E+00
DAV:   2    -0.597831510879E+02   -0.95079E-03   -0.11456E-01 18784   0.226E+00    0.428E-01
DAV:   3    -0.597814241275E+02    0.17270E-02   -0.60847E-03 20540   0.432E-01    0.232E-01
DAV:   4    -0.597808617181E+02    0.56241E-03   -0.21297E-03 22568   0.237E-01    0.194E-01
DAV:   5    -0.597809118730E+02   -0.50155E-04   -0.22651E-04 14856   0.700E-02
  43 F= -.59780912E+02 E0= -.59780697E+02  d E =-.524946E-01
 ZBRENT: can't locate minimum, use default step
 trial-energy change:   -0.052495  1 .order   -0.053015   -0.057440   -0.048591
 step:   1.3260(harm=  2.1519)  dis= 0.04729  next Energy=   -59.914842 (dE=-0.186E+00)
 bond charge predicted
       N       E                     dE             d eps       ncg     rms          rms(c)
DAV:   1    -0.598871063214E+02   -0.10624E+00   -0.15930E+01 14184   0.236E+01    0.321E+00
DAV:   2    -0.598954864157E+02   -0.83801E-02   -0.10404E+00 18640   0.678E+00    0.127E+00
DAV:   3    -0.598793339406E+02    0.16152E-01   -0.53798E-02 20460   0.127E+00    0.683E-01
DAV:   4    -0.598746186555E+02    0.47153E-02   -0.20925E-02 22660   0.732E-01    0.569E-01
DAV:   5    -0.598751163993E+02   -0.49774E-03   -0.23323E-03 21568   0.213E-01    0.323E-01
DAV:   6    -0.598752814505E+02   -0.16505E-03   -0.12213E-03 25264   0.156E-01    0.810E-02
DAV:   7    -0.598752715258E+02    0.99246E-05   -0.64237E-05  9604   0.492E-02
  44 F= -.59875272E+02 E0= -.59875034E+02  d E =-.146854E+00
 curvature:  -2.00 expect dE=-0.157E+00 dE for cont linesearch -0.933E-02
 ZBRENT: extrapolating
 opt :   1.7455  next Energy=   -59.884392 (dE=-0.156E+00)
 bond charge predicted
       N       E                     dE             d eps       ncg     rms          rms(c)
DAV:   1    -0.598849249641E+02   -0.96435E-02   -0.28433E+00 14216   0.100E+01    0.134E+00
DAV:   2    -0.598866646170E+02   -0.17397E-02   -0.18746E-01 18648   0.289E+00    0.537E-01
DAV:   3    -0.598837384106E+02    0.29262E-02   -0.98472E-03 20408   0.555E-01    0.305E-01
DAV:   4    -0.598828412764E+02    0.89713E-03   -0.35498E-03 22416   0.308E-01    0.257E-01
DAV:   5    -0.598829287574E+02   -0.87481E-04   -0.41641E-04 17796   0.914E-02
  45 F= -.59882929E+02 E0= -.59882684E+02  d E =-.154512E+00
 curvature:  -1.96 expect dE=-0.245E+00 dE for cont linesearch -0.284E-04
 trial: gam= 0.81554 g(F)=  0.914E-01 g(S)=  0.337E-01 ort =-0.243E-02 (trialstep = 0.614E+00)
 search vector abs. value=  0.391E+00
 bond charge predicted
       N       E                     dE             d eps       ncg     rms          rms(c)
DAV:   1    -0.599281098853E+02   -0.45269E-01   -0.50885E+00 15776   0.142E+01    0.128E+00
DAV:   2    -0.599470093028E+02   -0.18899E-01   -0.35422E-01 16696   0.340E+00    0.833E-01
DAV:   3    -0.599443701544E+02    0.26391E-02   -0.13497E-02 21508   0.641E-01    0.418E-01
DAV:   4    -0.599435463372E+02    0.82382E-03   -0.28923E-03 21832   0.314E-01    0.150E-01
DAV:   5    -0.599435678334E+02   -0.21496E-04   -0.35982E-04 16468   0.964E-02
  46 F= -.59943568E+02 E0= -.59943258E+02  d E =-.606391E-01
 trial-energy change:   -0.060639  1 .order   -0.060756   -0.075626   -0.045887
 step:   1.5622(harm=  1.5622)  dis= 0.06523  next Energy=   -59.979086 (dE=-0.962E-01)
 bond charge predicted
       N       E                     dE             d eps       ncg     rms          rms(c)
DAV:   1    -0.599350355282E+02    0.85108E-02   -0.12222E+01 15760   0.220E+01    0.189E+00
DAV:   2    -0.599810097885E+02   -0.45974E-01   -0.84827E-01 16512   0.527E+00    0.128E+00
DAV:   3    -0.599748748679E+02    0.61349E-02   -0.31485E-02 21708   0.971E-01    0.657E-01
DAV:   4    -0.599727372422E+02    0.21376E-02   -0.70456E-03 21240   0.493E-01    0.227E-01
DAV:   5    -0.599728006350E+02   -0.63393E-04   -0.99581E-04 21016   0.154E-01
  47 F= -.59972801E+02 E0= -.59972374E+02  d E =-.898719E-01
 curvature:  -2.48 expect dE=-0.201E+00 dE for cont linesearch -0.175E-02
 ZBRENT: interpolating
 opt :   1.3897  next Energy=   -59.974234 (dE=-0.913E-01)
 bond charge predicted
       N       E                     dE             d eps       ncg     rms          rms(c)
DAV:   1    -0.599729174345E+02   -0.18019E-03   -0.40690E-01 15916   0.399E+00    0.377E-01
DAV:   2    -0.599743825264E+02   -0.14651E-02   -0.28134E-02 16416   0.951E-01    0.224E-01
DAV:   3    -0.599741619868E+02    0.22054E-03   -0.10795E-03 21028   0.183E-01    0.102E-01
DAV:   4    -0.599741013371E+02    0.60650E-04   -0.15258E-04 10924   0.785E-02
  48 F= -.59974101E+02 E0= -.59973698E+02  d E =-.911726E-01
 curvature:  -2.03 expect dE=-0.145E+00 dE for cont linesearch -0.482E-05
 trial: gam= 0.27413 g(F)=  0.555E-01 g(S)=  0.160E-01 ort = 0.964E-03 (trialstep = 0.769E+00)
 search vector abs. value=  0.101E+00
 bond charge predicted
       N       E                     dE             d eps       ncg     rms          rms(c)
DAV:   1    -0.599984139095E+02   -0.24252E-01   -0.30369E+00 14200   0.117E+01    0.144E+00
DAV:   2    -0.600150559624E+02   -0.16642E-01   -0.36194E-01 15820   0.324E+00    0.733E-01
DAV:   3    -0.600114593253E+02    0.35966E-02   -0.14636E-02 18908   0.686E-01    0.432E-01
DAV:   4    -0.600105223760E+02    0.93695E-03   -0.44244E-03 24292   0.356E-01    0.356E-01
DAV:   5    -0.600106850755E+02   -0.16270E-03   -0.48819E-04 17940   0.103E-01    0.181E-01
DAV:   6    -0.600106400745E+02    0.45001E-04   -0.51878E-04 17496   0.117E-01
  49 F= -.60010640E+02 E0= -.60010130E+02  d E =-.365387E-01
 trial-energy change:   -0.036539  1 .order   -0.036827   -0.055234   -0.018421
 step:   1.1544(harm=  1.1544)  dis= 0.01664  next Energy=   -60.015537 (dE=-0.414E-01)
 bond charge predicted
       N       E                     dE             d eps       ncg     rms          rms(c)
DAV:   1    -0.600120493552E+02   -0.13643E-02   -0.75701E-01 14472   0.583E+00    0.732E-01
DAV:   2    -0.600160125404E+02   -0.39632E-02   -0.88533E-02 15788   0.159E+00    0.356E-01
DAV:   3    -0.600151316499E+02    0.88089E-03   -0.36666E-03 19392   0.333E-01    0.204E-01
DAV:   4    -0.600149524442E+02    0.17921E-03   -0.10905E-03 23200   0.174E-01    0.178E-01
DAV:   5    -0.600149914007E+02   -0.38957E-04   -0.10908E-04 10800   0.535E-02
  50 F= -.60014991E+02 E0= -.60014427E+02  d E =-.408901E-01
 curvature:  -0.82 expect dE=-0.257E-01 dE for cont linesearch -0.112E-04
 trial: gam= 0.39867 g(F)=  0.258E-01 g(S)=  0.580E-02 ort = 0.118E-02 (trialstep = 0.846E+00)
 search vector abs. value=  0.486E-01
 bond charge predicted
       N       E                     dE             d eps       ncg     rms          rms(c)
DAV:   1    -0.600270519354E+02   -0.12099E-01   -0.21139E+00 15760   0.960E+00    0.991E-01
DAV:   2    -0.600361403712E+02   -0.90884E-02   -0.19649E-01 15784   0.247E+00    0.441E-01
DAV:   3    -0.600344946032E+02    0.16458E-02   -0.76937E-03 21844   0.457E-01    0.243E-01
DAV:   4    -0.600340704804E+02    0.42412E-03   -0.18933E-03 22592   0.237E-01    0.192E-01
DAV:   5    -0.600341017185E+02   -0.31238E-04   -0.18457E-04 13320   0.677E-02
  51 F= -.60034102E+02 E0= -.60033535E+02  d E =-.191103E-01
 trial-energy change:   -0.019110  1 .order   -0.020051   -0.027109   -0.012993
 step:   1.6254(harm=  1.6254)  dis= 0.02598  next Energy=   -60.041022 (dE=-0.260E-01)
 bond charge predicted
       N       E                     dE             d eps       ncg     rms          rms(c)
DAV:   1    -0.600331479980E+02    0.92248E-03   -0.17871E+00 15760   0.881E+00    0.899E-01
DAV:   2    -0.600408772072E+02   -0.77292E-02   -0.16576E-01 15824   0.227E+00    0.404E-01
DAV:   3    -0.600394976513E+02    0.13796E-02   -0.64498E-03 21868   0.419E-01    0.222E-01
DAV:   4    -0.600391355397E+02    0.36211E-03   -0.16036E-03 22536   0.219E-01    0.175E-01
DAV:   5    -0.600391607192E+02   -0.25180E-04   -0.15414E-04 12516   0.627E-02
  52 F= -.60039161E+02 E0= -.60038589E+02  d E =-.241693E-01
 curvature:  -1.23 expect dE=-0.280E-01 dE for cont linesearch -0.301E-06
 trial: gam= 0.73369 g(F)=  0.173E-01 g(S)=  0.540E-02 ort =-0.109E-03 (trialstep = 0.100E+01)
 search vector abs. value=  0.487E-01
 bond charge predicted
       N       E                     dE             d eps       ncg     rms          rms(c)
DAV:   1    -0.600523900479E+02   -0.13255E-01   -0.22059E+00 14184   0.850E+00    0.827E-01
DAV:   2    -0.600564561660E+02   -0.40661E-02   -0.11749E-01 17952   0.210E+00    0.412E-01
DAV:   3    -0.600547835678E+02    0.16726E-02   -0.57714E-03 22604   0.381E-01    0.199E-01
DAV:   4    -0.600543748953E+02    0.40867E-03   -0.10914E-03 19808   0.199E-01    0.904E-02
DAV:   5    -0.600543807082E+02   -0.58129E-05   -0.98891E-05  9620   0.632E-02
  53 F= -.60054381E+02 E0= -.60053801E+02  d E =-.152200E-01
 trial-energy change:   -0.015220  1 .order   -0.015588   -0.022618   -0.008558
 step:   1.6099(harm=  1.6099)  dis= 0.02509  next Energy=   -60.057353 (dE=-0.182E-01)
 bond charge predicted
       N       E                     dE             d eps       ncg     rms          rms(c)
DAV:   1    -0.600560588235E+02   -0.16839E-02   -0.81720E-01 14192   0.518E+00    0.493E-01
DAV:   2    -0.600575965267E+02   -0.15377E-02   -0.43440E-02 17888   0.128E+00    0.252E-01
DAV:   3    -0.600569982625E+02    0.59826E-03   -0.21417E-03 22584   0.231E-01    0.122E-01
DAV:   4    -0.600568571117E+02    0.14115E-03   -0.39847E-04 16376   0.122E-01    0.558E-02
DAV:   5    -0.600568618231E+02   -0.47114E-05   -0.45575E-05  9448   0.424E-02
  54 F= -.60056862E+02 E0= -.60056275E+02  d E =-.177011E-01
 curvature:  -1.73 expect dE=-0.205E-01 dE for cont linesearch -0.329E-07
 trial: gam= 0.46162 g(F)=  0.104E-01 g(S)=  0.146E-02 ort =-0.304E-04 (trialstep = 0.112E+01)
 search vector abs. value=  0.222E-01
 bond charge predicted
       N       E                     dE             d eps       ncg     rms          rms(c)
DAV:   1    -0.600567093745E+02    0.14774E-03   -0.16944E+00 15760   0.880E+00    0.872E-01
DAV:   2    -0.600657360394E+02   -0.90267E-02   -0.17744E-01 15920   0.228E+00    0.365E-01
DAV:   3    -0.600647900236E+02    0.94602E-03   -0.67326E-03 21976   0.413E-01    0.208E-01
DAV:   4    -0.600644840390E+02    0.30598E-03   -0.15157E-03 22276   0.221E-01    0.190E-01
DAV:   5    -0.600645247381E+02   -0.40699E-04   -0.14100E-04 12312   0.604E-02
  55 F= -.60064525E+02 E0= -.60063920E+02  d E =-.766292E-02
 trial-energy change:   -0.007663  1 .order   -0.008112   -0.013284   -0.002940
 step:   1.6376(harm=  1.4417)  dis= 0.01453  next Energy=   -60.065156 (dE=-0.829E-02)
 bond charge predicted
       N       E                     dE             d eps       ncg     rms          rms(c)
DAV:   1    -0.600628314072E+02    0.16526E-02   -0.35395E-01 15808   0.403E+00    0.399E-01
DAV:   2    -0.600646546528E+02   -0.18232E-02   -0.37191E-02 15944   0.105E+00    0.172E-01
DAV:   3    -0.600644528943E+02    0.20176E-03   -0.14199E-03 21108   0.191E-01    0.991E-02
DAV:   4    -0.600643884398E+02    0.64455E-04   -0.24447E-04 12144   0.106E-01
  56 F= -.60064388E+02 E0= -.60063778E+02  d E =-.752662E-02
 curvature:  -0.84 expect dE=-0.831E-02 dE for cont linesearch -0.140E-03
 trial: gam= 1.00049 g(F)=  0.912E-02 g(S)=  0.741E-03 ort =-0.192E-02 (trialstep = 0.963E+00)
 search vector abs. value=  0.282E-01
 bond charge predicted
       N       E                     dE             d eps       ncg     rms          rms(c)
DAV:   1    -0.600678311072E+02   -0.33782E-02   -0.11186E+00 14184   0.625E+00    0.799E-01
DAV:   2    -0.600691183681E+02   -0.12873E-02   -0.70513E-02 18168   0.176E+00    0.307E-01
DAV:   3    -0.600683343754E+02    0.78399E-03   -0.37093E-03 22016   0.315E-01    0.192E-01
DAV:   4    -0.600681084036E+02    0.22597E-03   -0.10959E-03 23036   0.159E-01    0.168E-01
DAV:   5    -0.600681488975E+02   -0.40494E-04   -0.92727E-05 10532   0.452E-02
  57 F= -.60068149E+02 E0= -.60067536E+02  d E =-.376046E-02
 trial-energy change:   -0.003760  1 .order   -0.004250   -0.007649   -0.000852
 step:   1.2342(harm=  1.0842)  dis= 0.01263  next Energy=   -60.068258 (dE=-0.387E-02)
 bond charge predicted
       N       E                     dE             d eps       ncg     rms          rms(c)
DAV:   1    -0.600679761653E+02    0.13224E-03   -0.86787E-02 14268   0.174E+00    0.226E-01
DAV:   2    -0.600680636528E+02   -0.87487E-04   -0.54083E-03 18280   0.493E-01    0.904E-02
DAV:   3    -0.600680003624E+02    0.63290E-04   -0.24043E-04 13672   0.867E-02
  58 F= -.60068000E+02 E0= -.60067387E+02  d E =-.361192E-02
 curvature:   1.04 expect dE= 0.536E-02 dE for cont linesearch  0.308E-04
 trial: gam= 0.23718 g(F)=  0.328E-02 g(S)=  0.185E-02 ort =-0.912E-03 (trialstep = 0.102E+01)
 search vector abs. value=  0.629E-02
 bond charge predicted
       N       E                     dE             d eps       ncg     rms          rms(c)
DAV:   1    -0.600725726902E+02   -0.45090E-02   -0.24948E-01 14192   0.294E+00    0.471E-01
DAV:   2    -0.600723360027E+02    0.23669E-03   -0.15456E-02 19568   0.778E-01    0.233E-01
DAV:   3    -0.600718212299E+02    0.51477E-03   -0.11748E-03 18992   0.191E-01    0.115E-01
DAV:   4    -0.600717549091E+02    0.66321E-04   -0.36271E-04 14900   0.102E-01
  59 F= -.60071755E+02 E0= -.60071139E+02  d E =-.375455E-02
 trial-energy change:   -0.003755  1 .order   -0.003754   -0.005001   -0.002506
 step:   2.0395(harm=  2.0395)  dis= 0.00875  next Energy=   -60.073012 (dE=-0.501E-02)
 bond charge predicted
       N       E                     dE             d eps       ncg     rms          rms(c)
DAV:   1    -0.600736767169E+02   -0.18555E-02   -0.25082E-01 14184   0.295E+00    0.479E-01
DAV:   2    -0.600732028194E+02    0.47390E-03   -0.14790E-02 18848   0.773E-01    0.211E-01
DAV:   3    -0.600726684056E+02    0.53441E-03   -0.12686E-03 19164   0.195E-01    0.137E-01
DAV:   4    -0.600726215037E+02    0.46902E-04   -0.45882E-04 17176   0.106E-01
  60 F= -.60072622E+02 E0= -.60072004E+02  d E =-.462114E-02
 curvature:  -1.30 expect dE=-0.443E-02 dE for cont linesearch -0.308E-04
 trial: gam= 0.67225 g(F)=  0.321E-02 g(S)=  0.192E-03 ort =-0.386E-03 (trialstep = 0.122E+01)
 search vector abs. value=  0.572E-02
