unknown system                          
           1
     5.539920   -0.099551   -0.069543
     1.648501    5.716477    0.128120
    -0.082534    1.197455    6.942262
   Nb   H    Nb   H    Sr   H    Sr
   1   5   1  11   1   5   1
Direct configuration=     1
   0.53906459  0.63237921  0.10386756
   0.43489068  0.95023601  0.07726816
   0.83376982  0.39483164  0.17390260
   0.21128113  0.62513928  0.13742324
   0.17431534  0.04716854  0.67051402
   0.44430269  0.91365819  0.56741278
   0.53767901  0.60825755  0.69121687
   0.81279722  0.36089000  0.68996819
   0.43539919  0.33850311  0.67577449
   0.20561113  0.69850380  0.61786415
   0.32973553  0.74950370  0.87328474
   0.57021470  0.39977982  0.94382770
   0.43788759  0.24647096  0.25611660
   0.76412290  0.76268832  0.19703420
   0.71835241  0.71097649  0.88197889
   0.77820358  0.72997870  0.58826120
   0.03754375  0.11869231  0.67958300
   0.52509260  0.56802052  0.40401147
   0.14738906  0.31041071  0.94484491
   0.40477536  0.12043747  0.28021031
   0.97725164  0.95655940  0.99432426
   0.01626601  0.97939231  0.39766452
   0.87919066  0.03388866  0.36253602
   0.85996843  0.04987737  0.94706162
   0.06967898  0.47110694  0.42675052
unknown system                          
           1
     5.539900   -0.100577   -0.069784
     1.647426    5.715714    0.128821
    -0.083040    1.198304    6.942451
   Nb   H    Nb   H    Sr   H    Sr
   1   5   1  11   1   5   1
Direct configuration=     2
   0.53915563  0.63230730  0.10393019
   0.43493486  0.95025350  0.07731984
   0.83372635  0.39484930  0.17393564
   0.21111349  0.62527277  0.13735780
   0.17421395  0.04738793  0.67028657
   0.44433359  0.91373063  0.56741425
   0.53757428  0.60812753  0.69133438
   0.81269905  0.36092664  0.68998465
   0.43527489  0.33834188  0.67582454
   0.20565305  0.69837556  0.61800644
   0.32982187  0.74958079  0.87328418
   0.57012575  0.39967397  0.94393381
   0.43783397  0.24635490  0.25619388
   0.76399968  0.76272492  0.19704472
   0.71839783  0.71095170  0.88201461
   0.77838590  0.73012725  0.58822103
   0.03777948  0.11869370  0.67939559
   0.52502196  0.56808493  0.40404965
   0.14736105  0.31037356  0.94488201
   0.40483153  0.12046765  0.28027201
   0.97711554  0.95641386  0.99440426
   0.01601468  0.97941462  0.39746711
   0.88007876  0.03361055  0.36236530
   0.85974525  0.05002219  0.94705265
   0.06959162  0.47128337  0.42672690
unknown system                          
           1
     5.539902   -0.100501   -0.069766
     1.647506    5.715770    0.128769
    -0.083003    1.198241    6.942437
   Nb   H    Nb   H    Sr   H    Sr
   1   5   1  11   1   5   1
Direct configuration=     3
   0.53914889  0.63231263  0.10392555
   0.43493159  0.95025220  0.07731601
   0.83372957  0.39484799  0.17393319
   0.21112590  0.62526288  0.13736265
   0.17422146  0.04737168  0.67030342
   0.44433130  0.91372526  0.56741414
   0.53758203  0.60813717  0.69132568
   0.81270632  0.36092393  0.68998343
   0.43528409  0.33835383  0.67582083
   0.20564995  0.69838506  0.61799590
   0.32981547  0.74957508  0.87328423
   0.57013234  0.39968181  0.94392595
   0.43783794  0.24636350  0.25618815
   0.76400880  0.76272221  0.19704395
   0.71839446  0.71095353  0.88201196
   0.77837240  0.73011625  0.58822401
   0.03776202  0.11869359  0.67940946
   0.52502719  0.56808016  0.40404682
   0.14736312  0.31037631  0.94487926
   0.40482737  0.12046541  0.28026744
   0.97712562  0.95642464  0.99439834
   0.01603330  0.97941297  0.39748173
   0.88001299  0.03363114  0.36237794
   0.85976178  0.05001147  0.94705332
   0.06959809  0.47127031  0.42672865
