Automatically generated mesh
      48
Reciprocal lattice
    0.12500000000000    0.08333333333333    0.12500000000000             2
    0.37500000000000    0.08333333333333    0.12500000000000             2
   -0.37500000000000    0.08333333333333    0.12500000000000             2
   -0.12500000000000    0.08333333333333    0.12500000000000             2
    0.12500000000000    0.25000000000000    0.12500000000000             2
    0.37500000000000    0.25000000000000    0.12500000000000             2
   -0.37500000000000    0.25000000000000    0.12500000000000             2
   -0.12500000000000    0.25000000000000    0.12500000000000             2
    0.12500000000000    0.41666666666667    0.12500000000000             2
    0.37500000000000    0.41666666666667    0.12500000000000             2
   -0.37500000000000    0.41666666666667    0.12500000000000             2
   -0.12500000000000    0.41666666666667    0.12500000000000             2
    0.12500000000000   -0.41666666666667    0.12500000000000             2
    0.37500000000000   -0.41666666666667    0.12500000000000             2
   -0.37500000000000   -0.41666666666667    0.12500000000000             2
   -0.12500000000000   -0.41666666666667    0.12500000000000             2
    0.12500000000000   -0.25000000000000    0.12500000000000             2
    0.37500000000000   -0.25000000000000    0.12500000000000             2
   -0.37500000000000   -0.25000000000000    0.12500000000000             2
   -0.12500000000000   -0.25000000000000    0.12500000000000             2
    0.12500000000000   -0.08333333333333    0.12500000000000             2
    0.37500000000000   -0.08333333333333    0.12500000000000             2
   -0.37500000000000   -0.08333333333333    0.12500000000000             2
   -0.12500000000000   -0.08333333333333    0.12500000000000             2
    0.12500000000000    0.08333333333333    0.37500000000000             2
    0.37500000000000    0.08333333333333    0.37500000000000             2
   -0.37500000000000    0.08333333333333    0.37500000000000             2
   -0.12500000000000    0.08333333333333    0.37500000000000             2
    0.12500000000000    0.25000000000000    0.37500000000000             2
    0.37500000000000    0.25000000000000    0.37500000000000             2
   -0.37500000000000    0.25000000000000    0.37500000000000             2
   -0.12500000000000    0.25000000000000    0.37500000000000             2
    0.12500000000000    0.41666666666667    0.37500000000000             2
    0.37500000000000    0.41666666666667    0.37500000000000             2
   -0.37500000000000    0.41666666666667    0.37500000000000             2
   -0.12500000000000    0.41666666666667    0.37500000000000             2
    0.12500000000000   -0.41666666666667    0.37500000000000             2
    0.37500000000000   -0.41666666666667    0.37500000000000             2
   -0.37500000000000   -0.41666666666667    0.37500000000000             2
   -0.12500000000000   -0.41666666666667    0.37500000000000             2
    0.12500000000000   -0.25000000000000    0.37500000000000             2
    0.37500000000000   -0.25000000000000    0.37500000000000             2
   -0.37500000000000   -0.25000000000000    0.37500000000000             2
   -0.12500000000000   -0.25000000000000    0.37500000000000             2
    0.12500000000000   -0.08333333333333    0.37500000000000             2
    0.37500000000000   -0.08333333333333    0.37500000000000             2
   -0.37500000000000   -0.08333333333333    0.37500000000000             2
   -0.12500000000000   -0.08333333333333    0.37500000000000             2
Tetrahedra
       288    0.00173611111111
         2         2         5         6        29
         2         1         2         5        29
         2         1         2        25        29
         2         2         6        29        30
         2         2        26        29        30
         2         2        25        26        29
         2         3         6         7        30
         2         2         3         6        30
         2         2         3        26        30
         2         3         7        30        31
         2         3        27        30        31
         2         3        26        27        30
         2         4         7         8        31
         2         3         4         7        31
         2         3         4        27        31
         2         4         8        31        32
         2         4        28        31        32
         2         4        27        28        31
         2         1         5         8        32
         2         1         4         8        32
         2         1         4        28        32
         2         1         5        29        32
         2         1        25        29        32
         2         1        25        28        32
         2         6         9        10        33
         2         5         6         9        33
         2         5         6        29        33
         2         6        10        33        34
         2         6        30        33        34
         2         6        29        30        33
         2         7        10        11        34
         2         6         7        10        34
         2         6         7        30        34
         2         7        11        34        35
         2         7        31        34        35
         2         7        30        31        34
         2         8        11        12        35
         2         7         8        11        35
         2         7         8        31        35
         2         8        12        35        36
         2         8        32        35        36
         2         8        31        32        35
         2         5         9        12        36
         2         5         8        12        36
         2         5         8        32        36
         2         5         9        33        36
         2         5        29        33        36
         2         5        29        32        36
         2        10        13        14        37
         2         9        10        13        37
         2         9        10        33        37
         2        10        14        37        38
         2        10        34        37        38
         2        10        33        34        37
         2        11        14        15        38
         2        10        11        14        38
         2        10        11        34        38
         2        11        15        38        39
         2        11        35        38        39
         2        11        34        35        38
         2        12        15        16        39
         2        11        12        15        39
         2        11        12        35        39
         2        12        16        39        40
         2        12        36        39        40
         2        12        35        36        39
         2         9        13        16        40
         2         9        12        16        40
         2         9        12        36        40
         2         9        13        37        40
         2         9        33        37        40
         2         9        33        36        40
         2        14        17        18        41
         2        13        14        17        41
         2        13        14        37        41
         2        14        18        41        42
         2        14        38        41        42
         2        14        37        38        41
         2        15        18        19        42
         2        14        15        18        42
         2        14        15        38        42
         2        15        19        42        43
         2        15        39        42        43
         2        15        38        39        42
         2        16        19        20        43
         2        15        16        19        43
         2        15        16        39        43
         2        16        20        43        44
         2        16        40        43        44
         2        16        39        40        43
         2        13        17        20        44
         2        13        16        20        44
         2        13        16        40        44
         2        13        17        41        44
         2        13        37        41        44
         2        13        37        40        44
         2        18        21        22        45
         2        17        18        21        45
         2        17        18        41        45
         2        18        22        45        46
         2        18        42        45        46
         2        18        41        42        45
         2        19        22        23        46
         2        18        19        22        46
         2        18        19        42        46
         2        19        23        46        47
         2        19        43        46        47
         2        19        42        43        46
         2        20        23        24        47
         2        19        20        23        47
         2        19        20        43        47
         2        20        24        47        48
         2        20        44        47        48
         2        20        43        44        47
         2        17        21        24        48
         2        17        20        24        48
         2        17        20        44        48
         2        17        21        45        48
         2        17        41        45        48
         2        17        41        44        48
         2         1         2        22        25
         2         1        21        22        25
         2        21        22        25        45
         2         2        22        25        26
         2        22        25        26        46
         2        22        25        45        46
         2         2         3        23        26
         2         2        22        23        26
         2        22        23        26        46
         2         3        23        26        27
         2        23        26        27        47
         2        23        26        46        47
         2         3         4        24        27
         2         3        23        24        27
         2        23        24        27        47
         2         4        24        27        28
         2        24        27        28        48
         2        24        27        47        48
         2         1         4        21        28
         2         4        21        24        28
         2        21        24        28        48
         2         1        21        25        28
         2        21        25        28        45
         2        21        28        45        48
         2        26        29        30        44
         2        25        26        29        44
         2        25        26        44        48
         2        26        30        43        44
         2        26        43        44        47
         2        26        44        47        48
         2        27        30        31        43
         2        26        27        30        43
         2        26        27        43        47
         2        27        31        42        43
         2        27        42        43        46
         2        27        43        46        47
         2        28        31        32        42
         2        27        28        31        42
         2        27        28        42        46
         2        28        32        41        42
         2        28        41        42        45
         2        28        42        45        46
         2        25        29        32        41
         2        25        28        32        41
         2        25        28        41        45
         2        25        29        41        44
         2        25        41        44        48
         2        25        41        45        48
         2        30        33        34        40
         2        29        30        33        40
         2        29        30        40        44
         2        30        34        39        40
         2        30        39        40        43
         2        30        40        43        44
         2        31        34        35        39
         2        30        31        34        39
         2        30        31        39        43
         2        31        35        38        39
         2        31        38        39        42
         2        31        39        42        43
         2        32        35        36        38
         2        31        32        35        38
         2        31        32        38        42
         2        32        36        37        38
         2        32        37        38        41
         2        32        38        41        42
         2        29        33        36        37
         2        29        32        36        37
         2        29        32        37        41
         2        29        33        37        40
         2        29        37        40        44
         2        29        37        41        44
         2        34        36        37        38
         2        33        34        36        37
         2        33        34        36        40
         2        34        35        36        38
         2        34        35        36        39
         2        34        36        39        40
         2        35        35        38        39
         2        34        35        35        38
         2        34        35        35        39
         2        33        33        37        40
         2        33        33        36        40
         2        33        33        36        37
         2        25        26        46        48
         2        25        45        46        48
         2        28        45        46        48
         2        26        46        47        48
         2        27        46        47        48
         2        27        28        46        48
         2        26        27        47        47
         2        26        46        47        47
         2        27        46        47        47
         2        25        28        45        45
         2        28        45        45        48
         2        25        45        45        48
         2         5        19        20        23
         2         5        20        23        24
         2         1         5        23        24
         2         5         6        19        23
         2         2         5         6        23
         2         1         2         5        23
         2         6        18        19        22
         2         6        19        22        23
         2         2         6        22        23
         2         6         7        18        22
         2         3         6         7        22
         2         2         3         6        22
         2         7        17        18        21
         2         7        18        21        22
         2         3         7        21        22
         2         7         8        17        21
         2         4         7         8        21
         2         3         4         7        21
         2         8        17        20        24
         2         8        17        21        24
         2         4         8        21        24
         2         5         8        20        24
         2         1         5         8        24
         2         1         4         8        24
         2         9        15        16        19
         2         9        16        19        20
         2         5         9        19        20
         2         9        10        15        19
         2         6         9        10        19
         2         5         6         9        19
         2        10        14        15        18
         2        10        15        18        19
         2         6        10        18        19
         2        10        11        14        18
         2         7        10        11        18
         2         6         7        10        18
         2        11        13        14        17
         2        11        14        17        18
         2         7        11        17        18
         2        11        12        13        17
         2         8        11        12        17
         2         7         8        11        17
         2        12        13        16        20
         2        12        13        17        20
         2         8        12        17        20
         2         9        12        16        20
         2         5         9        12        20
         2         5         8        12        20
         2        11        12        13        15
         2        12        13        15        16
         2         9        13        15        16
         2        11        13        14        15
         2        10        13        14        15
         2         9        10        13        15
         2        10        11        14        14
         2        11        14        14        15
         2        10        14        14        15
         2         9        12        16        16
         2         9        13        16        16
         2        12        13        16        16
         2         1         3        23        24
         2         1         3         4        24
         2         1         3         4        21
         2         1         2         3        23
         2         1         2         3        22
         2         1         3        21        22
         2         2         2        22        23
         2         2         2         3        23
         2         2         2         3        22
         2         4         4        21        24
         2         1         4         4        21
         2         1         4         4        24
