Automatically generated mesh
      74
Reciprocal lattice
    0.00000000000000    0.00000000000000    0.00000000000000             1
    0.11111111111111    0.00000000000000    0.00000000000000             2
    0.22222222222222    0.00000000000000    0.00000000000000             2
    0.33333333333333    0.00000000000000    0.00000000000000             2
    0.44444444444445    0.00000000000000    0.00000000000000             2
    0.00000000000000    0.25000000000000    0.00000000000000             2
    0.11111111111111    0.25000000000000    0.00000000000000             2
    0.22222222222222    0.25000000000000    0.00000000000000             2
    0.33333333333333    0.25000000000000    0.00000000000000             2
    0.44444444444445    0.25000000000000    0.00000000000000             2
   -0.44444444444444    0.25000000000000    0.00000000000000             2
   -0.33333333333333    0.25000000000000    0.00000000000000             2
   -0.22222222222222    0.25000000000000    0.00000000000000             2
   -0.11111111111111    0.25000000000000    0.00000000000000             2
    0.00000000000000    0.50000000000000    0.00000000000000             1
    0.11111111111111    0.50000000000000    0.00000000000000             2
    0.22222222222222    0.50000000000000    0.00000000000000             2
    0.33333333333333    0.50000000000000    0.00000000000000             2
    0.44444444444444    0.50000000000000    0.00000000000000             2
    0.00000000000000    0.00000000000000    0.25000000000000             2
    0.11111111111111    0.00000000000000    0.25000000000000             2
    0.22222222222222    0.00000000000000    0.25000000000000             2
    0.33333333333333    0.00000000000000    0.25000000000000             2
    0.44444444444445    0.00000000000000    0.25000000000000             2
   -0.44444444444444    0.00000000000000    0.25000000000000             2
   -0.33333333333333    0.00000000000000    0.25000000000000             2
   -0.22222222222222    0.00000000000000    0.25000000000000             2
   -0.11111111111111    0.00000000000000    0.25000000000000             2
    0.00000000000000    0.25000000000000    0.25000000000000             2
    0.11111111111111    0.25000000000000    0.25000000000000             2
    0.22222222222222    0.25000000000000    0.25000000000000             2
    0.33333333333333    0.25000000000000    0.25000000000000             2
    0.44444444444445    0.25000000000000    0.25000000000000             2
   -0.44444444444444    0.25000000000000    0.25000000000000             2
   -0.33333333333333    0.25000000000000    0.25000000000000             2
   -0.22222222222222    0.25000000000000    0.25000000000000             2
   -0.11111111111111    0.25000000000000    0.25000000000000             2
    0.00000000000000    0.50000000000000    0.25000000000000             2
    0.11111111111111    0.50000000000000    0.25000000000000             2
    0.22222222222222    0.50000000000000    0.25000000000000             2
    0.33333333333333    0.50000000000000    0.25000000000000             2
    0.44444444444445    0.50000000000000    0.25000000000000             2
   -0.44444444444444    0.50000000000000    0.25000000000000             2
   -0.33333333333333    0.50000000000000    0.25000000000000             2
   -0.22222222222222    0.50000000000000    0.25000000000000             2
   -0.11111111111111    0.50000000000000    0.25000000000000             2
    0.00000000000000   -0.25000000000000    0.25000000000000             2
    0.11111111111111   -0.25000000000000    0.25000000000000             2
    0.22222222222222   -0.25000000000000    0.25000000000000             2
    0.33333333333333   -0.25000000000000    0.25000000000000             2
    0.44444444444445   -0.25000000000000    0.25000000000000             2
   -0.44444444444444   -0.25000000000000    0.25000000000000             2
   -0.33333333333333   -0.25000000000000    0.25000000000000             2
   -0.22222222222222   -0.25000000000000    0.25000000000000             2
   -0.11111111111111   -0.25000000000000    0.25000000000000             2
    0.00000000000000    0.00000000000000    0.50000000000000             1
    0.11111111111111    0.00000000000000    0.50000000000000             2
    0.22222222222222    0.00000000000000    0.50000000000000             2
    0.33333333333333    0.00000000000000    0.50000000000000             2
    0.44444444444445    0.00000000000000    0.50000000000000             2
    0.00000000000000    0.25000000000000    0.50000000000000             2
    0.11111111111111    0.25000000000000    0.50000000000000             2
    0.22222222222222    0.25000000000000    0.50000000000000             2
    0.33333333333333    0.25000000000000    0.50000000000000             2
    0.44444444444445    0.25000000000000    0.50000000000000             2
   -0.44444444444444    0.25000000000000    0.50000000000000             2
   -0.33333333333333    0.25000000000000    0.50000000000000             2
   -0.22222222222222    0.25000000000000    0.50000000000000             2
   -0.11111111111111    0.25000000000000    0.50000000000000             2
    0.00000000000000    0.50000000000000    0.50000000000000             1
    0.11111111111111    0.50000000000000    0.50000000000000             2
    0.22222222222222    0.50000000000000    0.50000000000000             2
    0.33333333333333    0.50000000000000    0.50000000000000             2
    0.44444444444445    0.50000000000000    0.50000000000000             2
Tetrahedra
       432    0.00115740740741
         2         1         6         7        30
         2         1         2         7        30
         2         1         2        21        30
         2         1         6        29        30
         2         1        20        29        30
         2         1        20        21        30
         2         2         7         8        31
         2         2         3         8        31
         2         2         3        22        31
         2         2         7        30        31
         2         2        21        30        31
         2         2        21        22        31
         2         3         8         9        32
         2         3         4         9        32
         2         3         4        23        32
         2         3         8        31        32
         2         3        22        31        32
         2         3        22        23        32
         2         4         9        10        33
         2         4         5        10        33
         2         4         5        24        33
         2         4         9        32        33
         2         4        23        32        33
         2         4        23        24        33
         2         5        10        11        34
         2         5         5        11        34
         2         5         5        25        34
         2         5        10        33        34
         2         5        24        33        34
         2         5        24        25        34
         2         5        11        12        35
         2         4         5        12        35
         2         4         5        26        35
         2         5        11        34        35
         2         5        25        34        35
         2         5        25        26        35
         2         4        12        13        36
         2         3         4        13        36
         2         3         4        27        36
         2         4        12        35        36
         2         4        26        35        36
         2         4        26        27        36
         2         3        13        14        37
         2         2         3        14        37
         2         2         3        28        37
         2         3        13        36        37
         2         3        27        36        37
         2         3        27        28        37
         2         2         6        14        29
         2         1         2         6        29
         2         1         2        20        29
         2         2        14        29        37
         2         2        28        29        37
         2         2        20        28        29
         2         6        15        16        39
         2         6         7        16        39
         2         6         7        30        39
         2         6        15        38        39
         2         6        29        38        39
         2         6        29        30        39
         2         7        16        17        40
         2         7         8        17        40
         2         7         8        31        40
         2         7        16        39        40
         2         7        30        39        40
         2         7        30        31        40
         2         8        17        18        41
         2         8         9        18        41
         2         8         9        32        41
         2         8        17        40        41
         2         8        31        40        41
         2         8        31        32        41
         2         9        18        19        42
         2         9        10        19        42
         2         9        10        33        42
         2         9        18        41        42
         2         9        32        41        42
         2         9        32        33        42
         2        10        19        19        43
         2        10        11        19        43
         2        10        11        34        43
         2        10        19        42        43
         2        10        33        42        43
         2        10        33        34        43
         2        11        18        19        44
         2        11        12        18        44
         2        11        12        35        44
         2        11        19        43        44
         2        11        34        43        44
         2        11        34        35        44
         2        12        17        18        45
         2        12        13        17        45
         2        12        13        36        45
         2        12        18        44        45
         2        12        35        44        45
         2        12        35        36        45
         2        13        16        17        46
         2        13        14        16        46
         2        13        14        37        46
         2        13        17        45        46
         2        13        36        45        46
         2        13        36        37        46
         2        14        15        16        38
         2         6        14        15        38
         2         6        14        29        38
         2        14        16        38        46
         2        14        37        38        46
         2        14        29        37        38
         2         6        14        15        48
         2        14        15        16        48
         2        15        16        39        48
         2         6        15        47        48
         2        15        38        47        48
         2        15        38        39        48
         2        13        14        16        49
         2        13        16        17        49
         2        16        17        40        49
         2        14        16        48        49
         2        16        39        48        49
         2        16        39        40        49
         2        12        13        17        50
         2        12        17        18        50
         2        17        18        41        50
         2        13        17        49        50
         2        17        40        49        50
         2        17        40        41        50
         2        11        12        18        51
         2        11        18        19        51
         2        18        19        42        51
         2        12        18        50        51
         2        18        41        50        51
         2        18        41        42        51
         2        10        11        19        52
         2        10        19        19        52
         2        19        19        43        52
         2        11        19        51        52
         2        19        42        51        52
         2        19        42        43        52
         2         9        10        19        53
         2         9        18        19        53
         2        18        19        44        53
         2        10        19        52        53
         2        19        43        52        53
         2        19        43        44        53
         2         8         9        18        54
         2         8        17        18        54
         2        17        18        45        54
         2         9        18        53        54
         2        18        44        53        54
         2        18        44        45        54
         2         7         8        17        55
         2         7        16        17        55
         2        16        17        46        55
         2         8        17        54        55
         2        17        45        54        55
         2        17        45        46        55
         2         6         7        16        47
         2         6        15        16        47
         2        15        16        38        47
         2         7        16        47        55
         2        16        46        47        55
         2        16        38        46        47
         2         1         2         6        21
         2         2         6        14        21
         2         6        14        21        48
         2         1         6        20        21
         2         6        20        21        47
         2         6        21        47        48
         2         2         3        14        22
         2         3        13        14        22
         2        13        14        22        49
         2         2        14        21        22
         2        14        21        22        48
         2        14        22        48        49
         2         3         4        13        23
         2         4        12        13        23
         2        12        13        23        50
         2         3        13        22        23
         2        13        22        23        49
         2        13        23        49        50
         2         4         5        12        24
         2         5        11        12        24
         2        11        12        24        51
         2         4        12        23        24
         2        12        23        24        50
         2        12        24        50        51
         2         5         5        11        25
         2         5        10        11        25
         2        10        11        25        52
         2         5        11        24        25
         2        11        24        25        51
         2        11        25        51        52
         2         4         5        10        26
         2         4         9        10        26
         2         9        10        26        53
         2         5        10        25        26
         2        10        25        26        52
         2        10        26        52        53
         2         3         4         9        27
         2         3         8         9        27
         2         8         9        27        54
         2         4         9        26        27
         2         9        26        27        53
         2         9        27        53        54
         2         2         3         8        28
         2         2         7         8        28
         2         7         8        28        55
         2         3         8        27        28
         2         8        27        28        54
         2         8        28        54        55
         2         1         2         7        20
         2         1         6         7        20
         2         6         7        20        47
         2         2         7        20        28
         2         7        20        28        55
         2         7        20        47        55
         2        20        29        30        62
         2        20        21        30        62
         2        20        21        57        62
         2        20        29        61        62
         2        20        56        61        62
         2        20        56        57        62
         2        21        30        31        63
         2        21        22        31        63
         2        21        22        58        63
         2        21        30        62        63
         2        21        57        62        63
         2        21        57        58        63
         2        22        31        32        64
         2        22        23        32        64
         2        22        23        59        64
         2        22        31        63        64
         2        22        58        63        64
         2        22        58        59        64
         2        23        32        33        65
         2        23        24        33        65
         2        23        24        60        65
         2        23        32        64        65
         2        23        59        64        65
         2        23        59        60        65
         2        24        33        34        66
         2        24        25        34        66
         2        24        25        60        66
         2        24        33        65        66
         2        24        60        65        66
         2        24        60        60        66
         2        25        34        35        67
         2        25        26        35        67
         2        25        26        59        67
         2        25        34        66        67
         2        25        60        66        67
         2        25        59        60        67
         2        26        35        36        68
         2        26        27        36        68
         2        26        27        58        68
         2        26        35        67        68
         2        26        59        67        68
         2        26        58        59        68
         2        27        36        37        69
         2        27        28        37        69
         2        27        28        57        69
         2        27        36        68        69
         2        27        58        68        69
         2        27        57        58        69
         2        28        29        37        61
         2        20        28        29        61
         2        20        28        56        61
         2        28        37        61        69
         2        28        57        61        69
         2        28        56        57        61
         2        29        38        39        71
         2        29        30        39        71
         2        29        30        62        71
         2        29        38        70        71
         2        29        61        70        71
         2        29        61        62        71
         2        30        39        40        72
         2        30        31        40        72
         2        30        31        63        72
         2        30        39        71        72
         2        30        62        71        72
         2        30        62        63        72
         2        31        40        41        73
         2        31        32        41        73
         2        31        32        64        73
         2        31        40        72        73
         2        31        63        72        73
         2        31        63        64        73
         2        32        41        42        74
         2        32        33        42        74
         2        32        33        65        74
         2        32        41        73        74
         2        32        64        73        74
         2        32        64        65        74
         2        33        42        43        74
         2        33        34        43        74
         2        33        34        66        74
         2        33        42        74        74
         2        33        65        74        74
         2        33        65        66        74
         2        34        43        44        73
         2        34        35        44        73
         2        34        35        67        73
         2        34        43        73        74
         2        34        66        73        74
         2        34        66        67        73
         2        35        44        45        72
         2        35        36        45        72
         2        35        36        68        72
         2        35        44        72        73
         2        35        67        72        73
         2        35        67        68        72
         2        36        45        46        71
         2        36        37        46        71
         2        36        37        69        71
         2        36        45        71        72
         2        36        68        71        72
         2        36        68        69        71
         2        37        38        46        70
         2        29        37        38        70
         2        29        37        61        70
         2        37        46        70        71
         2        37        69        70        71
         2        37        61        69        70
         2        38        47        48        69
         2        38        39        48        69
         2        38        39        69        71
         2        38        47        61        69
         2        38        61        69        70
         2        38        69        70        71
         2        39        48        49        68
         2        39        40        49        68
         2        39        40        68        72
         2        39        48        68        69
         2        39        68        69        71
         2        39        68        71        72
         2        40        49        50        67
         2        40        41        50        67
         2        40        41        67        73
         2        40        49        67        68
         2        40        67        68        72
         2        40        67        72        73
         2        41        50        51        66
         2        41        42        51        66
         2        41        42        66        74
         2        41        50        66        67
         2        41        66        67        73
         2        41        66        73        74
         2        42        51        52        65
         2        42        43        52        65
         2        42        43        65        74
         2        42        51        65        66
         2        42        65        66        74
         2        42        65        74        74
         2        43        52        53        64
         2        43        44        53        64
         2        43        44        64        73
         2        43        52        64        65
         2        43        64        65        74
         2        43        64        73        74
         2        44        53        54        63
         2        44        45        54        63
         2        44        45        63        72
         2        44        53        63        64
         2        44        63        64        73
         2        44        63        72        73
         2        45        54        55        62
         2        45        46        55        62
         2        45        46        62        71
         2        45        54        62        63
         2        45        62        63        72
         2        45        62        71        72
         2        46        47        55        61
         2        38        46        47        61
         2        38        46        61        70
         2        46        55        61        62
         2        46        61        62        71
         2        46        61        70        71
         2        20        21        47        57
         2        21        47        48        57
         2        47        48        57        69
         2        20        47        56        57
         2        47        56        57        61
         2        47        57        61        69
         2        21        22        48        58
         2        22        48        49        58
         2        48        49        58        68
         2        21        48        57        58
         2        48        57        58        69
         2        48        58        68        69
         2        22        23        49        59
         2        23        49        50        59
         2        49        50        59        67
         2        22        49        58        59
         2        49        58        59        68
         2        49        59        67        68
         2        23        24        50        60
         2        24        50        51        60
         2        50        51        60        66
         2        23        50        59        60
         2        50        59        60        67
         2        50        60        66        67
         2        24        25        51        60
         2        25        51        52        60
         2        51        52        60        65
         2        24        51        60        60
         2        51        60        60        66
         2        51        60        65        66
         2        25        26        52        59
         2        26        52        53        59
         2        52        53        59        64
         2        25        52        59        60
         2        52        59        60        65
         2        52        59        64        65
         2        26        27        53        58
         2        27        53        54        58
         2        53        54        58        63
         2        26        53        58        59
         2        53        58        59        64
         2        53        58        63        64
         2        27        28        54        57
         2        28        54        55        57
         2        54        55        57        62
         2        27        54        57        58
         2        54        57        58        63
         2        54        57        62        63
         2        20        28        55        56
         2        20        47        55        56
         2        47        55        56        61
         2        28        55        56        57
         2        55        56        57        62
         2        55        56        61        62
