  16  16   0   0
  0.7410595E+01  0.4260051E-09  0.5120269E-09  0.5785864E-09  0.5000000E-15
  1.000000000000000E-004
  CAR 
 unknown system                          
     10.32856242    -35.87925419  301      1.45664802      1.00000000
    -35.879  0.0000E+00  0.0000E+00
    -35.725  0.0000E+00  0.0000E+00
    -35.571  0.0000E+00  0.0000E+00
    -35.417  0.0000E+00  0.0000E+00
    -35.263  0.0000E+00  0.0000E+00
    -35.109  0.0000E+00  0.0000E+00
    -34.955  0.0000E+00  0.0000E+00
    -34.801  0.0000E+00  0.0000E+00
    -34.647  0.2123E-31  0.3270E-32
    -34.493  0.4820E-21  0.7425E-22
    -34.339  0.8126E-13  0.1252E-13
    -34.185  0.8865E-07  0.1365E-07
    -34.031  0.3794E-03  0.5845E-04
    -33.877 -0.1131E-01 -0.1684E-02
    -33.723  0.2171E+00  0.3175E-01
    -33.569  0.9196E-02  0.3317E-01
    -33.415  0.1050E-02  0.3333E-01
    -33.261  0.2402E-05  0.3333E-01
    -33.107  0.1156E-10  0.3333E-01
    -32.953  0.0000E+00  0.3333E-01
    -32.799  0.0000E+00  0.3333E-01
    -32.645  0.0000E+00  0.3333E-01
    -32.491  0.0000E+00  0.3333E-01
    -32.337  0.0000E+00  0.3333E-01
    -32.183  0.0000E+00  0.3333E-01
    -32.029  0.0000E+00  0.3333E-01
    -31.875  0.0000E+00  0.3333E-01
    -31.721  0.0000E+00  0.3333E-01
    -31.567  0.0000E+00  0.3333E-01
    -31.412  0.0000E+00  0.3333E-01
    -31.258  0.0000E+00  0.3333E-01
    -31.104  0.0000E+00  0.3333E-01
    -30.950  0.0000E+00  0.3333E-01
    -30.796  0.0000E+00  0.3333E-01
    -30.642  0.0000E+00  0.3333E-01
    -30.488  0.1099E-36  0.3333E-01
    -30.334  0.2089E-25  0.3333E-01
    -30.180  0.3074E-16  0.3333E-01
    -30.026  0.3225E-09  0.3333E-01
    -29.872  0.1912E-04  0.3334E-01
    -29.718  0.8965E-03  0.3347E-01
    -29.564  0.5736E-01  0.4231E-01
    -29.410  0.5225E+00  0.1228E+00
    -29.256  0.6806E-01  0.1333E+00
    -29.102  0.4074E-03  0.1333E+00
    -28.948  0.2497E-04  0.1333E+00
    -28.794  0.4939E-09  0.1333E+00
    -28.640  0.4805E-16  0.1333E+00
    -28.486  0.0000E+00  0.1333E+00
    -28.332  0.0000E+00  0.1333E+00
    -28.178  0.0000E+00  0.1333E+00
    -28.024  0.0000E+00  0.1333E+00
    -27.870  0.0000E+00  0.1333E+00
    -27.716  0.0000E+00  0.1333E+00
    -27.562  0.0000E+00  0.1333E+00
    -27.408  0.0000E+00  0.1333E+00
    -27.254  0.0000E+00  0.1333E+00
    -27.100  0.0000E+00  0.1333E+00
    -26.946  0.0000E+00  0.1333E+00
    -26.792  0.0000E+00  0.1333E+00
    -26.638  0.0000E+00  0.1333E+00
    -26.484  0.0000E+00  0.1333E+00
    -26.330  0.0000E+00  0.1333E+00
    -26.176  0.0000E+00  0.1333E+00
    -26.022  0.0000E+00  0.1333E+00
    -25.868  0.0000E+00  0.1333E+00
    -25.714  0.0000E+00  0.1333E+00
    -25.560  0.0000E+00  0.1333E+00
    -25.405  0.0000E+00  0.1333E+00
    -25.251  0.0000E+00  0.1333E+00
    -25.097  0.0000E+00  0.1333E+00
    -24.943  0.0000E+00  0.1333E+00
    -24.789  0.0000E+00  0.1333E+00
    -24.635  0.0000E+00  0.1333E+00
    -24.481  0.0000E+00  0.1333E+00
    -24.327  0.0000E+00  0.1333E+00
    -24.173  0.0000E+00  0.1333E+00
    -24.019  0.0000E+00  0.1333E+00
    -23.865  0.0000E+00  0.1333E+00
    -23.711  0.0000E+00  0.1333E+00
    -23.557  0.0000E+00  0.1333E+00
    -23.403  0.0000E+00  0.1333E+00
    -23.249  0.0000E+00  0.1333E+00
    -23.095  0.0000E+00  0.1333E+00
    -22.941  0.0000E+00  0.1333E+00
    -22.787  0.0000E+00  0.1333E+00
    -22.633  0.0000E+00  0.1333E+00
    -22.479  0.0000E+00  0.1333E+00
    -22.325  0.0000E+00  0.1333E+00
    -22.171  0.0000E+00  0.1333E+00
    -22.017  0.0000E+00  0.1333E+00
    -21.863  0.0000E+00  0.1333E+00
    -21.709  0.0000E+00  0.1333E+00
    -21.555  0.0000E+00  0.1333E+00
    -21.401  0.0000E+00  0.1333E+00
    -21.247  0.0000E+00  0.1333E+00
    -21.093  0.0000E+00  0.1333E+00
    -20.939  0.0000E+00  0.1333E+00
    -20.785  0.0000E+00  0.1333E+00
    -20.631  0.0000E+00  0.1333E+00
    -20.477  0.0000E+00  0.1333E+00
    -20.323  0.0000E+00  0.1333E+00
    -20.169  0.0000E+00  0.1333E+00
    -20.015  0.0000E+00  0.1333E+00
    -19.861  0.0000E+00  0.1333E+00
    -19.707  0.0000E+00  0.1333E+00
    -19.552  0.0000E+00  0.1333E+00
    -19.398  0.0000E+00  0.1333E+00
    -19.244  0.0000E+00  0.1333E+00
    -19.090  0.0000E+00  0.1333E+00
    -18.936  0.0000E+00  0.1333E+00
    -18.782  0.0000E+00  0.1333E+00
    -18.628  0.0000E+00  0.1333E+00
    -18.474  0.0000E+00  0.1333E+00
    -18.320  0.0000E+00  0.1333E+00
    -18.166  0.0000E+00  0.1333E+00
    -18.012  0.0000E+00  0.1333E+00
    -17.858  0.0000E+00  0.1333E+00
    -17.704  0.0000E+00  0.1333E+00
    -17.550  0.0000E+00  0.1333E+00
    -17.396  0.0000E+00  0.1333E+00
    -17.242  0.0000E+00  0.1333E+00
    -17.088  0.0000E+00  0.1333E+00
    -16.934  0.4432E-39  0.1333E+00
    -16.780  0.2639E-27  0.1333E+00
    -16.626  0.6919E-18  0.1333E+00
    -16.472  0.1357E-10  0.1333E+00
    -16.318  0.1675E-05  0.1333E+00
    -16.164  0.6281E-03  0.1334E+00
    -16.010 -0.2474E-02  0.1330E+00
    -15.856  0.3932E+00  0.1936E+00
    -15.702  0.2643E+00  0.2343E+00
    -15.548 -0.6554E-02  0.2333E+00
    -15.394  0.1810E-03  0.2333E+00
    -15.240  0.1547E-07  0.2333E+00
    -15.086  0.7198E-14  0.2333E+00
    -14.932  0.0000E+00  0.2333E+00
    -14.778  0.0000E+00  0.2333E+00
    -14.624  0.0000E+00  0.2333E+00
    -14.470  0.0000E+00  0.2333E+00
    -14.316  0.0000E+00  0.2333E+00
    -14.162  0.0000E+00  0.2333E+00
    -14.008  0.0000E+00  0.2333E+00
    -13.854  0.0000E+00  0.2333E+00
    -13.700  0.0000E+00  0.2333E+00
    -13.545  0.0000E+00  0.2333E+00
    -13.391  0.0000E+00  0.2333E+00
    -13.237  0.0000E+00  0.2333E+00
    -13.083  0.0000E+00  0.2333E+00
    -12.929  0.0000E+00  0.2333E+00
    -12.775  0.0000E+00  0.2333E+00
    -12.621  0.0000E+00  0.2333E+00
    -12.467  0.0000E+00  0.2333E+00
    -12.313  0.0000E+00  0.2333E+00
    -12.159  0.0000E+00  0.2333E+00
    -12.005  0.0000E+00  0.2333E+00
    -11.851  0.0000E+00  0.2333E+00
    -11.697  0.0000E+00  0.2333E+00
    -11.543  0.0000E+00  0.2333E+00
    -11.389  0.0000E+00  0.2333E+00
    -11.235  0.0000E+00  0.2333E+00
    -11.081  0.0000E+00  0.2333E+00
    -10.927  0.0000E+00  0.2333E+00
    -10.773  0.0000E+00  0.2333E+00
    -10.619  0.0000E+00  0.2333E+00
    -10.465  0.0000E+00  0.2333E+00
    -10.311  0.0000E+00  0.2333E+00
    -10.157  0.0000E+00  0.2333E+00
    -10.003  0.1637E-34  0.2333E+00
     -9.849  0.4385E-24  0.2333E+00
     -9.695  0.8714E-16  0.2333E+00
     -9.541  0.1135E-09  0.2333E+00
     -9.387  0.7098E-06  0.2333E+00
     -9.233 -0.8562E-06  0.2333E+00
     -9.079  0.7573E-03  0.2334E+00
     -8.925  0.7326E-02  0.2346E+00
     -8.771  0.1293E-01  0.2366E+00
     -8.617  0.1704E-01  0.2392E+00
     -8.463  0.2885E-01  0.2436E+00
     -8.309  0.3328E-01  0.2488E+00
     -8.155  0.2935E-01  0.2533E+00
     -8.001  0.2696E-01  0.2574E+00
     -7.847  0.2659E-01  0.2615E+00
     -7.692  0.2489E-01  0.2654E+00
     -7.538  0.8645E-02  0.2667E+00
     -7.384 -0.2714E-03  0.2667E+00
     -7.230  0.2184E-02  0.2670E+00
     -7.076  0.2112E-01  0.2702E+00
     -6.922  0.5949E-01  0.2794E+00
     -6.768  0.7915E-01  0.2916E+00
     -6.614  0.4042E-01  0.2978E+00
     -6.460  0.7858E-01  0.3099E+00
     -6.306  0.1127E+00  0.3273E+00
     -6.152  0.3285E-01  0.3323E+00
     -5.998  0.6633E-02  0.3334E+00
     -5.844  0.5273E-03  0.3334E+00
     -5.690  0.4308E-01  0.3401E+00
     -5.536  0.8215E-01  0.3527E+00
     -5.382  0.9153E-01  0.3668E+00
     -5.228 -0.1279E-02  0.3666E+00
     -5.074  0.1860E-03  0.3667E+00
     -4.920  0.3899E-06  0.3667E+00
     -4.766  0.3436E-11  0.3667E+00
     -4.612  0.1287E-18  0.3667E+00
     -4.458  0.4054E-33  0.3667E+00
     -4.304  0.6380E-23  0.3667E+00
     -4.150  0.7915E-15  0.3667E+00
     -3.996  0.7495E-09  0.3667E+00
     -3.842  0.4780E-05  0.3667E+00
     -3.688 -0.6939E-04  0.3667E+00
     -3.534  0.5403E-02  0.3675E+00
     -3.380  0.4937E-01  0.3751E+00
     -3.226  0.7413E-01  0.3865E+00
     -3.072  0.7267E-01  0.3977E+00
     -2.918  0.2120E-01  0.4010E+00
     -2.764  0.1972E-01  0.4040E+00
     -2.610  0.4455E-01  0.4109E+00
     -2.456  0.6032E-01  0.4202E+00
     -2.302  0.3904E-01  0.4262E+00
     -2.148  0.4538E-01  0.4332E+00
     -1.994  0.7575E-01  0.4448E+00
     -1.839  0.1186E+00  0.4631E+00
     -1.685  0.1372E+00  0.4842E+00
     -1.531  0.8964E-01  0.4980E+00
     -1.377  0.9897E-01  0.5133E+00
     -1.223  0.9922E-01  0.5286E+00
     -1.069  0.5733E-01  0.5374E+00
     -0.915  0.6905E-01  0.5480E+00
     -0.761  0.6630E-01  0.5582E+00
     -0.607  0.4712E-01  0.5655E+00
     -0.453  0.7730E-02  0.5667E+00
     -0.299 -0.1497E-03  0.5667E+00
     -0.145  0.8660E-05  0.5667E+00
      0.009  0.3058E-08  0.5667E+00
      0.163  0.3113E-08  0.5667E+00
      0.317  0.5885E-05  0.5667E+00
      0.471 -0.8991E-04  0.5667E+00
      0.625  0.3629E-02  0.5672E+00
      0.779  0.1476E-01  0.5695E+00
      0.933  0.1822E-01  0.5723E+00
      1.087  0.2318E-01  0.5759E+00
      1.241  0.2118E-01  0.5791E+00
      1.395  0.2040E-01  0.5823E+00
      1.549  0.1775E-01  0.5850E+00
      1.703  0.2014E-01  0.5881E+00
      1.857  0.1928E-01  0.5911E+00
      2.011  0.2858E-01  0.5955E+00
      2.165  0.2656E-01  0.5996E+00
      2.319  0.2850E-02  0.6000E+00
      2.473 -0.4408E-04  0.6000E+00
      2.627  0.2621E-05  0.6000E+00
      2.781  0.3076E-09  0.6000E+00
      2.935  0.3071E-07  0.6000E+00
      3.089  0.2212E-04  0.6000E+00
      3.243 -0.2298E-03  0.6000E+00
      3.397  0.1420E-01  0.6022E+00
      3.551  0.3306E-01  0.6072E+00
      3.705  0.6655E-01  0.6175E+00
      3.859  0.6479E-01  0.6275E+00
      4.013  0.6711E-01  0.6378E+00
      4.168  0.4946E-01  0.6454E+00
      4.322  0.1054E+00  0.6617E+00
      4.476  0.7314E-01  0.6729E+00
      4.630  0.9002E-01  0.6868E+00
      4.784  0.6595E-01  0.6969E+00
      4.938  0.4530E-01  0.7039E+00
      5.092  0.9286E-01  0.7182E+00
      5.246  0.7873E-01  0.7304E+00
      5.400  0.2950E-01  0.7349E+00
      5.554  0.5173E-01  0.7429E+00
      5.708  0.1007E+00  0.7584E+00
      5.862  0.6942E-01  0.7691E+00
      6.016  0.5842E-01  0.7781E+00
      6.170  0.7605E-01  0.7898E+00
      6.324  0.7046E-01  0.8006E+00
      6.478  0.6389E-01  0.8105E+00
      6.632  0.8563E-01  0.8237E+00
      6.786  0.8771E-01  0.8372E+00
      6.940  0.7464E-01  0.8487E+00
      7.094  0.9673E-01  0.8636E+00
      7.248  0.8840E-01  0.8772E+00
      7.402  0.7941E-01  0.8894E+00
      7.556  0.6409E-01  0.8993E+00
      7.710  0.9178E-01  0.9134E+00
      7.864  0.8600E-01  0.9267E+00
      8.018  0.3152E-01  0.9315E+00
      8.172  0.9716E-02  0.9330E+00
      8.326  0.2058E-02  0.9333E+00
      8.480 -0.6436E-04  0.9333E+00
      8.634  0.2488E-05  0.9333E+00
      8.788  0.4684E-09  0.9333E+00
      8.942  0.4284E-15  0.9333E+00
      9.096  0.0000E+00  0.9333E+00
      9.250  0.0000E+00  0.9333E+00
      9.404  0.0000E+00  0.9333E+00
      9.558  0.0000E+00  0.9333E+00
      9.712  0.0000E+00  0.9333E+00
      9.866  0.0000E+00  0.9333E+00
     10.021  0.0000E+00  0.9333E+00
     10.175  0.0000E+00  0.9333E+00
     10.329  0.0000E+00  0.9333E+00
