       N       E                     dE             d eps       ncg     rms          rms(c)
DAV:   1     0.170115284423E+03    0.17012E+03   -0.13467E+04 13816   0.704E+02
DAV:   2    -0.421360669512E+02   -0.21225E+03   -0.20590E+03 17184   0.269E+02
DAV:   3    -0.563582703295E+02   -0.14222E+02   -0.14156E+02 20688   0.541E+01
DAV:   4    -0.572666437743E+02   -0.90837E+00   -0.90607E+00 23096   0.119E+01
DAV:   5    -0.572848759905E+02   -0.18232E-01   -0.18231E-01 20584   0.151E+00    0.412E+01
DAV:   6    -0.542601326761E+02    0.30247E+01   -0.64055E+00 20352   0.145E+01    0.181E+01
DAV:   7    -0.535414371081E+02    0.71870E+00   -0.18420E+00 20264   0.576E+00    0.903E+00
DAV:   8    -0.535142841140E+02    0.27153E-01   -0.55160E-01 21552   0.362E+00    0.254E+00
DAV:   9    -0.535123285017E+02    0.19556E-02   -0.55843E-02 17064   0.114E+00    0.521E-01
DAV:  10    -0.535128014016E+02   -0.47290E-03   -0.97777E-03 19744   0.455E-01    0.195E-01
DAV:  11    -0.535133123830E+02   -0.51098E-03   -0.67432E-04 16040   0.145E-01    0.792E-02
DAV:  12    -0.535135627481E+02   -0.25037E-03   -0.29835E-04 15344   0.856E-02    0.233E-02
DAV:  13    -0.535135755238E+02   -0.12776E-04   -0.30033E-05 11824   0.338E-02
   1 F= -.53513576E+02 E0= -.53513716E+02  d E =-.535136E+02
       N       E                     dE             d eps       ncg     rms          rms(c)
DAV:   1    -0.535134405712E+02    0.12218E-03   -0.11489E-01 15936   0.241E+00    0.197E-01
DAV:   2    -0.535144871583E+02   -0.10466E-02   -0.13784E-02 16032   0.553E-01    0.101E-01
DAV:   3    -0.535144242586E+02    0.62900E-04   -0.25787E-04 18424   0.893E-02
   2 F= -.53514424E+02 E0= -.53514568E+02  d E =-.848735E-03
       N       E                     dE             d eps       ncg     rms          rms(c)
DAV:   1    -0.535144352814E+02    0.51877E-04   -0.34594E-03 17200   0.419E-01    0.384E-02
DAV:   2    -0.535144724849E+02   -0.37203E-04   -0.42983E-04 15376   0.101E-01
   3 F= -.53514472E+02 E0= -.53514616E+02  d E =-.896961E-03
