   25   25   99    2
  0.5581817E+01  0.4834446E-09  0.4793862E-09  0.6309734E-09  0.5000000E-15
  1.000000000000000E-004
  CAR 
 unknown system                          
     25     51     32
 
  0.3742002E-15  0.3742002E-15  0.3742002E-15  0.1000000E-01
    1      -11.800917    -11.800888   1.000000   1.000000
    2      -10.169143    -10.169115   1.000000   1.000000
    3       -9.132771     -9.132737   1.000000   1.000000
    4       -8.851006     -8.850980   1.000000   1.000000
    5       -8.539694     -8.539664   1.000000   1.000000
    6       -8.293953     -8.293922   1.000000   1.000000
    7       -7.850964     -7.850934   1.000000   1.000000
    8       -7.557191     -7.557163   1.000000   1.000000
    9       -7.377761     -7.377741   1.000000   1.000000
   10       -7.024411     -7.024392   1.000000   1.000000
   11       -6.819786     -6.819767   1.000000   1.000000
   12       -5.450419     -5.450401   1.000000   1.000000
   13       -5.324207     -5.324190   1.000000   1.000000
   14        1.332745      1.332811   0.000000   0.000000
   15        1.998811      1.998866   0.000000   0.000000
   16        2.435747      2.435792   0.000000   0.000000
   17        2.600741      2.600809   0.000000   0.000000
   18        2.940490      2.940529   0.000000   0.000000
   19        3.192955      3.193021   0.000000   0.000000
   20        3.539010      3.539061   0.000000   0.000000
   21        3.774649      3.774701   0.000000   0.000000
   22        4.419929      4.420018   0.000000   0.000000
   23        5.371169      5.371269   0.000000   0.000000
   24        5.724927      5.725013   0.000000   0.000000
   25        6.720312      6.720396   0.000000   0.000000
   26        7.145412      7.145477   0.000000   0.000000
   27        7.378095      7.378168   0.000000   0.000000
   28        7.906544      7.906591   0.000000   0.000000
   29        8.079459      8.079484   0.000000   0.000000
   30        8.348282      8.348339   0.000000   0.000000
   31        8.665036      8.665070   0.000000   0.000000
   32        9.583247      9.583274   0.000000   0.000000
 
  0.2000000E+00  0.3807718E-15  0.3677614E-15  0.2000000E-01
    1      -11.578551    -11.578522   1.000000   1.000000
    2       -9.996808     -9.996781   1.000000   1.000000
    3       -9.011879     -9.011847   1.000000   1.000000
    4       -8.703566     -8.703541   1.000000   1.000000
    5       -8.632022     -8.631992   1.000000   1.000000
    6       -8.419246     -8.419216   1.000000   1.000000
    7       -8.156919     -8.156889   1.000000   1.000000
    8       -7.861684     -7.861659   1.000000   1.000000
    9       -7.375195     -7.375170   1.000000   1.000000
   10       -7.209771     -7.209753   1.000000   1.000000
   11       -7.031663     -7.031645   1.000000   1.000000
   12       -6.931034     -6.931014   1.000000   1.000000
   13       -2.983324     -2.983306   0.802552   0.802547
   14        1.531350      1.531417   0.000000   0.000000
   15        2.315440      2.315497   0.000000   0.000000
   16        2.617546      2.617590   0.000000   0.000000
   17        2.860515      2.860571   0.000000   0.000000
   18        3.034489      3.034549   0.000000   0.000000
   19        3.359487      3.359526   0.000000   0.000000
   20        3.712518      3.712568   0.000000   0.000000
   21        4.109301      4.109381   0.000000   0.000000
   22        4.810838      4.810919   0.000000   0.000000
   23        5.180244      5.180333   0.000000   0.000000
   24        5.634659      5.634703   0.000000   0.000000
   25        6.018979      6.019036   0.000000   0.000000
   26        6.192929      6.193018   0.000000   0.000000
   27        7.129679      7.129725   0.000000   0.000000
   28        7.448147      7.448179   0.000000   0.000000
   29        7.677533      7.677603   0.000000   0.000000
   30        8.549671      8.549722   0.000000   0.000000
   31        9.136023      9.136037   0.000000   0.000000
   32        9.391162      9.391235   0.000000   0.000000
 
  0.4000000E+00  0.3768687E-15  0.3469447E-15  0.2000000E-01
    1      -10.921452    -10.921424   1.000000   1.000000
    2       -9.870164     -9.870135   1.000000   1.000000
    3       -9.494273     -9.494246   1.000000   1.000000
    4       -8.733665     -8.733638   1.000000   1.000000
    5       -8.627229     -8.627199   1.000000   1.000000
    6       -8.279832     -8.279805   1.000000   1.000000
    7       -8.160098     -8.160070   1.000000   1.000000
    8       -8.017265     -8.017238   1.000000   1.000000
    9       -7.813075     -7.813051   1.000000   1.000000
   10       -7.651422     -7.651401   1.000000   1.000000
   11       -7.536692     -7.536668   1.000000   1.000000
   12       -7.291065     -7.291041   1.000000   1.000000
   13       -0.035391     -0.035372  -0.053046  -0.053047
   14        2.103403      2.103470   0.000000   0.000000
   15        2.749257      2.749310   0.000000   0.000000
   16        2.941520      2.941588   0.000000   0.000000
   17        3.024629      3.024676   0.000000   0.000000
   18        3.364362      3.364406   0.000000   0.000000
   19        3.411898      3.411944   0.000000   0.000000
   20        3.545434      3.545474   0.000000   0.000000
   21        3.877342      3.877392   0.000000   0.000000
   22        4.270448      4.270511   0.000000   0.000000
   23        4.571396      4.571439   0.000000   0.000000
   24        5.217539      5.217611   0.000000   0.000000
   25        5.539586      5.539667   0.000000   0.000000
   26        6.500789      6.500826   0.000000   0.000000
   27        6.929556      6.929626   0.000000   0.000000
   28        7.487310      7.487390   0.000000   0.000000
   29        7.830660      7.830698   0.000000   0.000000
   30        8.086062      8.086120   0.000000   0.000000
   31        8.445231      8.445289   0.000000   0.000000
   32        8.996613      8.996673   0.000000   0.000000
 
  0.3764350E-15  0.2000000E+00  0.3677614E-15  0.2000000E-01
    1      -11.729588    -11.729561   1.000000   1.000000
    2      -10.153217    -10.153189   1.000000   1.000000
    3       -9.136606     -9.136573   1.000000   1.000000
    4       -9.011789     -9.011757   1.000000   1.000000
    5       -8.643062     -8.643035   1.000000   1.000000
    6       -8.214196     -8.214166   1.000000   1.000000
    7       -7.818046     -7.818016   1.000000   1.000000
    8       -7.503753     -7.503726   1.000000   1.000000
    9       -7.333427     -7.333407   1.000000   1.000000
   10       -7.101112     -7.101091   1.000000   1.000000
   11       -6.883864     -6.883844   1.000000   1.000000
   12       -5.440645     -5.440627   1.000000   1.000000
   13       -5.361519     -5.361501   1.000000   1.000000
   14        1.670738      1.670802   0.000000   0.000000
   15        2.121465      2.121522   0.000000   0.000000
   16        2.511651      2.511705   0.000000   0.000000
   17        2.535015      2.535058   0.000000   0.000000
   18        2.997478      2.997534   0.000000   0.000000
   19        3.404386      3.404455   0.000000   0.000000
   20        3.644359      3.644441   0.000000   0.000000
   21        3.884565      3.884598   0.000000   0.000000
   22        4.394977      4.395043   0.000000   0.000000
   23        4.970086      4.970161   0.000000   0.000000
   24        5.461320      5.461403   0.000000   0.000000
   25        6.842178      6.842267   0.000000   0.000000
   26        7.425495      7.425573   0.000000   0.000000
   27        7.609854      7.609904   0.000000   0.000000
   28        8.276618      8.276693   0.000000   0.000000
   29        8.559715      8.559770   0.000000   0.000000
   30        8.843039      8.843059   0.000000   0.000000
   31        8.936318      8.936368   0.000000   0.000000
   32        9.284297      9.284336   0.000000   0.000000
 
  0.2000000E+00  0.2000000E+00  0.3469447E-15  0.2000000E-01
    1      -11.485152    -11.485125   1.000000   1.000000
    2       -9.987422     -9.987394   1.000000   1.000000
    3       -9.101945     -9.101913   1.000000   1.000000
    4       -8.820874     -8.820844   1.000000   1.000000
    5       -8.665102     -8.665072   1.000000   1.000000
    6       -8.468059     -8.468033   1.000000   1.000000
    7       -8.110051     -8.110021   1.000000   1.000000
    8       -7.788605     -7.788579   1.000000   1.000000
    9       -7.380897     -7.380874   1.000000   1.000000
   10       -7.212510     -7.212490   1.000000   1.000000
   11       -7.049206     -7.049185   1.000000   1.000000
   12       -6.958955     -6.958938   1.000000   1.000000
   13       -2.989337     -2.989318   0.803317   0.803312
   14        1.899633      1.899698   0.000000   0.000000
   15        2.430491      2.430550   0.000000   0.000000
   16        2.711999      2.712040   0.000000   0.000000
   17        2.906302      2.906366   0.000000   0.000000
   18        2.961580      2.961638   0.000000   0.000000
   19        3.688917      3.688984   0.000000   0.000000
   20        3.833534      3.833592   0.000000   0.000000
   21        4.041976      4.042034   0.000000   0.000000
   22        4.687116      4.687177   0.000000   0.000000
   23        5.291569      5.291631   0.000000   0.000000
   24        5.629935      5.630005   0.000000   0.000000
   25        6.190711      6.190780   0.000000   0.000000
   26        6.592746      6.592815   0.000000   0.000000
   27        7.000517      7.000583   0.000000   0.000000
   28        7.363283      7.363304   0.000000   0.000000
   29        7.650312      7.650354   0.000000   0.000000
   30        8.423120      8.423149   0.000000   0.000000
   31        8.634741      8.634807   0.000000   0.000000
   32        9.040481      9.040539   0.000000   0.000000
 
  0.4000000E+00  0.2000000E+00  0.3608225E-15  0.2000000E-01
    1      -10.799885    -10.799858   1.000000   1.000000
    2       -9.865908     -9.865879   1.000000   1.000000
    3       -9.495110     -9.495082   1.000000   1.000000
    4       -8.797947     -8.797915   1.000000   1.000000
    5       -8.644789     -8.644763   1.000000   1.000000
    6       -8.388932     -8.388904   1.000000   1.000000
    7       -8.124193     -8.124165   1.000000   1.000000
    8       -8.019769     -8.019743   1.000000   1.000000
    9       -7.844039     -7.844013   1.000000   1.000000
   10       -7.739461     -7.739437   1.000000   1.000000
   11       -7.547339     -7.547314   1.000000   1.000000
   12       -7.285918     -7.285897   1.000000   1.000000
   13       -0.021925     -0.021906  -0.053239  -0.053241
   14        2.434826      2.434889   0.000000   0.000000
   15        2.850875      2.850929   0.000000   0.000000
   16        3.003589      3.003663   0.000000   0.000000
   17        3.152652      3.152691   0.000000   0.000000
   18        3.450684      3.450720   0.000000   0.000000
   19        3.516286      3.516351   0.000000   0.000000
   20        3.781531      3.781571   0.000000   0.000000
   21        3.870023      3.870063   0.000000   0.000000
   22        4.421238      4.421293   0.000000   0.000000
   23        4.576307      4.576361   0.000000   0.000000
   24        5.579570      5.579644   0.000000   0.000000
   25        5.706935      5.707016   0.000000   0.000000
   26        6.483963      6.483985   0.000000   0.000000
   27        6.918592      6.918664   0.000000   0.000000
   28        7.303281      7.303360   0.000000   0.000000
   29        7.478259      7.478288   0.000000   0.000000
   30        7.767373      7.767444   0.000000   0.000000
   31        8.095080      8.095139   0.000000   0.000000
   32        8.815328      8.815383   0.000000   0.000000
 
 -0.4000000E+00  0.2000000E+00  0.4163336E-15  0.2000000E-01
    1      -10.891788    -10.891760   1.000000   1.000000
    2       -9.703515     -9.703488   1.000000   1.000000
    3       -9.455704     -9.455677   1.000000   1.000000
    4       -8.764278     -8.764251   1.000000   1.000000
    5       -8.584144     -8.584115   1.000000   1.000000
    6       -8.408849     -8.408818   1.000000   1.000000
    7       -8.273922     -8.273891   1.000000   1.000000
    8       -8.141614     -8.141589   1.000000   1.000000
    9       -7.781016     -7.780990   1.000000   1.000000
   10       -7.687750     -7.687729   1.000000   1.000000
   11       -7.537489     -7.537465   1.000000   1.000000
   12       -7.345332     -7.345306   1.000000   1.000000
   13       -0.047147     -0.047127  -0.052488  -0.052490
   14        2.305810      2.305875   0.000000   0.000000
   15        2.893959      2.894007   0.000000   0.000000
   16        3.095743      3.095794   0.000000   0.000000
   17        3.304037      3.304084   0.000000   0.000000
   18        3.413536      3.413559   0.000000   0.000000
   19        3.562341      3.562410   0.000000   0.000000
   20        3.671847      3.671908   0.000000   0.000000
   21        3.956266      3.956308   0.000000   0.000000
   22        4.304909      4.304968   0.000000   0.000000
   23        4.707867      4.707907   0.000000   0.000000
   24        5.283555      5.283628   0.000000   0.000000
   25        5.587027      5.587093   0.000000   0.000000
   26        6.153541      6.153617   0.000000   0.000000
   27        6.822561      6.822615   0.000000   0.000000
   28        7.112623      7.112686   0.000000   0.000000
   29        7.994135      7.994189   0.000000   0.000000
   30        8.375051      8.375120   0.000000   0.000000
   31        8.719702      8.719757   0.000000   0.000000
   32        9.102672      9.102745   0.000000   0.000000
 
 -0.2000000E+00  0.2000000E+00  0.3920475E-15  0.2000000E-01
    1      -11.527419    -11.527392   1.000000   1.000000
    2       -9.972325     -9.972296   1.000000   1.000000
    3       -8.947941     -8.947909   1.000000   1.000000
    4       -8.880711     -8.880679   1.000000   1.000000
    5       -8.562237     -8.562210   1.000000   1.000000
    6       -8.381925     -8.381896   1.000000   1.000000
    7       -8.104048     -8.104018   1.000000   1.000000
    8       -7.818499     -7.818475   1.000000   1.000000
    9       -7.629469     -7.629443   1.000000   1.000000
   10       -7.258147     -7.258127   1.000000   1.000000
   11       -7.064080     -7.064060   1.000000   1.000000
   12       -6.932907     -6.932887   1.000000   1.000000
   13       -2.981777     -2.981757   0.802907   0.802902
   14        1.816147      1.816212   0.000000   0.000000
   15        2.417404      2.417458   0.000000   0.000000
   16        2.706231      2.706274   0.000000   0.000000
   17        2.914278      2.914329   0.000000   0.000000
   18        3.292728      3.292799   0.000000   0.000000
   19        3.365696      3.365738   0.000000   0.000000
   20        3.763990      3.764038   0.000000   0.000000
   21        4.250688      4.250751   0.000000   0.000000
   22        4.655362      4.655438   0.000000   0.000000
   23        4.942945      4.943025   0.000000   0.000000
   24        5.491101      5.491170   0.000000   0.000000
   25        6.285588      6.285665   0.000000   0.000000
   26        6.594688      6.594753   0.000000   0.000000
   27        7.233561      7.233627   0.000000   0.000000
   28        7.333878      7.333898   0.000000   0.000000
   29        8.119075      8.119155   0.000000   0.000000
   30        8.642358      8.642369   0.000000   0.000000
   31        9.263467      9.263534   0.000000   0.000000
   32        9.711796      9.711871   0.000000   0.000000
 
  0.3777360E-15  0.4000000E+00  0.3469447E-15  0.2000000E-01
    1      -11.593364    -11.593339   1.000000   1.000000
    2      -10.149615    -10.149584   1.000000   1.000000
    3       -9.418286     -9.418252   1.000000   1.000000
    4       -8.951151     -8.951122   1.000000   1.000000
    5       -8.637718     -8.637690   1.000000   1.000000
    6       -8.306852     -8.306822   1.000000   1.000000
    7       -7.739685     -7.739656   1.000000   1.000000
    8       -7.394364     -7.394340   1.000000   1.000000
    9       -7.257424     -7.257404   1.000000   1.000000
   10       -7.226002     -7.225978   1.000000   1.000000
   11       -7.027713     -7.027693   1.000000   1.000000
   12       -5.496615     -5.496595   1.000000   1.000000
   13       -5.355269     -5.355253   1.000000   1.000000
   14        2.346424      2.346477   0.000000   0.000000
   15        2.438080      2.438142   0.000000   0.000000
   16        2.543498      2.543555   0.000000   0.000000
   17        2.764975      2.765014   0.000000   0.000000
   18        3.066720      3.066780   0.000000   0.000000
   19        3.236236      3.236304   0.000000   0.000000
   20        3.471528      3.471601   0.000000   0.000000
   21        4.023296      4.023364   0.000000   0.000000
   22        4.334037      4.334110   0.000000   0.000000
   23        5.333412      5.333477   0.000000   0.000000
   24        5.793974      5.794011   0.000000   0.000000
   25        6.679809      6.679875   0.000000   0.000000
   26        7.320328      7.320386   0.000000   0.000000
   27        7.695300      7.695351   0.000000   0.000000
   28        8.073763      8.073837   0.000000   0.000000
   29        8.344872      8.344937   0.000000   0.000000
   30        8.708034      8.708105   0.000000   0.000000
   31        9.180777      9.180841   0.000000   0.000000
   32        9.385929      9.385979   0.000000   0.000000
 
  0.2000000E+00  0.4000000E+00  0.3608225E-15  0.2000000E-01
    1      -11.351492    -11.351467   1.000000   1.000000
    2       -9.988186     -9.988155   1.000000   1.000000
    3       -9.310288     -9.310254   1.000000   1.000000
    4       -8.821292     -8.821264   1.000000   1.000000
    5       -8.502467     -8.502438   1.000000   1.000000
    6       -8.423226     -8.423197   1.000000   1.000000
    7       -8.230443     -8.230414   1.000000   1.000000
    8       -7.632604     -7.632581   1.000000   1.000000
    9       -7.568983     -7.568957   1.000000   1.000000
   10       -7.340794     -7.340772   1.000000   1.000000
   11       -7.218687     -7.218664   1.000000   1.000000
   12       -6.887884     -6.887865   1.000000   1.000000
   13       -2.990832     -2.990812   0.803996   0.803991
   14        2.540062      2.540122   0.000000   0.000000
   15        2.802342      2.802385   0.000000   0.000000
   16        2.858990      2.859053   0.000000   0.000000
   17        2.994242      2.994285   0.000000   0.000000
   18        3.097938      3.097996   0.000000   0.000000
   19        3.494084      3.494162   0.000000   0.000000
   20        3.738440      3.738504   0.000000   0.000000
   21        4.327964      4.328032   0.000000   0.000000
   22        4.623682      4.623741   0.000000   0.000000
   23        5.524583      5.524639   0.000000   0.000000
   24        6.192768      6.192811   0.000000   0.000000
   25        6.510523      6.510598   0.000000   0.000000
   26        6.803546      6.803592   0.000000   0.000000
   27        7.154284      7.154333   0.000000   0.000000
   28        7.348653      7.348694   0.000000   0.000000
   29        7.470770      7.470811   0.000000   0.000000
   30        7.719501      7.719553   0.000000   0.000000
   31        8.049420      8.049490   0.000000   0.000000
   32        8.613573      8.613645   0.000000   0.000000
 
  0.4000000E+00  0.4000000E+00  0.3608225E-15  0.2000000E-01
    1      -10.662540    -10.662515   1.000000   1.000000
    2       -9.693547     -9.693519   1.000000   1.000000
    3       -9.516981     -9.516951   1.000000   1.000000
    4       -8.916947     -8.916914   1.000000   1.000000
    5       -8.660709     -8.660684   1.000000   1.000000
    6       -8.424405     -8.424379   1.000000   1.000000
    7       -8.175198     -8.175170   1.000000   1.000000
    8       -8.058130     -8.058101   1.000000   1.000000
    9       -7.896228     -7.896202   1.000000   1.000000
   10       -7.818230     -7.818202   1.000000   1.000000
   11       -7.741555     -7.741530   1.000000   1.000000
   12       -7.261107     -7.261086   1.000000   1.000000
   13       -0.022688     -0.022668  -0.052913  -0.052914
   14        2.873609      2.873662   0.000000   0.000000
   15        3.159890      3.159921   0.000000   0.000000
   16        3.278139      3.278198   0.000000   0.000000
   17        3.394263      3.394324   0.000000   0.000000
   18        3.551031      3.551075   0.000000   0.000000
   19        3.669367      3.669413   0.000000   0.000000
   20        3.957425      3.957498   0.000000   0.000000
   21        4.169823      4.169867   0.000000   0.000000
   22        4.512143      4.512199   0.000000   0.000000
   23        4.986664      4.986699   0.000000   0.000000
   24        5.403932      5.404001   0.000000   0.000000
   25        5.965297      5.965351   0.000000   0.000000
   26        6.230357      6.230403   0.000000   0.000000
   27        6.831593      6.831665   0.000000   0.000000
   28        7.309854      7.309920   0.000000   0.000000
   29        7.484295      7.484345   0.000000   0.000000
   30        7.735826      7.735906   0.000000   0.000000
   31        7.910613      7.910670   0.000000   0.000000
   32        8.431019      8.431095   0.000000   0.000000
 
 -0.4000000E+00  0.4000000E+00  0.3955170E-15  0.2000000E-01
    1      -10.737523    -10.737497   1.000000   1.000000
    2       -9.544177     -9.544152   1.000000   1.000000
    3       -9.467477     -9.467448   1.000000   1.000000
    4       -8.854460     -8.854431   1.000000   1.000000
    5       -8.734901     -8.734871   1.000000   1.000000
    6       -8.385370     -8.385341   1.000000   1.000000
    7       -8.351437     -8.351408   1.000000   1.000000
    8       -8.216114     -8.216086   1.000000   1.000000
    9       -7.880966     -7.880944   1.000000   1.000000
   10       -7.695277     -7.695253   1.000000   1.000000
   11       -7.587693     -7.587665   1.000000   1.000000
   12       -7.383196     -7.383172   1.000000   1.000000
   13       -0.038993     -0.038973  -0.052436  -0.052437
   14        2.908771      2.908821   0.000000   0.000000
   15        3.070052      3.070100   0.000000   0.000000
   16        3.375139      3.375192   0.000000   0.000000
   17        3.419493      3.419538   0.000000   0.000000
   18        3.516261      3.516296   0.000000   0.000000
   19        3.714082      3.714144   0.000000   0.000000
   20        3.834273      3.834322   0.000000   0.000000
   21        4.295211      4.295273   0.000000   0.000000
   22        4.584918      4.584986   0.000000   0.000000
   23        4.901186      4.901214   0.000000   0.000000
   24        5.326814      5.326875   0.000000   0.000000
   25        5.502472      5.502522   0.000000   0.000000
   26        6.168035      6.168117   0.000000   0.000000
   27        6.822226      6.822282   0.000000   0.000000
   28        7.145323      7.145381   0.000000   0.000000
   29        7.887640      7.887718   0.000000   0.000000
   30        8.296806      8.296874   0.000000   0.000000
   31        8.534077      8.534148   0.000000   0.000000
   32        8.752221      8.752293   0.000000   0.000000
 
 -0.2000000E+00  0.4000000E+00  0.3747003E-15  0.2000000E-01
    1      -11.384612    -11.384586   1.000000   1.000000
    2       -9.973514     -9.973483   1.000000   1.000000
    3       -9.222458     -9.222425   1.000000   1.000000
    4       -8.798205     -8.798176   1.000000   1.000000
    5       -8.619576     -8.619546   1.000000   1.000000
    6       -8.214907     -8.214878   1.000000   1.000000
    7       -8.117437     -8.117410   1.000000   1.000000
    8       -7.960914     -7.960887   1.000000   1.000000
    9       -7.570820     -7.570795   1.000000   1.000000
   10       -7.335308     -7.335286   1.000000   1.000000
   11       -7.183731     -7.183710   1.000000   1.000000
   12       -6.922296     -6.922276   1.000000   1.000000
   13       -2.985865     -2.985846   0.803727   0.803722
   14        2.572816      2.572872   0.000000   0.000000
   15        2.701423      2.701476   0.000000   0.000000
   16        2.773429      2.773485   0.000000   0.000000
   17        3.001896      3.001935   0.000000   0.000000
   18        3.324076      3.324155   0.000000   0.000000
   19        3.434503      3.434542   0.000000   0.000000
   20        3.756606      3.756681   0.000000   0.000000
   21        4.294805      4.294868   0.000000   0.000000
   22        4.697143      4.697210   0.000000   0.000000
   23        5.134323      5.134399   0.000000   0.000000
   24        5.693414      5.693453   0.000000   0.000000
   25        6.466493      6.466566   0.000000   0.000000
   26        7.019277      7.019345   0.000000   0.000000
   27        7.305312      7.305332   0.000000   0.000000
   28        7.572556      7.572579   0.000000   0.000000
   29        7.802152      7.802221   0.000000   0.000000
   30        8.277672      8.277748   0.000000   0.000000
   31        8.458726      8.458794   0.000000   0.000000
   32        9.146015      9.146085   0.000000   0.000000
 
  0.3738329E-15  0.3712308E-15  0.2500000E+00  0.2000000E-01
    1      -11.748973    -11.748946   1.000000   1.000000
    2      -10.312862    -10.312830   1.000000   1.000000
    3       -9.319594     -9.319565   1.000000   1.000000
    4       -8.581296     -8.581269   1.000000   1.000000
    5       -8.467164     -8.467134   1.000000   1.000000
    6       -8.303403     -8.303372   1.000000   1.000000
    7       -7.828599     -7.828569   1.000000   1.000000
    8       -7.599173     -7.599146   1.000000   1.000000
    9       -7.373173     -7.373152   1.000000   1.000000
   10       -7.004898     -7.004879   1.000000   1.000000
   11       -6.832288     -6.832269   1.000000   1.000000
   12       -5.439734     -5.439717   1.000000   1.000000
   13       -5.328847     -5.328830   1.000000   1.000000
   14        1.518355      1.518419   0.000000   0.000000
   15        1.704683      1.704746   0.000000   0.000000
   16        2.042334      2.042384   0.000000   0.000000
   17        2.311533      2.311580   0.000000   0.000000
   18        2.701511      2.701569   0.000000   0.000000
   19        3.294692      3.294739   0.000000   0.000000
   20        3.614450      3.614527   0.000000   0.000000
   21        4.319797      4.319872   0.000000   0.000000
   22        4.860894      4.860970   0.000000   0.000000
   23        5.215505      5.215586   0.000000   0.000000
   24        5.866127      5.866198   0.000000   0.000000
   25        6.532911      6.532991   0.000000   0.000000
   26        7.459655      7.459710   0.000000   0.000000
   27        7.628112      7.628184   0.000000   0.000000
   28        8.014748      8.014808   0.000000   0.000000
   29        8.350882      8.350912   0.000000   0.000000
   30        8.964437      8.964466   0.000000   0.000000
   31        9.069786      9.069837   0.000000   0.000000
   32        9.378432      9.378501   0.000000   0.000000
 
  0.2000000E+00  0.3625572E-15  0.2500000E+00  0.2000000E-01
    1      -11.507110    -11.507083   1.000000   1.000000
    2      -10.190037    -10.190005   1.000000   1.000000
    3       -9.191677     -9.191650   1.000000   1.000000
    4       -8.709517     -8.709487   1.000000   1.000000
    5       -8.441022     -8.440993   1.000000   1.000000
    6       -8.287193     -8.287165   1.000000   1.000000
    7       -8.164573     -8.164544   1.000000   1.000000
    8       -7.621864     -7.621837   1.000000   1.000000
    9       -7.499801     -7.499777   1.000000   1.000000
   10       -7.205614     -7.205593   1.000000   1.000000
   11       -7.069422     -7.069404   1.000000   1.000000
   12       -6.963575     -6.963556   1.000000   1.000000
   13       -2.983107     -2.983088   0.802743   0.802738
   14        1.731125      1.731188   0.000000   0.000000
   15        1.782386      1.782450   0.000000   0.000000
   16        2.254659      2.254715   0.000000   0.000000
   17        2.468822      2.468868   0.000000   0.000000
   18        2.984599      2.984649   0.000000   0.000000
   19        3.216331      3.216380   0.000000   0.000000
   20        4.027877      4.027960   0.000000   0.000000
   21        4.777277      4.777350   0.000000   0.000000
   22        5.125484      5.125554   0.000000   0.000000
   23        5.271603      5.271674   0.000000   0.000000
   24        5.759492      5.759543   0.000000   0.000000
   25        6.345297      6.345378   0.000000   0.000000
   26        6.768942      6.769004   0.000000   0.000000
   27        7.272317      7.272340   0.000000   0.000000
   28        7.457796      7.457859   0.000000   0.000000
   29        7.929145      7.929216   0.000000   0.000000
   30        8.204986      8.205036   0.000000   0.000000
   31        8.565272      8.565300   0.000000   0.000000
   32        9.228665      9.228713   0.000000   0.000000
 
  0.4000000E+00  0.3712308E-15  0.2500000E+00  0.2000000E-01
    1      -10.826335    -10.826308   1.000000   1.000000
    2       -9.892410     -9.892381   1.000000   1.000000
    3       -9.744173     -9.744141   1.000000   1.000000
    4       -8.762106     -8.762080   1.000000   1.000000
    5       -8.638265     -8.638240   1.000000   1.000000
    6       -8.135646     -8.135617   1.000000   1.000000
    7       -8.075165     -8.075136   1.000000   1.000000
    8       -7.918107     -7.918080   1.000000   1.000000
    9       -7.854634     -7.854611   1.000000   1.000000
   10       -7.658049     -7.658028   1.000000   1.000000
   11       -7.536315     -7.536291   1.000000   1.000000
   12       -7.314038     -7.314014   1.000000   1.000000
   13       -0.034680     -0.034661  -0.053352  -0.053353
   14        2.168612      2.168677   0.000000   0.000000
   15        2.374871      2.374927   0.000000   0.000000
   16        2.675810      2.675866   0.000000   0.000000