 running on   32 total cores
 distrk:  each k-point on   32 cores,    1 groups
 distr:  one band on    8 cores,    4 groups
 using from now: INCAR     
 vasp.5.4.4.18Apr17-6-g9f103f2a35 (build Nov 01 2019 12:17:22) complex          
  
 POSCAR found type information on POSCAR  H 
 POSCAR found :  1 types and      18 ions

 ----------------------------------------------------------------------------- 
|                                                                             |
|  ADVICE TO THIS USER RUNNING 'VASP/VAMP'   (HEAR YOUR MASTER'S VOICE ...):  |
|                                                                             |
|      You have a (more or less) 'large supercell' and for larger cells       |
|      it might be more efficient to use real space projection opertators     |
|      So try LREAL= Auto  in the INCAR   file.                               |
|      Mind:          For very  accurate calculation you might also keep the  |
|      reciprocal projection scheme          (i.e. LREAL=.FALSE.)             |
|                                                                             |
 ----------------------------------------------------------------------------- 

 LDA part: xc-table for Pade appr. of Perdew
 generate k-points for:   16    7    6
 POSCAR, INCAR and KPOINTS ok, starting setup
 FFT: planning ...
 WAVECAR not read
 entering main loop
       N       E                     dE             d eps       ncg     rms          rms(c)
DAV:   1    -0.205749553414E+02   -0.20575E+02   -0.46578E+03 13528   0.411E+02
DAV:   2    -0.605278459948E+02   -0.39953E+02   -0.39174E+02 16092   0.100E+02
DAV:   3    -0.619629421968E+02   -0.14351E+01   -0.14312E+01 17032   0.188E+01
DAV:   4    -0.619660567404E+02   -0.31145E-02   -0.31142E-02 15624   0.105E+00
DAV:   5    -0.619660665300E+02   -0.97896E-05   -0.97891E-05 14628   0.544E-02    0.129E+01
DAV:   6    -0.598239262493E+02    0.21421E+01   -0.59762E-01 14440   0.385E+00    0.736E+00
DAV:   7    -0.587695029244E+02    0.10544E+01   -0.15679E+00 15072   0.654E+00    0.643E-01
DAV:   8    -0.587921560691E+02   -0.22653E-01   -0.72899E-02 14800   0.139E+00    0.380E-01
DAV:   9    -0.587896059077E+02    0.25502E-02   -0.45058E-03 17576   0.375E-01    0.521E-02
DAV:  10    -0.587896999320E+02   -0.94024E-04   -0.18321E-04 14768   0.740E-02
   1 F= -.58789700E+02 E0= -.58789837E+02  d E =-.587897E+02
 curvature:   0.00 expect dE= 0.000E+00 dE for cont linesearch  0.000E+00
 trial: gam= 0.00000 g(F)=  0.104E-02 g(S)=  0.160E-03 ort = 0.000E+00 (trialstep = 0.100E+01)
 search vector abs. value=  0.120E-02
 bond charge predicted
       N       E                     dE             d eps       ncg     rms          rms(c)
DAV:   1    -0.587899044624E+02   -0.29855E-03   -0.18972E-02 15196   0.855E-01    0.532E-02
DAV:   2    -0.587899421802E+02   -0.37718E-04   -0.76924E-04 15612   0.164E-01
   2 F= -.58789942E+02 E0= -.58790079E+02  d E =-.242248E-03
 trial-energy change:   -0.000242  1 .order   -0.000230   -0.001199    0.000739
 step:   0.6186(harm=  0.6186)  dis= 0.00173  next Energy=   -58.790071 (dE=-0.371E-03)
 bond charge predicted
       N       E                     dE             d eps       ncg     rms          rms(c)
DAV:   1    -0.587900680366E+02   -0.16357E-03   -0.30859E-03 14492   0.359E-01    0.158E-02
DAV:   2    -0.587900988668E+02   -0.30830E-04   -0.34123E-04 10580   0.105E-01
   3 F= -.58790099E+02 E0= -.58790236E+02  d E =-.398935E-03
 curvature:  -0.31 expect dE=-0.439E-03 dE for cont linesearch -0.334E-05
 trial: gam= 1.27900 g(F)=  0.136E-02 g(S)=  0.557E-04 ort =-0.114E-03 (trialstep = 0.358E+00)
 search vector abs. value=  0.309E-02
 reached required accuracy - stopping structural energy minimisation
