       N       E                     dE             d eps       ncg     rms          rms(c)
DAV:   1    -0.210497988564E+02   -0.21050E+02   -0.39131E+03 16160   0.364E+02
DAV:   2    -0.540755056853E+02   -0.33026E+02   -0.32027E+02 20924   0.912E+01
DAV:   3    -0.552725539857E+02   -0.11970E+01   -0.11926E+01 19648   0.161E+01
DAV:   4    -0.552752573164E+02   -0.27033E-02   -0.27031E-02 18968   0.928E-01
DAV:   5    -0.552752646677E+02   -0.73513E-05   -0.73517E-05 16872   0.453E-02    0.122E+01
DAV:   6    -0.533331175084E+02    0.19421E+01   -0.50509E-01 17628   0.343E+00    0.694E+00
DAV:   7    -0.523879550198E+02    0.94516E+00   -0.13537E+00 17820   0.582E+00    0.612E-01
DAV:   8    -0.524097658007E+02   -0.21811E-01   -0.63394E-02 17440   0.118E+00    0.362E-01
DAV:   9    -0.524072193705E+02    0.25464E-02   -0.28309E-03 20336   0.282E-01    0.369E-02
DAV:  10    -0.524073222698E+02   -0.10290E-03   -0.22265E-04 18024   0.784E-02    0.167E-02
DAV:  11    -0.524073239652E+02   -0.16955E-05   -0.10474E-05  9944   0.159E-02
   1 F= -.52407324E+02 E0= -.52407377E+02  d E =-.524073E+02
       N       E                     dE             d eps       ncg     rms          rms(c)
DAV:   1    -0.524080529512E+02   -0.73068E-03   -0.60971E-02 18092   0.146E+00    0.134E-01
DAV:   2    -0.524081394052E+02   -0.86454E-04   -0.31808E-03 18632   0.314E-01    0.944E-02
DAV:   3    -0.524080188424E+02    0.12056E-03   -0.18671E-04 19448   0.131E-01    0.824E-03
DAV:   4    -0.524080330789E+02   -0.14237E-04   -0.12911E-04  9240   0.586E-02
   2 F= -.52408033E+02 E0= -.52408084E+02  d E =-.709114E-03
       N       E                     dE             d eps       ncg     rms          rms(c)
DAV:   1    -0.524086950291E+02   -0.67619E-03   -0.10143E-02 17936   0.591E-01    0.530E-02
DAV:   2    -0.524087022701E+02   -0.72410E-05   -0.47128E-04 18184   0.121E-01
   3 F= -.52408702E+02 E0= -.52408754E+02  d E =-.137830E-02
       N       E                     dE             d eps       ncg     rms          rms(c)
DAV:   1    -0.524105978813E+02   -0.19029E-02   -0.10590E-02 17104   0.543E-01    0.488E-02
DAV:   2    -0.524106005479E+02   -0.26665E-05   -0.17094E-04 18784   0.692E-02
   4 F= -.52410601E+02 E0= -.52410651E+02  d E =-.189828E-02
       N       E                     dE             d eps       ncg     rms          rms(c)
DAV:   1    -0.524156180752E+02   -0.50202E-02   -0.93720E-02 17296   0.162E+00    0.149E-01
DAV:   2    -0.524156342956E+02   -0.16220E-04   -0.10939E-03 18972   0.175E-01    0.925E-02
DAV:   3    -0.524156305052E+02    0.37904E-05   -0.18698E-04 17616   0.670E-02
   5 F= -.52415631E+02 E0= -.52415679E+02  d E =-.692824E-02
       N       E                     dE             d eps       ncg     rms          rms(c)
DAV:   1    -0.524223654725E+02   -0.67312E-02   -0.38040E-01 17364   0.327E+00    0.302E-01
DAV:   2    -0.524224593909E+02   -0.93918E-04   -0.46951E-03 18908   0.363E-01    0.187E-01
DAV:   3    -0.524224468706E+02    0.12520E-04   -0.75283E-04 18428   0.135E-01
   6 F= -.52422447E+02 E0= -.52422490E+02  d E =-.137446E-01
       N       E                     dE             d eps       ncg     rms          rms(c)
DAV:   1    -0.524220502256E+02    0.40917E-03   -0.15498E+00 17364   0.665E+00    0.620E-01
DAV:   2    -0.524224453014E+02   -0.39508E-03   -0.19738E-02 18920   0.746E-01    0.382E-01
DAV:   3    -0.524224025229E+02    0.42779E-04   -0.29755E-03 18348   0.271E-01    0.428E-02
DAV:   4    -0.524224130524E+02   -0.10530E-04   -0.17208E-04 18468   0.683E-02
   7 F= -.52422413E+02 E0= -.52422453E+02  d E =-.137108E-01
       N       E                     dE             d eps       ncg     rms          rms(c)
DAV:   1    -0.523966974280E+02    0.25705E-01   -0.60893E-01 17220   0.462E+00    0.313E-01
DAV:   2    -0.523984340127E+02   -0.17366E-02   -0.32279E-02 18868   0.102E+00    0.254E-01
DAV:   3    -0.523973293002E+02    0.11047E-02   -0.12491E-03 19588   0.382E-01    0.218E-02
DAV:   4    -0.523974312400E+02   -0.10194E-03   -0.99039E-04 18344   0.160E-01    0.143E-02
DAV:   5    -0.523974275729E+02    0.36671E-05   -0.21303E-06  9008   0.216E-02
   8 F= -.52397428E+02 E0= -.52397471E+02  d E =0.249855E-01
       N       E                     dE             d eps       ncg     rms          rms(c)
DAV:   1    -0.524239861717E+02   -0.26555E-01   -0.38031E-01 17180   0.362E+00    0.250E-01
DAV:   2    -0.524249790702E+02   -0.99290E-03   -0.19312E-02 18852   0.791E-01    0.200E-01
DAV:   3    -0.524243013880E+02    0.67768E-03   -0.82198E-04 19820   0.317E-01    0.121E-02
DAV:   4    -0.524243676944E+02   -0.66306E-04   -0.64652E-04 17732   0.130E-01
   9 F= -.52424368E+02 E0= -.52424408E+02  d E =-.195464E-02
       N       E                     dE             d eps       ncg     rms          rms(c)
DAV:   1    -0.524311379380E+02   -0.68366E-02   -0.13962E-01 16800   0.199E+00    0.198E-01
DAV:   2    -0.524309035703E+02    0.23437E-03   -0.20525E-03 18936   0.231E-01    0.119E-01
DAV:   3    -0.524307275520E+02    0.17602E-03   -0.31156E-04 17728   0.839E-02    0.991E-03
DAV:   4    -0.524307277437E+02   -0.19178E-06   -0.13310E-05  8684   0.193E-02
  10 F= -.52430728E+02 E0= -.52430769E+02  d E =-.636005E-02
       N       E                     dE             d eps       ncg     rms          rms(c)
DAV:   1    -0.524403978053E+02   -0.96703E-02   -0.88241E-01 16808   0.497E+00    0.496E-01
DAV:   2    -0.524389116365E+02    0.14862E-02   -0.12760E-02 18940   0.571E-01    0.299E-01
DAV:   3    -0.524377999750E+02    0.11117E-02   -0.20548E-03 18044   0.214E-01    0.267E-02
DAV:   4    -0.524377997551E+02    0.21991E-06   -0.86113E-05 11532   0.487E-02
  11 F= -.52437800E+02 E0= -.52437842E+02  d E =-.134321E-01
       N       E                     dE             d eps       ncg     rms          rms(c)
DAV:   1    -0.524370425840E+02    0.75739E-03   -0.19158E-01 16336   0.241E+00    0.151E-01
DAV:   2    -0.524372628762E+02   -0.22029E-03   -0.46557E-03 19164   0.369E-01    0.110E-01
DAV:   3    -0.524370915454E+02    0.17133E-03   -0.15087E-04 19112   0.133E-01    0.106E-02
DAV:   4    -0.524371070866E+02   -0.15541E-04   -0.15589E-04 11308   0.603E-02
  12 F= -.52437107E+02 E0= -.52437150E+02  d E =0.692669E-03
       N       E                     dE             d eps       ncg     rms          rms(c)
DAV:   1    -0.524383755612E+02   -0.12840E-02   -0.68717E-02 16236   0.144E+00    0.903E-02
DAV:   2    -0.524384359907E+02   -0.60429E-04   -0.15502E-03 19080   0.214E-01    0.657E-02
DAV:   3    -0.524383703393E+02    0.65651E-04   -0.52037E-05 14944   0.851E-02
  13 F= -.52438370E+02 E0= -.52438413E+02  d E =-.570584E-03
