unknown system                          
           1
     3.353439   -0.077458    0.018367
     0.100057    4.354082    0.256175
     0.017729    2.088753    5.701525
   Sr   Nb   H 
   1   1   8
Direct configuration=     1
   0.97825200  0.68168800  0.90750000
   0.47899500  0.95177400  0.33136600
   0.47789600  0.08115000  0.99069200
   0.97891500  0.13641100  0.36997400
   0.86478300  0.28534700  0.70542200
   0.47837900  0.41128300  0.21679600
   0.47667100  0.64005500  0.64411300
   0.09275600  0.28712000  0.70331300
   0.48026100  0.13730800  0.54619300
   0.97840100  0.72274900  0.30274500
unknown system                          
           1
     3.385310   -0.078508    0.018312
     0.100571    4.394831    0.258217
     0.017271    2.107609    5.758944
   Sr   Nb   H 
   1   1   8
Direct configuration=     2
   0.97821898  0.68165374  0.90755504
   0.47884056  0.95289591  0.33197301
   0.47796699  0.08097947  0.99095556
   0.97884113  0.13577208  0.37014304
   0.86411035  0.28543699  0.70536832
   0.47840902  0.41074603  0.21685953
   0.47688969  0.64041846  0.64376238
   0.09337733  0.28711220  0.70332022
   0.48012936  0.13696067  0.54563330
   0.97852559  0.72290944  0.30254359
unknown system                          
           1
     3.403859   -0.079119    0.018280
     0.100870    4.418546    0.259405
     0.017004    2.118583    5.792360
   Sr   Nb   H 
   1   1   8
Direct configuration=     3
   0.97819995  0.68163401  0.90758675
   0.47875167  0.95354294  0.33232278
   0.47800793  0.08088124  0.99110741
   0.97879851  0.13540375  0.37024041
   0.86372256  0.28548884  0.70533737
   0.47842629  0.41043644  0.21689612
   0.47701575  0.64062792  0.64356039
   0.09373553  0.28710772  0.70332439
   0.48005340  0.13676024  0.54531081
   0.97859741  0.72300189  0.30242756
unknown system                          
           1
     3.416434   -0.079691    0.018290
     0.101368    4.455864    0.259263
     0.016919    2.134368    5.825163
   Sr   Nb   H 
   1   1   8
Direct configuration=     4
   0.97818327  0.68149207  0.90795271
   0.47861367  0.95563796  0.33252387
   0.47810793  0.07975736  0.99328250
   0.97874309  0.13340394  0.37030856
   0.87096410  0.28557739  0.70524739
   0.47845765  0.40841646  0.21697684
   0.47727739  0.64273204  0.64221017
   0.08641389  0.28696201  0.70346710
   0.47986260  0.13605692  0.54393553
   0.97868541  0.72484884  0.30220934
unknown system                          
           1
     3.409969   -0.079397    0.018285
     0.101112    4.436679    0.259336
     0.016963    2.126253    5.808299
   Sr   Nb   H 
   1   1   8
Direct configuration=     5
   0.97819181  0.68156458  0.90776565
   0.47868423  0.95457025  0.33242064
   0.47805668  0.08033115  0.99217079
   0.97877158  0.13442325  0.37027414
   0.86725498  0.28553200  0.70529334
   0.47844169  0.40944606  0.21693599
   0.47714332  0.64165899  0.64289999
   0.09016404  0.28703656  0.70339420
   0.47996042  0.13641479  0.54463874
   0.97864024  0.72390737  0.30232051
unknown system                          
           1
     3.409327   -0.079471    0.018232
     0.101358    4.452166    0.258462
     0.016994    2.132742    5.804703
   Sr   Nb   H 
   1   1   8
Direct configuration=     6
   0.97819442  0.68147545  0.90822050
   0.47858567  0.95592816  0.33233869
   0.47814490  0.07909129  0.99466818
   0.97874831  0.13236961  0.37029844
   0.86711104  0.28551456  0.70531917
   0.47846426  0.40721956  0.21697614
   0.47735365  0.64427312  0.64137635
   0.09023904  0.28691093  0.70351376
   0.47978963  0.13588759  0.54325006
   0.97867808  0.72621472  0.30215271
unknown system                          
           1
     3.407929   -0.079633    0.018117
     0.101893    4.485926    0.256557
     0.017061    2.146885    5.796863
   Sr   Nb   H 
   1   1   8
Direct configuration=     7
   0.97820015  0.68128011  0.90921264
   0.47837087  0.95887783  0.33216085
   0.47833737  0.07638859  0.00011518
   0.97869741  0.12790905  0.37035007
   0.86679721  0.28547657  0.70537548
   0.47851329  0.40238351  0.21706220
   0.47781229  0.64995691  0.63805446
   0.09040257  0.28663759  0.70377448
   0.47941709  0.13474794  0.54022041
   0.97876074  0.73122689  0.30178824
unknown system                          
           1
     3.406142   -0.079569    0.018159
     0.102453    4.509357    0.260695
     0.017427    2.162372    5.815534
   Sr   Nb   H 
   1   1   8
Direct configuration=     8
   0.97823076  0.68149846  0.90935525
   0.47845683  0.95489290  0.33121238
   0.47835387  0.07675876 -0.00095924
   0.97867105  0.12809307  0.37061809
   0.86590501  0.28543491  0.70543688
   0.47850272  0.40325914  0.21643788
   0.47784149  0.64989942  0.63924142
   0.09126549  0.28657195  0.70386113
   0.47935204  0.13654066  0.54126990
   0.97872973  0.73193573  0.30164031
unknown system                          
           1
     3.406501   -0.079581    0.018151
     0.102341    4.504656    0.259865
     0.017354    2.159265    5.811788
   Sr   Nb   H 
   1   1   8
Direct configuration=     9
   0.97822462  0.68145493  0.90932675
   0.47843956  0.95568798  0.33140167
   0.47835055  0.07668445 -0.00074434
   0.97867634  0.12805644  0.37056451
   0.86608409  0.28544325  0.70542459
   0.47850484  0.40308411  0.21656282
   0.47783564  0.64991135  0.63900404
   0.09109229  0.28658509  0.70384380
   0.47936511  0.13618322  0.54106019
   0.97873596  0.73179418  0.30166996
