 running on   16 total cores
 distrk:  each k-point on   16 cores,    1 groups
 distr:  one band on    1 cores,   16 groups
 using from now: INCAR     
 vasp.5.4.4.18Apr17-6-g9f103f2a35 (build Nov 01 2019 12:17:22) complex          
  
 POSCAR found type information on POSCAR  Sr Nb H 
 POSCAR found :  3 types and      11 ions

 ----------------------------------------------------------------------------- 
|                                                                             |
|           W    W    AA    RRRRR   N    N  II  N    N   GGGG   !!!           |
|           W    W   A  A   R    R  NN   N  II  NN   N  G    G  !!!           |
|           W    W  A    A  R    R  N N  N  II  N N  N  G       !!!           |
|           W WW W  AAAAAA  RRRRR   N  N N  II  N  N N  G  GGG   !            |
|           WW  WW  A    A  R   R   N   NN  II  N   NN  G    G                |
|           W    W  A    A  R    R  N    N  II  N    N   GGGG   !!!           |
|                                                                             |
|      For optimal performance we recommend to set                            |
|        NCORE= 4 - approx SQRT( number of cores)                             |
|      NCORE specifies how many cores store one orbital (NPAR=cpu/NCORE).     |
|      This setting can  greatly improve the performance of VASP for DFT.     |
|      The default,   NCORE=1            might be grossly inefficient         |
|      on modern multi-core architectures or massively parallel machines.     |
|      Do your own testing !!!!                                               |
|      Unfortunately you need to use the default for GW and RPA calculations. |
|      (for HF NCORE is supported but not extensively tested yet)             |
|                                                                             |
 ----------------------------------------------------------------------------- 

 LDA part: xc-table for Pade appr. of Perdew
 POSCAR, INCAR and KPOINTS ok, starting setup
 FFT: planning ...
 WAVECAR not read
 entering main loop
       N       E                     dE             d eps       ncg     rms          rms(c)
DAV:   1     0.277692246891E+03    0.27769E+03   -0.19820E+04  6784   0.121E+03
DAV:   2    -0.349447346100E+02   -0.31264E+03   -0.30576E+03  7616   0.386E+02
DAV:   3    -0.519295996679E+02   -0.16985E+02   -0.16854E+02 13312   0.733E+01
DAV:   4    -0.521340088014E+02   -0.20441E+00   -0.20446E+00  7216   0.631E+00
DAV:   5    -0.521435055093E+02   -0.94967E-02   -0.94956E-02 12192   0.136E+00    0.412E+01
RMM:   6    -0.510219945126E+02    0.11215E+01   -0.10727E+01  7789   0.160E+01    0.160E+01
RMM:   7    -0.507591179778E+02    0.26288E+00   -0.25225E+00  8090   0.774E+00    0.708E+00
RMM:   8    -0.506740376573E+02    0.85080E-01   -0.31535E-01  8055   0.290E+00    0.390E+00
RMM:   9    -0.506658382171E+02    0.81994E-02   -0.11203E-01  8056   0.191E+00    0.178E+00
RMM:  10    -0.506610712054E+02    0.47670E-02   -0.25096E-02  8000   0.921E-01    0.788E-01
RMM:  11    -0.506597876889E+02    0.12835E-02   -0.59795E-03  6864   0.473E-01    0.255E-01
RMM:  12    -0.506596218787E+02    0.16581E-03   -0.17470E-03  5568   0.284E-01
   1 F= -.50659622E+02 E0= -.50659622E+02  d E =-.506596E+02  mag=     0.0014
 curvature:   0.00 expect dE= 0.000E+00 dE for cont linesearch  0.000E+00
 trial: gam= 0.00000 g(F)=  0.451E-02 g(S)=  0.471E-01 ort = 0.000E+00 (trialstep = 0.100E+01)
 search vector abs. value=  0.516E-01
 bond charge predicted
       N       E                     dE             d eps       ncg     rms          rms(c)
DAV:   1    -0.508409089825E+02   -0.18112E+00   -0.38887E+00 10144   0.149E+01    0.460E+00
RMM:   2    -0.507076306134E+02    0.13328E+00   -0.45148E-01  7669   0.448E+00    0.882E-01
RMM:   3    -0.506934978659E+02    0.14133E-01   -0.71120E-02  7999   0.196E+00    0.839E-01
RMM:   4    -0.506890491580E+02    0.44487E-02   -0.12428E-02  7700   0.706E-01    0.747E-01
RMM:   5    -0.506879108555E+02    0.11383E-02   -0.29092E-03  5756   0.564E-01    0.637E-01
RMM:   6    -0.506877382036E+02    0.17265E-03   -0.45256E-03  6599   0.352E-01
   2 F= -.50687738E+02 E0= -.50687738E+02  d E =-.281163E-01  mag=     0.0000
 trial-energy change:   -0.028116  1 .order   -0.032782   -0.051585   -0.013979
 step:   1.3717(harm=  1.3717)  dis= 0.01012  next Energy=   -50.695002 (dE=-0.354E-01)
 bond charge predicted
       N       E                     dE             d eps       ncg     rms          rms(c)
DAV:   1    -0.507082220715E+02   -0.20311E-01   -0.51095E-01  7040   0.540E+00    0.167E+00
RMM:   2    -0.506907658304E+02    0.17456E-01   -0.55755E-02  7505   0.158E+00    0.318E-01
RMM:   3    -0.506889042326E+02    0.18616E-02   -0.91588E-03  7386   0.756E-01    0.278E-01
RMM:   4    -0.506884679400E+02    0.43629E-03   -0.15167E-03  5186   0.289E-01
   3 F= -.50688468E+02 E0= -.50688468E+02  d E =-.288461E-01  mag=     0.0000
 curvature:  -0.69 expect dE=-0.455E-02 dE for cont linesearch -0.416E-04
 trial: gam= 0.09418 g(F)=  0.502E-02 g(S)=  0.161E-02 ort = 0.177E-02 (trialstep = 0.107E+01)
 search vector abs. value=  0.742E-02
 bond charge predicted
       N       E                     dE             d eps       ncg     rms          rms(c)
DAV:   1    -0.506953324301E+02   -0.64282E-02   -0.49970E-01  8512   0.635E+00    0.509E-01
RMM:   2    -0.506948491259E+02    0.48330E-03   -0.44058E-02  8064   0.121E+00    0.275E-01
RMM:   3    -0.506940968373E+02    0.75229E-03   -0.26727E-03  5737   0.620E-01    0.318E-01
RMM:   4    -0.506938719519E+02    0.22489E-03   -0.81530E-04  4767   0.251E-01
   4 F= -.50693872E+02 E0= -.50693872E+02  d E =-.540401E-02  mag=    -0.0000
 trial-energy change:   -0.005404  1 .order   -0.006225   -0.007298   -0.005152
 step:   3.6525(harm=  3.6525)  dis= 0.02491  next Energy=   -50.700874 (dE=-0.124E-01)
 bond charge predicted
       N       E                     dE             d eps       ncg     rms          rms(c)
DAV:   1    -0.507017111797E+02   -0.76143E-02   -0.28591E+00  8480   0.152E+01    0.108E+00
RMM:   2    -0.507009894796E+02    0.72170E-03   -0.25714E-01  8012   0.292E+00    0.478E-01
RMM:   3    -0.506977153826E+02    0.32741E-02   -0.18191E-02  7618   0.162E+00    0.462E-01
RMM:   4    -0.506963830488E+02    0.13323E-02   -0.48341E-03  7055   0.440E-01    0.363E-01
RMM:   5    -0.506960463826E+02    0.33667E-03   -0.10139E-03  4881   0.375E-01
   5 F= -.50696046E+02 E0= -.50696046E+02  d E =-.757844E-02  mag=    -0.0000
 curvature:  -1.99 expect dE=-0.281E-01 dE for cont linesearch -0.224E-03
 trial: gam= 2.25862 g(F)=  0.129E-01 g(S)=  0.125E-02 ort =-0.913E-03 (trialstep = 0.247E+00)
 search vector abs. value=  0.478E-01
 bond charge predicted
       N       E                     dE             d eps       ncg     rms          rms(c)
DAV:   1    -0.506988397629E+02   -0.24567E-02   -0.80503E-02 10176   0.175E+00    0.240E-01
RMM:   2    -0.506979575957E+02    0.88217E-03   -0.42958E-03  6710   0.423E-01    0.925E-02
RMM:   3    -0.506977789187E+02    0.17868E-03   -0.53669E-04  3977   0.286E-01
   6 F= -.50697779E+02 E0= -.50697779E+02  d E =-.173254E-02  mag=    -0.0000
 trial-energy change:   -0.001733  1 .order   -0.002443   -0.002970   -0.001916
 step:   0.6952(harm=  0.6952)  dis= 0.01014  next Energy=   -50.700233 (dE=-0.419E-02)
 bond charge predicted
       N       E                     dE             d eps       ncg     rms          rms(c)
DAV:   1    -0.507035004971E+02   -0.55429E-02   -0.28506E-01  6912   0.325E+00    0.411E-01
RMM:   2    -0.507002241229E+02    0.32764E-02   -0.16274E-02  7680   0.800E-01    0.223E-01
RMM:   3    -0.506992760133E+02    0.94811E-03   -0.13738E-03  4931   0.412E-01    0.234E-01
RMM:   4    -0.506991389363E+02    0.13708E-03   -0.52909E-04  4338   0.221E-01
   7 F= -.50699139E+02 E0= -.50699139E+02  d E =-.309255E-02  mag=    -0.0000
 curvature:  -1.38 expect dE=-0.963E-02 dE for cont linesearch -0.346E-03
 trial: gam=-0.11872 g(F)=  0.676E-02 g(S)=  0.214E-03 ort = 0.346E-02 (trialstep = 0.336E+00)
 search vector abs. value=  0.683E-02
 reached required accuracy - stopping structural energy minimisation
