   15   15   99    2
  0.5890748E+01  0.2848037E-09  0.4416267E-09  0.7318314E-09  0.5000000E-15
  1.000000000000000E-004
  CAR 
 unknown system                          
     15     61     32
 
  0.3742002E-15  0.3742002E-15  0.3742002E-15  0.8333333E-02
    1      -12.155324    -12.155323   1.000000   1.000000
    2      -10.390968    -10.390968   1.000000   1.000000
    3       -9.402383     -9.402383   1.000000   1.000000
    4       -8.736501     -8.736511   1.000000   1.000000
    5       -8.113446     -8.113443   1.000000   1.000000
    6       -7.512253     -7.512258   1.000000   1.000000
    7       -7.436615     -7.436617   1.000000   1.000000
    8        1.911403      1.911422   0.000000   0.000000
    9        2.244607      2.244585   0.000000   0.000000
   10        2.550227      2.550371   0.000000   0.000000
   11        3.090270      3.090379   0.000000   0.000000
   12        4.337656      4.337639   0.000000   0.000000
   13        4.609142      4.609238   0.000000   0.000000
   14        5.336763      5.336775   0.000000   0.000000
   15        5.442912      5.442896   0.000000   0.000000
   16        6.362880      6.362861   0.000000   0.000000
   17        6.964239      6.964380   0.000000   0.000000
   18        8.837337      8.837500   0.000000   0.000000
   19        9.081004      9.081025   0.000000   0.000000
   20        9.434634      9.434577   0.000000   0.000000
   21       10.764580     10.764612   0.000000   0.000000
   22       12.184615     12.184421   0.000000   0.000000
   23       12.629837     12.629770   0.000000   0.000000
   24       12.946549     12.946458   0.000000   0.000000
   25       13.207695     13.207715   0.000000   0.000000
   26       13.548954     13.548944   0.000000   0.000000
   27       13.823381     13.823361   0.000000   0.000000
   28       14.145351     14.145415   0.000000   0.000000
   29       14.736929     14.736730   0.000000   0.000000
   30       15.324783     15.324833   0.000000   0.000000
   31       15.396338     15.396260   0.000000   0.000000
   32       17.412463     17.412515   0.000000   0.000000
 
  0.1250000E+00  0.3748358E-15  0.3729655E-15  0.1666667E-01
    1      -11.889261    -11.889259   1.000000   1.000000
    2      -10.195342    -10.195342   1.000000   1.000000
    3       -9.248499     -9.248499   1.000000   1.000000
    4       -8.624950     -8.624958   1.000000   1.000000
    5       -8.033837     -8.033833   1.000000   1.000000
    6       -7.521876     -7.521880   1.000000   1.000000
    7       -7.352011     -7.352011   1.000000   1.000000
    8        1.349674      1.349676  -0.009969  -0.009885
    9        2.156674      2.156678   0.000000   0.000000
   10        2.531957      2.531954   0.000000   0.000000
   11        2.767979      2.768116   0.000000   0.000000
   12        3.309367      3.309492   0.000000   0.000000
   13        4.238818      4.238809   0.000000   0.000000
   14        4.406532      4.406604   0.000000   0.000000
   15        6.423407      6.423372   0.000000   0.000000
   16        6.914710      6.914747   0.000000   0.000000
   17        8.021250      8.021387   0.000000   0.000000
   18        8.593493      8.593629   0.000000   0.000000
   19        8.760755      8.760718   0.000000   0.000000
   20        9.180252      9.180124   0.000000   0.000000
   21        9.914134      9.914135   0.000000   0.000000
   22       10.650198     10.650157   0.000000   0.000000
   23       11.131709     11.131619   0.000000   0.000000
   24       12.325895     12.325914   0.000000   0.000000
   25       12.597420     12.597408   0.000000   0.000000
   26       13.018982     13.018977   0.000000   0.000000
   27       14.359250     14.359220   0.000000   0.000000
   28       15.474095     15.474119   0.000000   0.000000
   29       16.128724     16.128813   0.000000   0.000000
   30       16.326335     16.326342   0.000000   0.000000
   31       16.670420     16.670518   0.000000   0.000000
   32       16.930684     16.930639   0.000000   0.000000
 
  0.2500000E+00  0.3700111E-15  0.3747003E-15  0.1666667E-01
    1      -11.099547    -11.099546   1.000000   1.000000
    2       -9.632833     -9.632831   1.000000   1.000000
    3       -8.832819     -8.832819   1.000000   1.000000
    4       -8.326442     -8.326447   1.000000   1.000000
    5       -7.834259     -7.834254   1.000000   1.000000
    6       -7.474454     -7.474454   1.000000   1.000000
    7       -7.302088     -7.302084   1.000000   1.000000
    8       -2.127479     -2.127475   0.449400   0.449273
    9        2.793433      2.793421   0.000000   0.000000
   10        3.113143      3.113217   0.000000   0.000000
   11        3.234184      3.234265   0.000000   0.000000
   12        3.516900      3.516914   0.000000   0.000000
   13        3.884500      3.884639   0.000000   0.000000
   14        4.193769      4.193754   0.000000   0.000000
   15        5.716032      5.715969   0.000000   0.000000
   16        5.813212      5.813167   0.000000   0.000000
   17        7.150587      7.150716   0.000000   0.000000
   18        7.218968      7.218972   0.000000   0.000000
   19        8.026443      8.026435   0.000000   0.000000
   20        8.622743      8.622690   0.000000   0.000000
   21        9.758712      9.758673   0.000000   0.000000
   22       10.418352     10.418314   0.000000   0.000000
   23       11.426133     11.426177   0.000000   0.000000
   24       11.920594     11.920566   0.000000   0.000000
   25       12.434299     12.434287   0.000000   0.000000
   26       13.355778     13.355843   0.000000   0.000000
   27       13.764181     13.764357   0.000000   0.000000
   28       14.318317     14.318481   0.000000   0.000000
   29       14.804955     14.804943   0.000000   0.000000
   30       14.887026     14.886991   0.000000   0.000000
   31       15.477418     15.477493   0.000000   0.000000
   32       16.320854     16.320831   0.000000   0.000000
 
  0.3750000E+00  0.4069011E-15  0.3729655E-15  0.1666667E-01
    1       -9.838732     -9.838732   1.000000   1.000000
    2       -8.786368     -8.786363   1.000000   1.000000
    3       -8.314393     -8.314393   1.000000   1.000000
    4       -7.948223     -7.948225   1.000000   1.000000
    5       -7.649135     -7.649131   1.000000   1.000000
    6       -7.556290     -7.556281   1.000000   1.000000
    7       -7.425024     -7.425019   1.000000   1.000000
    8       -5.035705     -5.035700   1.049476   1.049555
    9        2.188166      2.188231   0.000000   0.000000
   10        2.951212      2.951178   0.000000   0.000000
   11        3.263505      3.263499   0.000000   0.000000
   12        3.647886      3.647886   0.000000   0.000000
   13        4.254038      4.254042   0.000000   0.000000
   14        4.515547      4.515505   0.000000   0.000000
   15        5.331563      5.331814   0.000000   0.000000
   16        5.629965      5.629882   0.000000   0.000000
   17        6.140034      6.140039   0.000000   0.000000
   18        6.852825      6.852857   0.000000   0.000000
   19        8.363467      8.363347   0.000000   0.000000
   20        8.938314      8.938304   0.000000   0.000000
   21        9.327605      9.327573   0.000000   0.000000
   22        9.587665      9.587746   0.000000   0.000000
   23       10.666912     10.666906   0.000000   0.000000
   24       11.070214     11.070147   0.000000   0.000000
   25       11.291911     11.291980   0.000000   0.000000
   26       12.013991     12.014153   0.000000   0.000000
   27       12.329242     12.329201   0.000000   0.000000
   28       13.410629     13.410713   0.000000   0.000000
   29       13.884882     13.884925   0.000000   0.000000
   30       14.357009     14.357313   0.000000   0.000000
   31       15.197347     15.197279   0.000000   0.000000
   32       15.752066     15.752086   0.000000   0.000000
 
  0.5000000E+00  0.4158457E-15  0.3677614E-15  0.8333333E-02
    1       -8.569872     -8.569880   1.000000   1.000000
    2       -8.278682     -8.278672   1.000000   1.000000
    3       -8.151718     -8.151717   1.000000   1.000000
    4       -7.901373     -7.901364   1.000000   1.000000
    5       -7.648776     -7.648775   1.000000   1.000000
    6       -7.503604     -7.503596   1.000000   1.000000
    7       -7.292919     -7.292919   1.000000   1.000000
    8       -7.003799     -7.003788   1.000000   1.000000
    9        1.702165      1.702218   0.000000   0.000000
   10        2.689966      2.689910   0.000000   0.000000
   11        3.029051      3.029050   0.000000   0.000000
   12        3.564957      3.564944   0.000000   0.000000
   13        4.150422      4.150332   0.000000   0.000000
   14        4.480366      4.480426   0.000000   0.000000
   15        6.113371      6.113607   0.000000   0.000000
   16        6.357794      6.357807   0.000000   0.000000
   17        6.915715      6.915667   0.000000   0.000000
   18        7.151331      7.151334   0.000000   0.000000
   19        7.628421      7.628346   0.000000   0.000000
   20        8.065656      8.065697   0.000000   0.000000
   21        8.495142      8.495176   0.000000   0.000000
   22        9.528106      9.528120   0.000000   0.000000
   23       10.137198     10.137160   0.000000   0.000000
   24       10.480406     10.480275   0.000000   0.000000
   25       11.241156     11.241226   0.000000   0.000000
   26       11.752172     11.752152   0.000000   0.000000
   27       12.247821     12.247742   0.000000   0.000000
   28       12.853411     12.853589   0.000000   0.000000
   29       13.535939     13.536328   0.000000   0.000000
   30       14.111443     14.111496   0.000000   0.000000
   31       15.123216     15.123287   0.000000   0.000000
   32       15.974942     15.975109   0.000000   0.000000
 
  0.3731782E-15  0.2000000E+00  0.3781697E-15  0.1666667E-01
    1      -12.087009    -12.087007   1.000000   1.000000
    2      -10.279881    -10.279881   1.000000   1.000000
    3       -9.276067     -9.276069   1.000000   1.000000
    4       -8.936336     -8.936344   1.000000   1.000000
    5       -8.296981     -8.296977   1.000000   1.000000
    6       -7.902556     -7.902564   1.000000   1.000000
    7       -7.160788     -7.160789   1.000000   1.000000
    8        1.951625      1.951610   0.000000   0.000000
    9        2.490377      2.490519   0.000000   0.000000
   10        2.825594      2.825572   0.000000   0.000000
   11        3.210375      3.210522   0.000000   0.000000
   12        3.714903      3.714936   0.000000   0.000000
   13        4.620610      4.620646   0.000000   0.000000
   14        5.325211      5.325223   0.000000   0.000000
   15        5.465204      5.465199   0.000000   0.000000
   16        6.963372      6.963441   0.000000   0.000000
   17        7.821947      7.822025   0.000000   0.000000
   18        8.530981      8.531094   0.000000   0.000000
   19        9.239832      9.239792   0.000000   0.000000
   20        9.436089      9.436108   0.000000   0.000000
   21       10.750563     10.750573   0.000000   0.000000
   22       12.099860     12.099719   0.000000   0.000000
   23       12.706622     12.706575   0.000000   0.000000
   24       12.809665     12.809603   0.000000   0.000000
   25       13.199409     13.199394   0.000000   0.000000
   26       13.638525     13.638446   0.000000   0.000000
   27       13.841104     13.841129   0.000000   0.000000
   28       14.407801     14.407802   0.000000   0.000000
   29       14.849131     14.848943   0.000000   0.000000
   30       15.265824     15.265880   0.000000   0.000000
   31       15.521451     15.521449   0.000000   0.000000
   32       16.305189     16.305063   0.000000   0.000000
 
  0.1250000E+00  0.2000000E+00  0.3755676E-15  0.1666667E-01
    1      -11.856583    -11.856581   1.000000   1.000000
    2      -10.144156    -10.144156   1.000000   1.000000
    3       -9.191922     -9.191923   1.000000   1.000000
    4       -8.720450     -8.720457   1.000000   1.000000
    5       -8.115009     -8.115004   1.000000   1.000000
    6       -7.722387     -7.722392   1.000000   1.000000
    7       -7.197563     -7.197564   1.000000   1.000000
    8        1.349637      1.349640  -0.038223  -0.038132
    9        2.144633      2.144631   0.000000   0.000000
   10        2.683817      2.683939   0.000000   0.000000
   11        2.927444      2.927428   0.000000   0.000000
   12        3.298600      3.298737   0.000000   0.000000
   13        3.911151      3.911192   0.000000   0.000000
   14        4.474772      4.474808   0.000000   0.000000
   15        6.628919      6.628899   0.000000   0.000000
   16        7.230032      7.230060   0.000000   0.000000
   17        8.071944      8.072183   0.000000   0.000000
   18        8.472159      8.472182   0.000000   0.000000
   19        8.824653      8.824569   0.000000   0.000000
   20        9.245941      9.245869   0.000000   0.000000
   21        9.896025      9.896032   0.000000   0.000000
   22       10.634628     10.634584   0.000000   0.000000
   23       11.331865     11.331769   0.000000   0.000000
   24       12.326617     12.326633   0.000000   0.000000
   25       12.627871     12.627872   0.000000   0.000000
   26       12.948979     12.948947   0.000000   0.000000
   27       14.188941     14.188892   0.000000   0.000000
   28       15.255341     15.255358   0.000000   0.000000
   29       15.845117     15.845104   0.000000   0.000000
   30       16.092947     16.092999   0.000000   0.000000
   31       16.515510     16.515768   0.000000   0.000000
   32       16.727005     16.726926   0.000000   0.000000
 
  0.2500000E+00  0.2000000E+00  0.3777360E-15  0.1666667E-01
    1      -11.108499    -11.108498   1.000000   1.000000
    2       -9.637355     -9.637353   1.000000   1.000000
    3       -8.842367     -8.842367   1.000000   1.000000
    4       -8.320409     -8.320414   1.000000   1.000000
    5       -7.814014     -7.814008   1.000000   1.000000
    6       -7.517888     -7.517888   1.000000   1.000000
    7       -7.237321     -7.237319   1.000000   1.000000
    8       -2.129047     -2.129044   0.473116   0.472959
    9        2.751979      2.751998   0.000000   0.000000
   10        3.097621      3.097646   0.000000   0.000000
   11        3.347340      3.347407   0.000000   0.000000
   12        3.668696      3.668850   0.000000   0.000000
   13        3.884033      3.884081   0.000000   0.000000
   14        4.027038      4.026990   0.000000   0.000000
   15        5.459367      5.459317   0.000000   0.000000
   16        5.957457      5.957383   0.000000   0.000000
   17        6.874072      6.874124   0.000000   0.000000
   18        7.283434      7.283577   0.000000   0.000000
   19        8.036754      8.036732   0.000000   0.000000
   20        8.597775      8.597712   0.000000   0.000000
   21        9.582016      9.582021   0.000000   0.000000
   22       10.265830     10.265739   0.000000   0.000000
   23       11.382967     11.383010   0.000000   0.000000
   24       11.855231     11.855227   0.000000   0.000000
   25       12.477424     12.477371   0.000000   0.000000
   26       13.591218     13.591373   0.000000   0.000000
   27       13.825276     13.825603   0.000000   0.000000
   28       14.766655     14.766608   0.000000   0.000000
   29       14.834344     14.834347   0.000000   0.000000
   30       15.170563     15.170531   0.000000   0.000000
   31       15.664355     15.664320   0.000000   0.000000
   32       16.528686     16.528649   0.000000   0.000000
 
  0.3750000E+00  0.2000000E+00  0.3729655E-15  0.1666667E-01
    1       -9.904020     -9.904020   1.000000   1.000000
    2       -8.823541     -8.823536   1.000000   1.000000
    3       -8.363783     -8.363784   1.000000   1.000000
    4       -7.868001     -7.868001   1.000000   1.000000
    5       -7.585985     -7.585980   1.000000   1.000000
    6       -7.519911     -7.519902   1.000000   1.000000
    7       -7.361605     -7.361599   1.000000   1.000000
    8       -5.067205     -5.067201   1.049441   1.049525
    9        2.409000      2.409055   0.000000   0.000000
   10        2.589588      2.589606   0.000000   0.000000
   11        3.644187      3.644184   0.000000   0.000000
   12        3.931861      3.931800   0.000000   0.000000
   13        4.170587      4.170559   0.000000   0.000000
   14        4.445875      4.445826   0.000000   0.000000
   15        4.996911      4.997034   0.000000   0.000000
   16        5.311611      5.311625   0.000000   0.000000
   17        5.998184      5.998224   0.000000   0.000000
   18        6.253560      6.253644   0.000000   0.000000
   19        8.413577      8.413486   0.000000   0.000000
   20        8.772105      8.772104   0.000000   0.000000
   21        9.363872      9.363794   0.000000   0.000000
   22       10.199851     10.199826   0.000000   0.000000
   23       10.401338     10.401395   0.000000   0.000000
   24       10.603615     10.603792   0.000000   0.000000
   25       10.996304     10.996329   0.000000   0.000000
   26       12.796977     12.797006   0.000000   0.000000
   27       12.945718     12.945756   0.000000   0.000000
   28       13.775564     13.775734   0.000000   0.000000
   29       13.974013     13.973914   0.000000   0.000000
   30       14.757337     14.757428   0.000000   0.000000
   31       15.278690     15.278870   0.000000   0.000000
   32       16.697355     16.697330   0.000000   0.000000
 
  0.5000000E+00  0.2000000E+00  0.3712308E-15  0.1666667E-01
    1       -8.596229     -8.596234   1.000000   1.000000
    2       -8.118862     -8.118851   1.000000   1.000000
    3       -8.076685     -8.076686   1.000000   1.000000
    4       -7.967363     -7.967358   1.000000   1.000000
    5       -7.756031     -7.756026   1.000000   1.000000
    6       -7.527985     -7.527977   1.000000   1.000000
    7       -7.347414     -7.347414   1.000000   1.000000
    8       -6.976950     -6.976940   1.000000   1.000000
    9        1.787962      1.788019   0.000000   0.000000
   10        2.264173      2.264144   0.000000   0.000000
   11        3.457076      3.457039   0.000000   0.000000
   12        3.507153      3.507133   0.000000   0.000000
   13        4.150184      4.150177   0.000000   0.000000
   14        4.538582      4.538551   0.000000   0.000000
   15        6.039679      6.039924   0.000000   0.000000
   16        6.300448      6.300470   0.000000   0.000000
   17        6.651118      6.651051   0.000000   0.000000
   18        6.986336      6.986338   0.000000   0.000000
   19        7.683320      7.683257   0.000000   0.000000
   20        7.925223      7.925247   0.000000   0.000000
   21        8.851616      8.851720   0.000000   0.000000
   22        9.397908      9.397869   0.000000   0.000000
   23       10.692079     10.692044   0.000000   0.000000
   24       10.944040     10.943964   0.000000   0.000000
   25       11.244448     11.244370   0.000000   0.000000
   26       12.024498     12.024623   0.000000   0.000000
   27       12.295236     12.295308   0.000000   0.000000
   28       13.073161     13.073336   0.000000   0.000000
   29       13.761090     13.761154   0.000000   0.000000
   30       14.005747     14.005721   0.000000   0.000000
   31       14.800433     14.800392   0.000000   0.000000
   32       15.103399     15.103660   0.000000   0.000000
 
 -0.3750000E+00  0.2000000E+00  0.3816392E-15  0.1666667E-01
    1       -9.634062     -9.634060   1.000000   1.000000
    2       -8.662368     -8.662365   1.000000   1.000000
    3       -8.208559     -8.208559   1.000000   1.000000
    4       -8.117867     -8.117869   1.000000   1.000000
    5       -7.882664     -7.882661   1.000000   1.000000
    6       -7.633501     -7.633497   1.000000   1.000000
    7       -7.572218     -7.572211   1.000000   1.000000
    8       -4.995683     -4.995677   1.042678   1.042754
    9        2.046023      2.046088   0.000000   0.000000
   10        2.609345      2.609290   0.000000   0.000000
   11        3.413150      3.413110   0.000000   0.000000
   12        3.552075      3.552144   0.000000   0.000000
   13        4.092743      4.092804   0.000000   0.000000
   14        4.721136      4.721165   0.000000   0.000000
   15        5.587765      5.587774   0.000000   0.000000
   16        5.799826      5.799868   0.000000   0.000000
   17        7.095320      7.095306   0.000000   0.000000
   18        7.888418      7.888397   0.000000   0.000000
   19        8.405162      8.405109   0.000000   0.000000
   20        8.985924      8.985950   0.000000   0.000000
   21        9.284263      9.284237   0.000000   0.000000
   22        9.915432      9.915411   0.000000   0.000000
   23       10.364394     10.364338   0.000000   0.000000
   24       10.619271     10.619400   0.000000   0.000000
   25       11.278840     11.278778   0.000000   0.000000
   26       12.335285     12.335268   0.000000   0.000000
   27       12.765710     12.765722   0.000000   0.000000
   28       13.504070     13.504053   0.000000   0.000000
   29       13.954749     13.955083   0.000000   0.000000
   30       14.200602     14.200583   0.000000   0.000000
   31       14.628497     14.628906   0.000000   0.000000
   32       14.736676     14.736665   0.000000   0.000000
 
 -0.2500000E+00  0.2000000E+00  0.3781697E-15  0.1666667E-01
    1      -10.959495    -10.959492   1.000000   1.000000
    2       -9.456726     -9.456726   1.000000   1.000000
    3       -8.639721     -8.639731   1.000000   1.000000
    4       -8.606616     -8.606609   1.000000   1.000000
    5       -8.089633     -8.089629   1.000000   1.000000
    6       -7.819007     -7.819010   1.000000   1.000000
    7       -7.185879     -7.185876   1.000000   1.000000
    8       -2.126538     -2.126531   0.451979   0.451848
    9        2.666410      2.666410   0.000000   0.000000
   10        3.051820      3.051938   0.000000   0.000000
   11        3.240332      3.240310   0.000000   0.000000
   12        3.489922      3.489923   0.000000   0.000000
   13        3.671631      3.671746   0.000000   0.000000
   14        4.644223      4.644317   0.000000   0.000000
   15        5.847135      5.847144   0.000000   0.000000
   16        6.624583      6.624638   0.000000   0.000000
   17        6.861268      6.861187   0.000000   0.000000
   18        8.172220      8.172198   0.000000   0.000000
   19        8.966467      8.966414   0.000000   0.000000
   20        9.313526      9.313463   0.000000   0.000000
   21       10.160381     10.160311   0.000000   0.000000
   22       10.964767     10.964794   0.000000   0.000000
   23       11.217898     11.217934   0.000000   0.000000
   24       11.994704     11.994711   0.000000   0.000000
   25       12.203381     12.203338   0.000000   0.000000
   26       12.994164     12.994122   0.000000   0.000000
   27       13.339431     13.339567   0.000000   0.000000
   28       13.485945     13.486175   0.000000   0.000000
   29       13.804495     13.804439   0.000000   0.000000
   30       14.681143     14.681247   0.000000   0.000000
   31       14.786236     14.786200   0.000000   0.000000
   32       15.100023     15.099897   0.000000   0.000000
 
 -0.1250000E+00  0.2000000E+00  0.3799044E-15  0.1666667E-01
    1      -11.787282    -11.787279   1.000000   1.000000
    2      -10.035230    -10.035230   1.000000   1.000000
    3       -9.064208     -9.064212   1.000000   1.000000
    4       -8.902266     -8.902270   1.000000   1.000000
    5       -8.280191     -8.280187   1.000000   1.000000
    6       -7.935407     -7.935414   1.000000   1.000000
    7       -7.117178     -7.117177   1.000000   1.000000
    8        1.330476      1.330482  -0.003793  -0.003718
    9        2.214411      2.214393   0.000000   0.000000
   10        2.760939      2.761078   0.000000   0.000000
   11        2.986498      2.986500   0.000000   0.000000
   12        3.433323      3.433455   0.000000   0.000000
   13        3.894354      3.894407   0.000000   0.000000
   14        4.290560      4.290574   0.000000   0.000000
   15        7.260283      7.260391   0.000000   0.000000
   16        7.674933      7.674946   0.000000   0.000000
   17        7.971870      7.971862   0.000000   0.000000
   18        8.192569      8.192616   0.000000   0.000000
   19        9.282300      9.282272   0.000000   0.000000
   20        9.839562      9.839517   0.000000   0.000000
   21        9.959918      9.959871   0.000000   0.000000
   22       10.990393     10.990374   0.000000   0.000000
   23       11.513654     11.513602   0.000000   0.000000
   24       12.450525     12.450490   0.000000   0.000000
   25       12.549862     12.549946   0.000000   0.000000
   26       13.015417     13.015356   0.000000   0.000000
   27       13.452066     13.452000   0.000000   0.000000
   28       14.395822     14.395896   0.000000   0.000000
   29       15.137502     15.137459   0.000000   0.000000
   30       15.442526     15.442480   0.000000   0.000000
   31       15.956153     15.956332   0.000000   0.000000
   32       16.440173     16.440235   0.000000   0.000000
 
  0.3784340E-15  0.4000000E+00  0.3764350E-15  0.1666667E-01
    1      -11.964156    -11.964153   1.000000   1.000000
    2      -10.004204    -10.004208   1.000000   1.000000
    3       -9.360963     -9.360966   1.000000   1.000000
    4       -8.923870     -8.923871   1.000000   1.000000
    5       -8.589307     -8.589308   1.000000   1.000000
    6       -8.382549     -8.382554   1.000000   1.000000
    7       -7.014793     -7.014793   1.000000   1.000000
    8        2.157062      2.157065   0.000000   0.000000
    9        2.522344      2.522381   0.000000   0.000000
   10        2.833481      2.833564   0.000000   0.000000
   11        3.215629      3.215748   0.000000   0.000000
   12        4.192810      4.192832   0.000000   0.000000
   13        4.805539      4.805624   0.000000   0.000000
   14        5.299664      5.299678   0.000000   0.000000
   15        5.454539      5.454531   0.000000   0.000000
   16        6.783146      6.783274   0.000000   0.000000
   17        8.758718      8.758713   0.000000   0.000000
   18        9.491721      9.491704   0.000000   0.000000
   19        9.771316      9.771448   0.000000   0.000000
   20       10.238115     10.238153   0.000000   0.000000
   21       10.691117     10.691081   0.000000   0.000000
   22       11.242928     11.242842   0.000000   0.000000
   23       11.603041     11.603000   0.000000   0.000000
   24       12.269918     12.269879   0.000000   0.000000
   25       12.809752     12.809710   0.000000   0.000000
   26       13.277308     13.277272   0.000000   0.000000
   27       13.793449     13.793415   0.000000   0.000000
   28       14.604199     14.604183   0.000000   0.000000
   29       14.657904     14.657815   0.000000   0.000000
   30       15.025422     15.025366   0.000000   0.000000
   31       15.399168     15.399208   0.000000   0.000000
   32       16.123826     16.123959   0.000000   0.000000
 
  0.1250000E+00  0.4000000E+00  0.3764350E-15  0.1666667E-01
    1      -11.727107    -11.727104   1.000000   1.000000
    2       -9.907041     -9.907044   1.000000   1.000000
    3       -9.112475     -9.112481   1.000000   1.000000
    4       -8.899305     -8.899304   1.000000   1.000000
    5       -8.412896     -8.412894   1.000000   1.000000
    6       -8.155598     -8.155602   1.000000   1.000000
    7       -7.040351     -7.040350   1.000000   1.000000
    8        1.328568      1.328573  -0.038621  -0.038534
    9        2.306873      2.306878   0.000000   0.000000
   10        2.737439      2.737505   0.000000   0.000000
   11        3.075091      3.075127   0.000000   0.000000
   12        3.259868      3.260001   0.000000   0.000000
   13        4.137024      4.137039   0.000000   0.000000
   14        4.435798      4.435854   0.000000   0.000000
   15        7.015942      7.016141   0.000000   0.000000
   16        7.866619      7.866596   0.000000   0.000000
   17        8.236177      8.236110   0.000000   0.000000
   18        8.828044      8.828110   0.000000   0.000000
   19        9.301718      9.301693   0.000000   0.000000
   20        9.853944      9.853946   0.000000   0.000000
   21       10.237483     10.237413   0.000000   0.000000
   22       10.978208     10.978139   0.000000   0.000000
   23       11.522958     11.522915   0.000000   0.000000
   24       12.284656     12.284555   0.000000   0.000000
   25       12.476392     12.476414   0.000000   0.000000
   26       12.668865     12.668845   0.000000   0.000000
   27       13.289658     13.289641   0.000000   0.000000
   28       13.745734     13.745868   0.000000   0.000000
   29       14.553690     14.553623   0.000000   0.000000
   30       15.147805     15.147753   0.000000   0.000000
   31       16.071219     16.071356   0.000000   0.000000
   32       16.330661     16.330816   0.000000   0.000000
 
  0.2500000E+00  0.4000000E+00  0.3781697E-15  0.1666667E-01
    1      -10.976787    -10.976785   1.000000   1.000000
    2       -9.464863     -9.464863   1.000000   1.000000
    3       -8.652978     -8.652988   1.000000   1.000000
    4       -8.609315     -8.609309   1.000000   1.000000
    5       -8.057140     -8.057135   1.000000   1.000000
    6       -7.820182     -7.820183   1.000000   1.000000
    7       -7.139649     -7.139646   1.000000   1.000000
    8       -2.128775     -2.128770   0.486029   0.485856
    9        2.689995      2.690019   0.000000   0.000000
   10        3.048620      3.048653   0.000000   0.000000
   11        3.367799      3.367895   0.000000   0.000000
   12        3.430127      3.430110   0.000000   0.000000
   13        3.761687      3.761791   0.000000   0.000000
   14        4.456418      4.456424   0.000000   0.000000
   15        5.850115      5.850159   0.000000   0.000000
   16        6.407392      6.407349   0.000000   0.000000