       N       E                     dE             d eps       ncg     rms          rms(c)
DAV:   1     0.119168108964E+03    0.11917E+03   -0.96963E+03 15992   0.773E+02
DAV:   2    -0.337822590358E+02   -0.15295E+03   -0.14922E+03 20688   0.312E+02
DAV:   3    -0.424274067292E+02   -0.86451E+01   -0.85880E+01 27240   0.580E+01
DAV:   4    -0.426924299244E+02   -0.26502E+00   -0.26234E+00 23664   0.814E+00
DAV:   5    -0.427004706799E+02   -0.80408E-02   -0.80338E-02 25632   0.122E+00    0.343E+01
DAV:   6    -0.397202159962E+02    0.29803E+01   -0.87836E+00 23048   0.219E+01    0.142E+01
DAV:   7    -0.392615180502E+02    0.45870E+00   -0.10113E+00 19948   0.596E+00    0.664E+00
DAV:   8    -0.392282765131E+02    0.33242E-01   -0.42756E-01 24528   0.344E+00    0.147E+00
DAV:   9    -0.392249243725E+02    0.33521E-02   -0.52070E-02 19964   0.131E+00    0.973E-01
DAV:  10    -0.392237579813E+02    0.11664E-02   -0.16321E-02 21760   0.700E-01    0.488E-01
DAV:  11    -0.392236934874E+02    0.64494E-04   -0.15237E-03 20512   0.271E-01    0.950E-02
DAV:  12    -0.392239080443E+02   -0.21456E-03   -0.44408E-04 18448   0.133E-01    0.317E-02
DAV:  13    -0.392239242888E+02   -0.16245E-04   -0.51953E-05 11856   0.498E-02
   1 F= -.39223924E+02 E0= -.39223831E+02  d E =-.392239E+02
       N       E                     dE             d eps       ncg     rms          rms(c)
DAV:   1    -0.392145633641E+02    0.93447E-02   -0.22171E+00 18552   0.150E+01    0.799E-01
DAV:   2    -0.392345552557E+02   -0.19992E-01   -0.27313E-01 17076   0.345E+00    0.529E-01
DAV:   3    -0.392333601804E+02    0.11951E-02   -0.53624E-03 24036   0.558E-01    0.301E-01
DAV:   4    -0.392328529174E+02    0.50726E-03   -0.18231E-03 22752   0.330E-01    0.880E-02
DAV:   5    -0.392328594838E+02   -0.65664E-05   -0.27418E-04 17632   0.129E-01
   2 F= -.39232859E+02 E0= -.39232764E+02  d E =-.893519E-02
       N       E                     dE             d eps       ncg     rms          rms(c)
DAV:   1    -0.392329872895E+02   -0.13437E-03   -0.14863E-01 18780   0.388E+00    0.221E-01
DAV:   2    -0.392343326193E+02   -0.13453E-02   -0.18568E-02 17036   0.892E-01    0.130E-01
DAV:   3    -0.392342470173E+02    0.85602E-04   -0.36557E-04 23156   0.146E-01
   3 F= -.39234247E+02 E0= -.39234148E+02  d E =-.103227E-01
       N       E                     dE             d eps       ncg     rms          rms(c)
DAV:   1    -0.392450107834E+02   -0.10678E-01   -0.57652E-01 15640   0.620E+00    0.569E-01
DAV:   2    -0.392439483895E+02    0.10624E-02   -0.35184E-02 21344   0.159E+00    0.250E-01
DAV:   3    -0.392430319907E+02    0.91640E-03   -0.16495E-03 23080   0.307E-01    0.137E-01
DAV:   4    -0.392427673742E+02    0.26462E-03   -0.74754E-04 22856   0.207E-01    0.607E-02
DAV:   5    -0.392427772153E+02   -0.98411E-05   -0.67077E-05 11876   0.671E-02
   4 F= -.39242777E+02 E0= -.39242698E+02  d E =-.853020E-02
       N       E                     dE             d eps       ncg     rms          rms(c)
DAV:   1    -0.392459716401E+02   -0.32043E-02   -0.36337E-01 15640   0.493E+00    0.463E-01
DAV:   2    -0.392452087256E+02    0.76291E-03   -0.22330E-02 21440   0.127E+00    0.203E-01
DAV:   3    -0.392446109612E+02    0.59776E-03   -0.10734E-03 23280   0.246E-01    0.109E-01
DAV:   4    -0.392444374281E+02    0.17353E-03   -0.46339E-04 19264   0.166E-01    0.469E-02
DAV:   5    -0.392444445948E+02   -0.71668E-05   -0.50471E-05 11532   0.590E-02
   5 F= -.39244445E+02 E0= -.39244386E+02  d E =-.101976E-01
       N       E                     dE             d eps       ncg     rms          rms(c)
DAV:   1    -0.392484573593E+02   -0.40199E-02   -0.10160E-01 15656   0.268E+00    0.230E-01
DAV:   2    -0.392484410259E+02    0.16333E-04   -0.68178E-03 19624   0.663E-01    0.101E-01
DAV:   3    -0.392482738340E+02    0.16719E-03   -0.32453E-04 20916   0.140E-01    0.463E-02
DAV:   4    -0.392482427900E+02    0.31044E-04   -0.91368E-05 11352   0.833E-02
   6 F= -.39248243E+02 E0= -.39248196E+02  d E =-.379820E-02
       N       E                     dE             d eps       ncg     rms          rms(c)
DAV:   1    -0.392572353940E+02   -0.89616E-02   -0.91724E-01 15640   0.807E+00    0.688E-01
DAV:   2    -0.392571922828E+02    0.43111E-04   -0.61531E-02 19552   0.199E+00    0.303E-01
DAV:   3    -0.392557111068E+02    0.14812E-02   -0.29504E-03 24516   0.421E-01    0.143E-01
DAV:   4    -0.392554271771E+02    0.28393E-03   -0.95255E-04 23480   0.239E-01    0.577E-02
DAV:   5    -0.392554358807E+02   -0.87037E-05   -0.91558E-05 12404   0.805E-02
   7 F= -.39255436E+02 E0= -.39255436E+02  d E =-.109913E-01
       N       E                     dE             d eps       ncg     rms          rms(c)
DAV:   1    -0.392576397062E+02   -0.22125E-02   -0.37140E+00 15640   0.162E+01    0.145E+00
DAV:   2    -0.392572960513E+02    0.34365E-03   -0.24761E-01 19500   0.400E+00    0.622E-01
DAV:   3    -0.392511575715E+02    0.61385E-02   -0.12093E-02 23864   0.856E-01    0.287E-01
DAV:   4    -0.392500385321E+02    0.11190E-02   -0.38685E-03 24368   0.480E-01    0.114E-01
DAV:   5    -0.392500785172E+02   -0.39985E-04   -0.45198E-04 20880   0.161E-01
   8 F= -.39250079E+02 E0= -.39250146E+02  d E =-.563392E-02
       N       E                     dE             d eps       ncg     rms          rms(c)
DAV:   1    -0.392608237376E+02   -0.10785E-01   -0.18038E+00 15640   0.113E+01    0.994E-01
DAV:   2    -0.392601125035E+02    0.71123E-03   -0.12148E-01 19944   0.283E+00    0.432E-01
DAV:   3    -0.392571654606E+02    0.29470E-02   -0.57004E-03 23252   0.578E-01    0.204E-01
DAV:   4    -0.392565857838E+02    0.57968E-03   -0.19295E-03 23672   0.335E-01    0.856E-02
DAV:   5    -0.392566016797E+02   -0.15896E-04   -0.21619E-04 16172   0.116E-01
   9 F= -.39256602E+02 E0= -.39256631E+02  d E =-.121571E-01
       N       E                     dE             d eps       ncg     rms          rms(c)
DAV:   1    -0.392588703512E+02   -0.22846E-02   -0.30452E-02 18752   0.165E+00    0.131E-01
DAV:   2    -0.392589376875E+02   -0.67336E-04   -0.25601E-03 18800   0.392E-01    0.459E-02
DAV:   3    -0.392589229829E+02    0.14705E-04   -0.95024E-05 13040   0.771E-02
  10 F= -.39258923E+02 E0= -.39258951E+02  d E =-.232130E-02
       N       E                     dE             d eps       ncg     rms          rms(c)
DAV:   1    -0.392629574357E+02   -0.40197E-02   -0.27216E-01 18584   0.493E+00    0.387E-01
DAV:   2    -0.392634648125E+02   -0.50738E-03   -0.23508E-02 18700   0.120E+00    0.146E-01
DAV:   3    -0.392633571927E+02    0.10762E-03   -0.12238E-03 28644   0.233E-01    0.973E-02
DAV:   4    -0.392633301516E+02    0.27041E-04   -0.99181E-05 12492   0.753E-02
  11 F= -.39263330E+02 E0= -.39263351E+02  d E =-.672847E-02
       N       E                     dE             d eps       ncg     rms          rms(c)
DAV:   1    -0.392655042378E+02   -0.21470E-02   -0.55534E-02 17368   0.218E+00    0.148E-01
DAV:   2    -0.392657461829E+02   -0.24195E-03   -0.46112E-03 18144   0.532E-01    0.756E-02
DAV:   3    -0.392657294511E+02    0.16732E-04   -0.13094E-04 15852   0.877E-02
  12 F= -.39265729E+02 E0= -.39265745E+02  d E =-.239930E-02
       N       E                     dE             d eps       ncg     rms          rms(c)
DAV:   1    -0.392664702472E+02   -0.72406E-03   -0.12028E-01 17248   0.320E+00    0.215E-01
DAV:   2    -0.392669467638E+02   -0.47652E-03   -0.99811E-03 17984   0.775E-01    0.973E-02
DAV:   3    -0.392669051097E+02    0.41654E-04   -0.34852E-04 21036   0.136E-01
  13 F= -.39266905E+02 E0= -.39266911E+02  d E =-.357496E-02
       N       E                     dE             d eps       ncg     rms          rms(c)
DAV:   1    -0.392680869667E+02   -0.11402E-02   -0.45472E-02 18804   0.201E+00    0.147E-01
DAV:   2    -0.392682288039E+02   -0.14184E-03   -0.36984E-03 18128   0.463E-01    0.613E-02
DAV:   3    -0.392682188104E+02    0.99936E-05   -0.12965E-04 15576   0.875E-02
  14 F= -.39268219E+02 E0= -.39268219E+02  d E =-.131370E-02
       N       E                     dE             d eps       ncg     rms          rms(c)
DAV:   1    -0.392691770216E+02   -0.94822E-03   -0.41340E-01 18680   0.606E+00    0.416E-01
DAV:   2    -0.392706162396E+02   -0.14392E-02   -0.33681E-02 17892   0.140E+00    0.164E-01
DAV:   3    -0.392705409706E+02    0.75269E-04   -0.14362E-03 28752   0.257E-01    0.103E-01
DAV:   4    -0.392705138841E+02    0.27086E-04   -0.11697E-04 12548   0.837E-02
  15 F= -.39270514E+02 E0= -.39270494E+02  d E =-.360877E-02
       N       E                     dE             d eps       ncg     rms          rms(c)
DAV:   1    -0.392718553749E+02   -0.13144E-02   -0.35985E-02 16988   0.178E+00    0.149E-01
DAV:   2    -0.392720462245E+02   -0.19085E-03   -0.36025E-03 18424   0.441E-01    0.786E-02
DAV:   3    -0.392720024096E+02    0.43815E-04   -0.98428E-05 14684   0.870E-02
  16 F= -.39272002E+02 E0= -.39271986E+02  d E =-.148853E-02
       N       E                     dE             d eps       ncg     rms          rms(c)
DAV:   1    -0.392722359476E+02   -0.18972E-03   -0.36810E-02 17024   0.181E+00    0.135E-01
DAV:   2    -0.392724175070E+02   -0.18156E-03   -0.36553E-03 18576   0.438E-01    0.708E-02
DAV:   3    -0.392723785453E+02    0.38962E-04   -0.99310E-05 16256   0.837E-02
  17 F= -.39272379E+02 E0= -.39272365E+02  d E =-.186466E-02
       N       E                     dE             d eps       ncg     rms          rms(c)
DAV:   1    -0.392733418818E+02   -0.92437E-03   -0.21688E-02 15956   0.136E+00    0.143E-01
DAV:   2    -0.392733457865E+02   -0.39047E-05   -0.21295E-03 19432   0.375E-01    0.472E-02
DAV:   3    -0.392733177138E+02    0.28073E-04   -0.80882E-05 11772   0.735E-02
  18 F= -.39273318E+02 E0= -.39273309E+02  d E =-.939168E-03
       N       E                     dE             d eps       ncg     rms          rms(c)
DAV:   1    -0.392753972985E+02   -0.20515E-02   -0.19900E-01 15872   0.412E+00    0.436E-01
DAV:   2    -0.392754748764E+02   -0.77578E-04   -0.19613E-02 18968   0.114E+00    0.145E-01
DAV:   3    -0.392752086151E+02    0.26626E-03   -0.93158E-04 22712   0.225E-01    0.839E-02
DAV:   4    -0.392751668903E+02    0.41725E-04   -0.18971E-04 16540   0.914E-02
  19 F= -.39275167E+02 E0= -.39275171E+02  d E =-.278835E-02
       N       E                     dE             d eps       ncg     rms          rms(c)
DAV:   1    -0.392761129461E+02   -0.90433E-03   -0.23727E-02 18292   0.145E+00    0.900E-02
DAV:   2    -0.392762815796E+02   -0.16863E-03   -0.22424E-03 18632   0.320E-01    0.575E-02
DAV:   3    -0.392762698116E+02    0.11768E-04   -0.40997E-05 14084   0.523E-02
  20 F= -.39276270E+02 E0= -.39276277E+02  d E =-.110292E-02
       N       E                     dE             d eps       ncg     rms          rms(c)
DAV:   1    -0.392764075860E+02   -0.12601E-03   -0.16906E-02 18416   0.122E+00    0.608E-02
DAV:   2    -0.392765244219E+02   -0.11684E-03   -0.16034E-03 18804   0.267E-01    0.416E-02
DAV:   3    -0.392765176632E+02    0.67587E-05   -0.26617E-05 12816   0.418E-02
  21 F= -.39276518E+02 E0= -.39276527E+02  d E =-.135077E-02
       N       E                     dE             d eps       ncg     rms          rms(c)
DAV:   1    -0.392772573892E+02   -0.73297E-03   -0.16465E-02 16256   0.115E+00    0.977E-02
DAV:   2    -0.392773021768E+02   -0.44788E-04   -0.13235E-03 20324   0.274E-01    0.468E-02
DAV:   3    -0.392772835233E+02    0.18653E-04   -0.46523E-05 10840   0.551E-02
  22 F= -.39277284E+02 E0= -.39277293E+02  d E =-.765860E-03
       N       E                     dE             d eps       ncg     rms          rms(c)
DAV:   1    -0.392780932231E+02   -0.79105E-03   -0.14962E-01 16232   0.348E+00    0.296E-01
DAV:   2    -0.392784626174E+02   -0.36939E-03   -0.11880E-02 19984   0.828E-01    0.142E-01
DAV:   3    -0.392782957483E+02    0.16687E-03   -0.53959E-04 23580   0.168E-01    0.657E-02
DAV:   4    -0.392782769144E+02    0.18834E-04   -0.62744E-05 11112   0.581E-02
  23 F= -.39278277E+02 E0= -.39278290E+02  d E =-.175925E-02
       N       E                     dE             d eps       ncg     rms          rms(c)
DAV:   1    -0.392789551576E+02   -0.65941E-03   -0.10705E-02 17036   0.939E-01    0.419E-02
DAV:   2    -0.392790174435E+02   -0.62286E-04   -0.84539E-04 18052   0.208E-01
  24 F= -.39279017E+02 E0= -.39279031E+02  d E =-.740529E-03
       N       E                     dE             d eps       ncg     rms          rms(c)
DAV:   1    -0.392803870191E+02   -0.14319E-02   -0.98360E-02 17024   0.284E+00    0.134E-01
DAV:   2    -0.392809019815E+02   -0.51496E-03   -0.75990E-03 17996   0.630E-01    0.852E-02
DAV:   3    -0.392808609193E+02    0.41062E-04   -0.17160E-04 19036   0.104E-01
  25 F= -.39280861E+02 E0= -.39280878E+02  d E =-.258400E-02
       N       E                     dE             d eps       ncg     rms          rms(c)
DAV:   1    -0.392809460728E+02   -0.44091E-04   -0.38932E-01 17072   0.565E+00    0.258E-01
DAV:   2    -0.392830143218E+02   -0.20682E-02   -0.29991E-02 17832   0.125E+00    0.158E-01
DAV:   3    -0.392828846501E+02    0.12967E-03   -0.68136E-04 22184   0.203E-01    0.102E-01
DAV:   4    -0.392828266619E+02    0.57988E-04   -0.27342E-04 18180   0.130E-01
  26 F= -.39282827E+02 E0= -.39282851E+02  d E =-.454975E-02
       N       E                     dE             d eps       ncg     rms          rms(c)
DAV:   1    -0.392841386953E+02   -0.12540E-02   -0.54150E-02 16604   0.207E+00    0.112E-01
DAV:   2    -0.392844231781E+02   -0.28448E-03   -0.41463E-03 17424   0.454E-01    0.633E-02
DAV:   3    -0.392843988473E+02    0.24331E-04   -0.84336E-05 14344   0.759E-02
  27 F= -.39284399E+02 E0= -.39284425E+02  d E =-.157219E-02
       N       E                     dE             d eps       ncg     rms          rms(c)
DAV:   1    -0.392841693381E+02    0.25384E-03   -0.29210E-01 16512   0.478E+00    0.248E-01
DAV:   2    -0.392857263614E+02   -0.15570E-02   -0.22340E-02 17336   0.105E+00    0.133E-01
DAV:   3    -0.392856081555E+02    0.11821E-03   -0.51860E-04 23684   0.171E-01    0.701E-02
DAV:   4    -0.392855676051E+02    0.40550E-04   -0.16525E-04 16244   0.958E-02
  28 F= -.39285568E+02 E0= -.39285596E+02  d E =-.274094E-02
       N       E                     dE             d eps       ncg     rms          rms(c)
DAV:   1    -0.392860555863E+02   -0.44743E-03   -0.24959E-02 17040   0.143E+00    0.691E-02
DAV:   2    -0.392862016651E+02   -0.14608E-03   -0.20523E-03 17040   0.307E-01    0.354E-02
DAV:   3    -0.392861928158E+02    0.88492E-05   -0.31974E-05 12204   0.477E-02
  29 F= -.39286193E+02 E0= -.39286222E+02  d E =-.625211E-03
       N       E                     dE             d eps       ncg     rms          rms(c)
DAV:   1    -0.392865619313E+02   -0.36027E-03   -0.22339E-01 16912   0.426E+00    0.203E-01
DAV:   2    -0.392878708995E+02   -0.13090E-02   -0.18428E-02 16384   0.919E-01    0.103E-01
DAV:   3    -0.392877923838E+02    0.78516E-04   -0.36513E-04 23280   0.141E-01
  30 F= -.39287792E+02 E0= -.39287824E+02  d E =-.222478E-02
       N       E                     dE             d eps       ncg     rms          rms(c)
DAV:   1    -0.392848652163E+02    0.30057E-02   -0.89169E-01 16848   0.853E+00    0.411E-01
DAV:   2    -0.392900669249E+02   -0.52017E-02   -0.73519E-02 16352   0.184E+00    0.207E-01
DAV:   3    -0.392897440818E+02    0.32284E-03   -0.14440E-03 23780   0.282E-01    0.111E-01
DAV:   4    -0.392896111465E+02    0.13294E-03   -0.50070E-04 18648   0.164E-01    0.189E-02
DAV:   5    -0.392896149655E+02   -0.38190E-05   -0.32367E-05 11396   0.496E-02
  31 F= -.39289615E+02 E0= -.39289648E+02  d E =-.404736E-02
       N       E                     dE             d eps       ncg     rms          rms(c)
DAV:   1    -0.392923581506E+02   -0.27470E-02   -0.13976E-01 16200   0.321E+00    0.174E-01
DAV:   2    -0.392930214001E+02   -0.66325E-03   -0.10624E-02 17912   0.727E-01    0.981E-02
DAV:   3    -0.392929462330E+02    0.75167E-04   -0.28044E-04 22456   0.126E-01
  32 F= -.39292946E+02 E0= -.39292981E+02  d E =-.333127E-02
       N       E                     dE             d eps       ncg     rms          rms(c)
DAV:   1    -0.392932123698E+02   -0.19097E-03   -0.60299E-02 16400   0.212E+00    0.119E-01
DAV:   2    -0.392934708575E+02   -0.25849E-03   -0.44666E-03 18400   0.470E-01    0.660E-02
DAV:   3    -0.392934346241E+02    0.36233E-04   -0.11865E-04 16356   0.851E-02
  33 F= -.39293435E+02 E0= -.39293470E+02  d E =-.381966E-02
       N       E                     dE             d eps       ncg     rms          rms(c)
DAV:   1    -0.392938946383E+02   -0.42378E-03   -0.10823E-02 15964   0.769E-01    0.459E-02
DAV:   2    -0.392939162384E+02   -0.21600E-04   -0.43767E-04 18684   0.160E-01
  34 F= -.39293916E+02 E0= -.39293951E+02  d E =-.481614E-03
       N       E                     dE             d eps       ncg     rms          rms(c)
DAV:   1    -0.392949333290E+02   -0.10387E-02   -0.99856E-02 15688   0.235E+00    0.139E-01
DAV:   2    -0.392951173165E+02   -0.18399E-03   -0.39589E-03 18772   0.489E-01    0.770E-02
DAV:   3    -0.392950717825E+02    0.45534E-04   -0.14284E-04 17968   0.819E-02
  35 F= -.39295072E+02 E0= -.39295109E+02  d E =-.163716E-02
       N       E                     dE             d eps       ncg     rms          rms(c)
DAV:   1    -0.392957511876E+02   -0.63387E-03   -0.23273E-02 16652   0.130E+00    0.843E-02
DAV:   2    -0.392958520990E+02   -0.10091E-03   -0.18251E-03 18684   0.300E-01    0.532E-02
DAV:   3    -0.392958285713E+02    0.23528E-04   -0.50099E-05 11900   0.566E-02
  36 F= -.39295829E+02 E0= -.39295867E+02  d E =-.756789E-03
       N       E                     dE             d eps       ncg     rms          rms(c)
DAV:   1    -0.392958508221E+02    0.12769E-05   -0.26082E-03 16704   0.431E-01    0.309E-02
DAV:   2    -0.392958599305E+02   -0.91085E-05   -0.19728E-04 18064   0.969E-02
  37 F= -.39295860E+02 E0= -.39295899E+02  d E =-.788148E-03
