unknown system                          
           1
     6.219452   -0.238882   -0.889170
    -1.816017    4.755418    0.425503
    -3.784094   -0.298106    6.144979
   H    Nb   H    Sr   H    Nb   H    Sr   H 
   1   1   4   1   1   1   5   1   3
Direct configuration=     1
   0.02853219  0.83062581  0.28403608
   0.15346504  0.09788466  0.52069902
   0.66641335  0.86707715  0.69704637
   0.22005091  0.76627351  0.64666735
   0.81588372  0.81687586  0.44664049
   0.15101212  0.03375941  0.77598201
   0.42069904  0.02752039  0.19611198
   0.93049675  0.65762054  0.01596025
   0.66911712  0.79183175  0.95617419
   0.69003420  0.46772895  0.11024632
   0.38223350  0.28875999  0.41074646
   0.38867502  0.46568397  0.69925517
   0.40589072  0.63877280  0.03692647
   0.81266505  0.09958646  0.17029250
   0.88689561  0.46514846  0.73059202
   0.92298401  0.24682047  0.49586905
   0.53487847  0.13738365  0.79587218
   0.97324017  0.09682416  0.99892509
unknown system                          
           1
     6.228252   -0.246881   -0.891551
    -1.823507    4.758381    0.434208
    -3.792020   -0.283379    6.136800
   H    Nb   H    Sr   H    Nb   H    Sr   H 
   1   1   4   1   1   1   5   1   3
Direct configuration=     2
   0.02851260  0.83055708  0.28392231
   0.15167549  0.09630431  0.51984768
   0.66542206  0.86674913  0.69609371
   0.22044634  0.76662845  0.64672629
   0.81656952  0.81761250  0.44669420
   0.15108777  0.03327157  0.77610621
   0.42060497  0.02770671  0.19591742
   0.93095902  0.65745054  0.01618984
   0.67012647  0.79402136  0.95745425
   0.69018899  0.46702451  0.11076799
   0.38246355  0.28956692  0.41059381
   0.38887053  0.46531820  0.69955068
   0.40623371  0.63901550  0.03705743
   0.81258779  0.09931569  0.16990993
   0.88665593  0.46531402  0.73040181
   0.92278243  0.24670509  0.49591927
   0.53536339  0.13747240  0.79595643
   0.97261642  0.09614402  0.99893372
unknown system                          
           1
     6.228466   -0.247076   -0.891609
    -1.823689    4.758453    0.434420
    -3.792214   -0.283020    6.136601
   H    Nb   H    Sr   H    Nb   H    Sr   H 
   1   1   4   1   1   1   5   1   3
Direct configuration=     3
   0.02851212  0.83055541  0.28391953
   0.15163187  0.09626580  0.51982693
   0.66539788  0.86674117  0.69607046
   0.22045597  0.76663711  0.64672772
   0.81658623  0.81763046  0.44669549
   0.15108961  0.03325968  0.77610926
   0.42060267  0.02771126  0.19591266
   0.93097028  0.65744640  0.01619546
   0.67015111  0.79407465  0.95748544
   0.69019278  0.46700732  0.11078075
   0.38246915  0.28958660  0.41059006
   0.38887531  0.46530928  0.69955791
   0.40624207  0.63902142  0.03706063
   0.81258590  0.09930912  0.16990060
   0.88665009  0.46531806  0.73039716
   0.92277752  0.24670226  0.49592050
   0.53537521  0.13747458  0.79595849
   0.97260123  0.09612742  0.99893395
unknown system                          
           1
     6.238381   -0.253510   -0.893013
    -1.829829    4.762901    0.445604
    -3.800422   -0.265994    6.124333
   H    Nb   H    Sr   H    Nb   H    Sr   H 
   1   1   4   1   1   1   5   1   3
Direct configuration=     4
   0.02863000  0.83042939  0.28396526
   0.15196045  0.09703906  0.51953725
   0.66407411  0.86649606  0.69511742
   0.22081149  0.76669545  0.64688608
   0.81660642  0.81788552  0.44653476
   0.15100858  0.03233592  0.77620979
   0.42041128  0.02789981  0.19577261
   0.93105157  0.65770728  0.01647238
   0.67072386  0.79383797  0.95803395
   0.69040296  0.46665389  0.11141153
   0.38242595  0.29048570  0.41028333
   0.38898542  0.46460509  0.69991608
   0.40668193  0.63946192  0.03738496
   0.81247346  0.09924833  0.16945190
   0.88633112  0.46555524  0.73019169
   0.92255674  0.24631995  0.49598717
   0.53553579  0.13753561  0.79578413
   0.97249586  0.09598578  0.99910272
unknown system                          
           1
     6.254957   -0.264267   -0.895359
    -1.840092    4.770335    0.464300
    -3.814143   -0.237532    6.103824
   H    Nb   H    Sr   H    Nb   H    Sr   H 
   1   1   4   1   1   1   5   1   3
Direct configuration=     5
   0.02882705  0.83021894  0.28404226
   0.15250761  0.09833270  0.51904939
   0.66186106  0.86608921  0.69352102
   0.22140554  0.76679276  0.64715127
   0.81663946  0.81831239  0.44626462
   0.15087426  0.03079255  0.77638107
   0.42009115  0.02821507  0.19553734
   0.93118797  0.65814157  0.01693569
   0.67168203  0.79344089  0.95895390
   0.69075612  0.46606063  0.11246974
   0.38235220  0.29198878  0.40976655
   0.38917091  0.46342735  0.70051847
   0.40741703  0.64019669  0.03792717
   0.81228438  0.09914908  0.16870009
   0.88579774  0.46595180  0.72984663
   0.92218859  0.24568065  0.49610009
   0.53580333  0.13763884  0.79549171
   0.97232055  0.09574809  0.99938600
unknown system                          
           1
     6.260341   -0.267569   -0.893267
    -1.842840    4.773587    0.471720
    -3.816710   -0.225666    6.090188
   H    Nb   H    Sr   H    Nb   H    Sr   H 
   1   1   4   1   1   1   5   1   3
Direct configuration=     6
   0.02956110  0.83030966  0.28474528
   0.15197517  0.09854132  0.51911461
   0.66036070  0.86602026  0.69249713
   0.22181498  0.76719351  0.64727538
   0.81703697  0.81912049  0.44602911
   0.15078431  0.02958188  0.77627206
   0.42009254  0.02818809  0.19570557
   0.93128992  0.65855913  0.01728954
   0.67064895  0.79272876  0.95794329
   0.69125746  0.46550072  0.11364038
   0.38227306  0.29321081  0.40907504
   0.38942545  0.46271997  0.70107878
   0.40798481  0.64064290  0.03849397
   0.81189687  0.09900019  0.16784895
   0.88569796  0.46643185  0.72984675
   0.92246510  0.24502955  0.49625646
   0.53599577  0.13763803  0.79532799
   0.97260590  0.09576090  0.99960273
unknown system                          
           1
     6.264658   -0.270217   -0.891590
    -1.845043    4.776194    0.477668
    -3.818768   -0.216153    6.079256
   H    Nb   H    Sr   H    Nb   H    Sr   H 
   1   1   4   1   1   1   5   1   3
Direct configuration=     7
   0.03014973  0.83038141  0.28530997
   0.15154870  0.09870806  0.51916705
   0.65915797  0.86596617  0.69167481
   0.22214286  0.76751452  0.64737457
   0.81735474  0.81976849  0.44583883
   0.15071267  0.02861214  0.77618567
   0.42009384  0.02816618  0.19584082
   0.93137176  0.65889304  0.01757352
   0.66982076  0.79215961  0.95713208
   0.69166049  0.46505027  0.11458172
   0.38220841  0.29419101  0.40851801
   0.38963022  0.46215238  0.70152976
   0.40843996  0.64099960  0.03894889
   0.81158566  0.09888228  0.16716509
   0.88561782  0.46681638  0.72984641
   0.92268701  0.24450779  0.49638269
   0.53614973  0.13763777  0.79519631
   0.97283467  0.09577090  0.99977681
unknown system                          
           1
     6.266270   -0.271774   -0.888849
    -1.846018    4.778820    0.480237
    -3.818540   -0.210920    6.067110
   H    Nb   H    Sr   H    Nb   H    Sr   H 
   1   1   4   1   1   1   5   1   3
Direct configuration=     8
   0.03105929  0.83078087  0.28640912
   0.15167415  0.09900350  0.51830285
   0.65728186  0.86614260  0.68987986
   0.22260424  0.76805587  0.64754222
   0.81779831  0.82088232  0.44553151
   0.15055031  0.02680110  0.77643748
   0.42029935  0.02776509  0.19649092
   0.93143533  0.65935919  0.01787304
   0.66901766  0.79187757  0.95667062
   0.69245400  0.46457999  0.11621260
   0.38176582  0.29566053  0.40744978
   0.38999576  0.46145032  0.70234259
   0.40906346  0.64135288  0.03970098
   0.81078679  0.09845388  0.16584124
   0.88565990  0.46750453  0.73001547
   0.92288986  0.24383567  0.49669167
   0.53616763  0.13748409  0.79496265
   0.97266327  0.09518800  0.99968840
unknown system                          
           1
     6.268786   -0.274204   -0.884573
    -1.847538    4.782915    0.484245
    -3.818185   -0.202756    6.048164
   H    Nb   H    Sr   H    Nb   H    Sr   H 
   1   1   4   1   1   1   5   1   3
Direct configuration=     9
   0.03247909  0.83140245  0.28812655
   0.15186821  0.09946542  0.51695140
   0.65435366  0.86641950  0.68707502
   0.22332366  0.76889982  0.64780361
   0.81848895  0.82261951  0.44504993
   0.15029835  0.02397711  0.77683248
   0.42062101  0.02713889  0.19750741
   0.93153473  0.66008554  0.01834096
   0.66776484  0.79143818  0.95595002
   0.69369408  0.46384475  0.11876205
   0.38107337  0.29795297  0.40577908
   0.39056734  0.46035472  0.70361356
   0.41003669  0.64190283  0.04087608
   0.80953924  0.09778758  0.16377242
   0.88572549  0.46857719  0.73027930
   0.92320693  0.24278743  0.49717503
   0.53619523  0.13724485  0.79459743
   0.97239613  0.09427927  0.99955069
unknown system                          
           1
     6.266988   -0.275774   -0.882456
    -1.847671    4.785289    0.486144
    -3.816303   -0.198554    6.037607
   H    Nb   H    Sr   H    Nb   H    Sr   H 
   1   1   4   1   1   1   5   1   3
Direct configuration=    10
   0.03289502  0.83170148  0.28873128
   0.15217280  0.09976566  0.51717984
   0.65242751  0.86662065  0.68508820
   0.22374740  0.76934939  0.64785554
   0.81892925  0.82364208  0.44469583
   0.15015079  0.02224224  0.77668148
   0.42095377  0.02647235  0.19846070
   0.93142466  0.66050088  0.01847878
   0.66843809  0.79126782  0.95650586
   0.69447687  0.46410610  0.12018691
   0.38061865  0.29957503  0.40445601
   0.39089064  0.45970533  0.70440269
   0.41043023  0.64207238  0.04160236
   0.80854648  0.09740181  0.16242318
   0.88584894  0.46929222  0.73042866
   0.92352207  0.24219987  0.49754284
   0.53614813  0.13709199  0.79431424
   0.97154569  0.09317073  0.99900861
unknown system                          
           1
     6.265097   -0.277427   -0.880229
    -1.847811    4.787787    0.488143
    -3.814322   -0.194131    6.026499
   H    Nb   H    Sr   H    Nb   H    Sr   H 
   1   1   4   1   1   1   5   1   3
Direct configuration=    11
   0.03333304  0.83201561  0.28936855
   0.15249340  0.10008133  0.51742044
   0.65039904  0.86683313  0.68299430
   0.22419322  0.76982229  0.64790998
   0.81939203  0.82471792  0.44432202
   0.14999601  0.02041780  0.77652292
   0.42130484  0.02577072  0.19946579
   0.93130878  0.66093753  0.01862397
   0.66914705  0.79108844  0.95709164
   0.69530153  0.46438009  0.12168865
   0.38013866  0.30128181  0.40306082
   0.39123163  0.45902186  0.70523471
   0.41084483  0.64225023  0.04236782
   0.80750093  0.09699685  0.16100128
   0.88597871  0.47004411  0.73058583
   0.92385418  0.24158177  0.49793067
   0.53609842  0.13693144  0.79401577
   0.97065071  0.09200507  0.99843783
unknown system                          
           1
     6.266016   -0.278966   -0.879760
    -1.848744    4.791256    0.490449
    -3.814570   -0.190468    6.024019
   H    Nb   H    Sr   H    Nb   H    Sr   H 
   1   1   4   1   1   1   5   1   3
Direct configuration=    12
   0.03307601  0.83200206  0.28905940
   0.15295498  0.10052889  0.51774186
   0.64966195  0.86674910  0.68242362
   0.22428682  0.76981305  0.64781437
   0.81947562  0.82481685  0.44421143
   0.15007263  0.01970146  0.77651855
   0.42148070  0.02516784  0.20013105
   0.93164187  0.66082363  0.01867385
   0.66876407  0.79090752  0.95704367
   0.69576130  0.46516134  0.12221832
   0.37987442  0.30217988  0.40234451
   0.39138019  0.45886075  0.70568356
   0.41096193  0.64216654  0.04271365
   0.80714485  0.09704785  0.16073066
   0.88611934  0.47028483  0.73057732
   0.92399727  0.24161054  0.49829932
   0.53630634  0.13684755  0.79407972
   0.97020672  0.09150832  0.99777812
unknown system                          
           1
     6.267956   -0.282217   -0.878771
    -1.850714    4.798581    0.495321
    -3.815092   -0.182731    6.018780
   H    Nb   H    Sr   H    Nb   H    Sr   H 
   1   1   4   1   1   1   5   1   3
Direct configuration=    13
   0.03253320  0.83197376  0.28840628
   0.15392945  0.10147318  0.51842052
   0.64810542  0.86657217  0.68121807
   0.22448445  0.76979375  0.64761235
   0.81965202  0.82502585  0.44397766
   0.15023486  0.01818983  0.77650985
   0.42185259  0.02389468  0.20153710
   0.93234530  0.66058341  0.01877925
   0.66795549  0.79052553  0.95694255
   0.69673181  0.46680946  0.12333675
   0.37931570  0.30407599  0.40083040
   0.39169410  0.45852015  0.70663202
   0.41120933  0.64198948  0.04344439
   0.80639285  0.09715566  0.16015893
   0.88641612  0.47079294  0.73055912
   0.92429949  0.24167077  0.49907818
   0.53674546  0.13667056  0.79421487
   0.96926935  0.09046080  0.99638472
unknown system                          
           1
     6.267477   -0.283336   -0.878545
    -1.851094    4.800871    0.496849
    -3.814618   -0.180285    6.017511
   H    Nb   H    Sr   H    Nb   H    Sr   H 
   1   1   4   1   1   1   5   1   3
Direct configuration=    14
   0.03231829  0.83205851  0.28814853
   0.15376343  0.10145534  0.51820179
   0.64761048  0.86642327  0.68096935
   0.22454071  0.76984269  0.64749678
   0.81988943  0.82516155  0.44399523
   0.15039942  0.01772804  0.77668440
   0.42192982  0.02341334  0.20200439
   0.93245325  0.66051089  0.01877466
   0.66795242  0.79061009  0.95673448
   0.69703171  0.46731255  0.12375672
   0.37912406  0.30473146  0.40037483
   0.39180131  0.45843789  0.70700108
   0.41124434  0.64188582  0.04368978
   0.80624200  0.09723729  0.16012479
   0.88652511  0.47089297  0.73054557
   0.92447729  0.24174345  0.49941579
   0.53697737  0.13666082  0.79432766
   0.96888656  0.09007203  0.99579719
unknown system                          
           1
     6.266039   -0.286693   -0.877866
    -1.852234    4.807738    0.501434
    -3.813197   -0.172949    6.013706
   H    Nb   H    Sr   H    Nb   H    Sr   H 
   1   1   4   1   1   1   5   1   3
Direct configuration=    15
   0.03167349  0.83231288  0.28737506
   0.15326538  0.10140208  0.51754548
   0.64612562  0.86597681  0.68022315
   0.22470949  0.76998963  0.64714994
   0.82060165  0.82556858  0.44404782
   0.15089343  0.01634319  0.77720848
   0.42216179  0.02196938  0.20340695
   0.93277717  0.66029350  0.01876093
   0.66794319  0.79086395  0.95611007
   0.69793109  0.46882065  0.12501650
   0.37854869  0.30669744  0.39900733
   0.39212294  0.45819073  0.70810858
   0.41134939  0.64157463  0.04442620
   0.80578933  0.09748202  0.16002233
   0.88685204  0.47119303  0.73050483
   0.92501063  0.24196099  0.50042876
   0.53767319  0.13663162  0.79466609
   0.96773848  0.08890690  0.99403451
unknown system                          
           1
     6.263960   -0.286233   -0.877626
    -1.851313    4.807207    0.501146
    -3.811846   -0.173418    6.012918
   H    Nb   H    Sr   H    Nb   H    Sr   H 
   1   1   4   1   1   1   5   1   3
Direct configuration=    16
   0.03169636  0.83252892  0.28737253
   0.15312146  0.10126732  0.51736728
   0.64611320  0.86586861  0.68022535
   0.22469825  0.77013693  0.64702912
   0.82075599  0.82558821  0.44415301
   0.15106906  0.01637763  0.77736079
   0.42205932  0.02186239  0.20337988
   0.93252845  0.66033500  0.01866558
   0.66794607  0.79084047  0.95613308
   0.69789924  0.46871908  0.12514992
   0.37844508  0.30675592  0.39902999
   0.39206956  0.45808891  0.70817716
   0.41138751  0.64159643  0.04439359
   0.80593012  0.09750878  0.16018533
   0.88688545  0.47111150  0.73050927
   0.92514668  0.24192404  0.50052860
   0.53761659  0.13669328  0.79458811
   0.96779863  0.08897456  0.99379441
unknown system                          
           1
     6.257722   -0.284856   -0.876906
    -1.848549    4.805611    0.500282
    -3.807793   -0.174825    6.010554
   H    Nb   H    Sr   H    Nb   H    Sr   H 
   1   1   4   1   1   1   5   1   3
Direct configuration=    17
   0.03176491  0.83317713  0.28736496
   0.15268966  0.10086297  0.51683261
   0.64607595  0.86554400  0.68023192
   0.22466453  0.77057885  0.64666665
   0.82121913  0.82564710  0.44446861
   0.15159606  0.01648096  0.77781778
   0.42175185  0.02154140  0.20329868
   0.93178206  0.66045954  0.01837950
   0.66795470  0.79077004  0.95620213
   0.69780365  0.46841436  0.12555022
   0.37813410  0.30693142  0.39909797
   0.39190938  0.45778348  0.70838292
   0.41150191  0.64166183  0.04429573
   0.80635256  0.09758909  0.16067440
   0.88698572  0.47086688  0.73052262
   0.92555491  0.24181316  0.50082815
   0.53744674  0.13687827  0.79435412
   0.96797920  0.08917750  0.99307405
unknown system                          
           1
     6.256196   -0.284252   -0.876270
    -1.847706    4.805111    0.499567
    -3.806452   -0.175748    6.009551
   H    Nb   H    Sr   H    Nb   H    Sr   H 
   1   1   4   1   1   1   5   1   3
Direct configuration=    18
   0.03181186  0.83342693  0.28730801
   0.15301072  0.10114191  0.51711857
   0.64608466  0.86532698  0.68025112
   0.22465344  0.77063679  0.64651454
   0.82123559  0.82548500  0.44457096
   0.15183943  0.01658028  0.77792054
   0.42163284  0.02140294  0.20327432
   0.93149728  0.66040955  0.01824220
   0.66780382  0.79092244  0.95613894
   0.69774186  0.46828382  0.12571884
   0.37800331  0.30702148  0.39909592
   0.39180081  0.45760720  0.70847343
   0.41151138  0.64167868  0.04422950
   0.80650469  0.09762793  0.16084756
   0.88702438  0.47075214  0.73049972
   0.92563651  0.24173385  0.50092062
   0.53736741  0.13695357  0.79421372
   0.96800702  0.08918651  0.99270448
unknown system                          
           1
     6.253550   -0.283205   -0.875166
    -1.846246    4.804243    0.498328
    -3.804128   -0.177349    6.007812
   H    Nb   H    Sr   H    Nb   H    Sr   H 
   1   1   4   1   1   1   5   1   3
Direct configuration=    19
   0.03189328  0.83386011  0.28720928
   0.15356749  0.10162568  0.51761450
   0.64609978  0.86495063  0.68028439
   0.22463422  0.77073723  0.64625074
   0.82126413  0.82520390  0.44474844
   0.15226151  0.01675251  0.77809875
   0.42142643  0.02116281  0.20323207
   0.93100340  0.66032288  0.01800410
   0.66754214  0.79118673  0.95602941
   0.69763469  0.46805751  0.12601127
   0.37777648  0.30717770  0.39909240
   0.39161253  0.45730154  0.70863038
   0.41152781  0.64170788  0.04411465
   0.80676850  0.09769532  0.16114784
   0.88709145  0.47055312  0.73045999
   0.92577803  0.24159633  0.50108099
   0.53722984  0.13708411  0.79397024
   0.96805530  0.08920201  0.99206356
unknown system                          
           1
     6.253844   -0.282970   -0.874298
    -1.846249    4.803999    0.497220
    -3.803539   -0.178491    6.007756
   H    Nb   H    Sr   H    Nb   H    Sr   H 
   1   1   4   1   1   1   5   1   3
Direct configuration=    20
   0.03201090  0.83421453  0.28711368
   0.15349814  0.10166126  0.51767286
   0.64607859  0.86460992  0.68028135
   0.22467674  0.77072537  0.64609444
   0.82137476  0.82508472  0.44490572
   0.15262325  0.01692252  0.77830644
   0.42136372  0.02100260  0.20328942
   0.93066185  0.66015803  0.01781412
   0.66758825  0.79120096  0.95609096
   0.69752364  0.46815773  0.12610898
   0.37770441  0.30738147  0.39907999
   0.39153011  0.45719649  0.70883856
   0.41141773  0.64171942  0.04403019
   0.80693987  0.09782236  0.16133326
   0.88715156  0.47046158  0.73040311
   0.92571876  0.24153526  0.50119402
   0.53738193  0.13726964  0.79393617
   0.96792278  0.08905416  0.99154973
unknown system                          
           1
     6.254727   -0.282264   -0.871695
    -1.846258    4.803269    0.493896
    -3.801773   -0.181919    6.007590
   H    Nb   H    Sr   H    Nb   H    Sr   H 
   1   1   4   1   1   1   5   1   3
Direct configuration=    21
   0.03236389  0.83527775  0.28682702
   0.15329014  0.10176807  0.51784799
   0.64601487  0.86358771  0.68027204
   0.22480428  0.77068969  0.64562551
   0.82170652  0.82472722  0.44537740
   0.15370837  0.01743266  0.77892943
   0.42117555  0.02052198  0.20346142
   0.92963732  0.65966336  0.01724426
   0.66772658  0.79124367  0.95627560
   0.69719059  0.46845852  0.12640222
   0.37748832  0.30799284  0.39904291
   0.39128281  0.45688147  0.70946308
   0.41108757  0.64175400  0.04377687
   0.80745392  0.09820361  0.16188950
   0.88733183  0.47018687  0.73023239
   0.92554094  0.24135214  0.50153309
   0.53783821  0.13782619  0.79383399
   0.96752527  0.08861025  0.99000827
unknown system                          
           1
     6.259436   -0.283789   -0.871470
    -1.848772    4.804806    0.493604
    -3.804038   -0.181455    6.009859
   H    Nb   H    Sr   H    Nb   H    Sr   H 
   1   1   4   1   1   1   5   1   3
Direct configuration=    22
   0.03248742  0.83540385  0.28677173
   0.15363760  0.10160157  0.51772318
   0.64594532  0.86330488  0.68035184
   0.22484462  0.77070095  0.64560349
   0.82171114  0.82475136  0.44538154
   0.15379905  0.01741964  0.77914566
   0.42127238  0.02047067  0.20364392
   0.92971008  0.65938476  0.01724051
   0.66748239  0.79121621  0.95593965
   0.69714374  0.46878109  0.12633971
   0.37748180  0.30810865  0.39905173
   0.39133333  0.45704960  0.70971264
   0.41095084  0.64178932  0.04376036
   0.80750273  0.09837393  0.16189862
   0.88740080  0.47032826  0.73020090
   0.92520961  0.24131811  0.50153645
   0.53793755  0.13786447  0.79384136
   0.96731660  0.08831066  0.98989969
unknown system                          
           1
     6.260021   -0.283978   -0.871442
    -1.849085    4.804997    0.493568
    -3.804319   -0.181398    6.010141
   H    Nb   H    Sr   H    Nb   H    Sr   H 
   1   1   4   1   1   1   5   1   3
Direct configuration=    23
   0.03250276  0.83541952  0.28676486
   0.15368072  0.10158091  0.51770767
   0.64593668  0.86326975  0.68036175
   0.22484963  0.77070235  0.64560076
   0.82171171  0.82475436  0.44538205
   0.15381031  0.01741802  0.77917251
   0.42128440  0.02046430  0.20366658
   0.92971909  0.65935016  0.01724004
   0.66745208  0.79121280  0.95589793
   0.69713794  0.46882115  0.12633196
   0.37748099  0.30812303  0.39905282
   0.39133962  0.45707048  0.70974364
   0.41093387  0.64179370  0.04375831
   0.80750880  0.09839509  0.16189975
   0.88740937  0.47034582  0.73019699
   0.92516848  0.24131388  0.50153688
   0.53794988  0.13786923  0.79384228
   0.96729068  0.08827345  0.98988621
