   11   11   60    1
  0.9420010E+01  0.3466287E-09  0.5711360E-09  0.5525993E-09  0.5000000E-15
  1.000000000000000E-004
  CAR 
 unknown system                          
     40    338     28
 
  0.3742002E-15  0.3742002E-15  0.3742002E-15  0.1488095E-02
    1      -32.424963   1.000000
    2      -28.539124   1.000000
    3      -28.348293   1.000000
    4      -28.230957   1.000000
    5      -28.052357   1.000000
    6      -27.860504   1.000000
    7      -27.759885   1.000000
    8      -14.540472   1.000000
    9      -14.503966   1.000000
   10      -14.252789   1.000000
   11       -6.164767   1.000000
   12       -3.288744   1.000000
   13       -2.381125   1.000000
   14       -1.972808   1.000000
   15       -1.567573   1.000000
   16       -1.277623   1.000000
   17       -0.157521   1.000000
   18        0.738137   1.000000
   19        2.264282   1.000000
   20        2.945025   0.999769
   21        3.418898  -0.000621
   22        3.979947   0.000000
   23        4.277275   0.000000
   24        4.910976   0.000000
   25        5.251814   0.000000
   26        6.496644   0.000000
   27        7.186134   0.000000
   28        7.519591   0.000000
 
  0.8333333E-01  0.3734992E-15  0.3755676E-15  0.2976190E-02
    1      -32.420434   1.000000
    2      -28.535363   1.000000
    3      -28.345811   1.000000
    4      -28.248659   1.000000
    5      -28.051188   1.000000
    6      -27.871387   1.000000
    7      -27.758734   1.000000
    8      -14.532355   1.000000
    9      -14.496185   1.000000
   10      -14.309630   1.000000
   11       -6.048135   1.000000
   12       -3.213522   1.000000
   13       -2.337486   1.000000
   14       -1.994780   1.000000
   15       -1.550832   1.000000
   16       -1.250097   1.000000
   17       -0.264965   1.000000
   18        0.525226   1.000000
   19        2.342261   1.000000
   20        2.902371   0.999976
   21        3.367466  -0.040463
   22        3.957122   0.000000
   23        4.325810   0.000000
   24        5.058221   0.000000
   25        5.361153   0.000000
   26        6.535893   0.000000
   27        7.040460   0.000000
   28        7.444523   0.000000
 
  0.1666667E+00  0.3730062E-15  0.3729655E-15  0.2976190E-02
    1      -32.408036   1.000000
    2      -28.525744   1.000000
    3      -28.340447   1.000000
    4      -28.293781   1.000000
    5      -28.048500   1.000000
    6      -27.898753   1.000000
    7      -27.759465   1.000000
    8      -14.510762   1.000000
    9      -14.476637   1.000000
   10      -14.459402   1.000000
   11       -5.716486   1.000000
   12       -3.022933   1.000000
   13       -2.226511   1.000000
   14       -2.046254   1.000000
   15       -1.537257   1.000000
   16       -1.216299   1.000000
   17       -0.486947   1.000000
   18        0.081172   1.000000
   19        2.385058   1.000000
   20        2.659906   1.000000
   21        3.470775   0.004198
   22        3.903042   0.000000
   23        4.532754   0.000000
   24        5.227692   0.000000
   25        5.785263   0.000000
   26        6.486393   0.000000
   27        6.799430   0.000000
   28        7.446253   0.000000
 
  0.2500000E+00  0.3717661E-15  0.3712308E-15  0.2976190E-02
    1      -32.391007   1.000000
    2      -28.514660   1.000000
    3      -28.360172   1.000000
    4      -28.324220   1.000000
    5      -28.045627   1.000000
    6      -27.929051   1.000000
    7      -27.766880   1.000000
    8      -14.660869   1.000000
    9      -14.481246   1.000000
   10      -14.443036   1.000000
   11       -5.207963   1.000000
   12       -2.803870   1.000000
   13       -2.204497   1.000000
   14       -1.970069   1.000000
   15       -1.581129   1.000000
   16       -1.325291   1.000000
   17       -0.597576   1.000000
   18       -0.327091   1.000000
   19        2.117882   1.000000
   20        2.584652   1.000000
   21        3.608887   0.000013
   22        3.906697   0.000000
   23        4.814210   0.000000
   24        5.404995   0.000000
   25        6.180107   0.000000
   26        6.468326   0.000000
   27        6.673992   0.000000
   28        7.648108   0.000000
 
  0.3333333E+00  0.3757099E-15  0.3712308E-15  0.2976190E-02
    1      -32.373887   1.000000
    2      -28.509081   1.000000
    3      -28.409718   1.000000
    4      -28.320243   1.000000
    5      -28.044209   1.000000
    6      -27.949238   1.000000
    7      -27.781926   1.000000
    8      -14.850941   1.000000
    9      -14.452629   1.000000
   10      -14.410659   1.000000
   11       -4.584713   1.000000
   12       -2.655827   1.000000
   13       -2.269503   1.000000
   14       -1.948428   1.000000
   15       -1.776407   1.000000
   16       -1.389210   1.000000
   17       -0.696629   1.000000
   18       -0.459429   1.000000
   19        1.842000   1.000000
   20        2.562430   1.000000
   21        3.665115   0.000000
   22        3.999031   0.000000
   23        5.178736   0.000000
   24        5.543454   0.000000
   25        6.063521   0.000000
   26        6.361222   0.000000
   27        7.117177   0.000000
   28        7.879006   0.000000
 
  0.4166667E+00  0.3726200E-15  0.3747003E-15  0.2976190E-02
    1      -32.361296   1.000000
    2      -28.513064   1.000000
    3      -28.439447   1.000000
    4      -28.317595   1.000000
    5      -28.044133   1.000000
    6      -27.954990   1.000000
    7      -27.798597   1.000000
    8      -14.985116   1.000000
    9      -14.432053   1.000000
   10      -14.386210   1.000000
   11       -3.935707   1.000000
   12       -2.638414   1.000000
   13       -2.311132   1.000000
   14       -2.271604   1.000000
   15       -1.930030   1.000000
   16       -1.293499   1.000000
   17       -0.790331   1.000000
   18       -0.409438   1.000000
   19        1.704985   1.000000
   20        2.470926   1.000000
   21        3.741920   0.000000
   22        4.195408   0.000000
   23        5.358527   0.000000
   24        5.747707   0.000000
   25        5.999038   0.000000
   26        6.259991   0.000000
   27        7.236817   0.000000
   28        7.724657   0.000000
 
  0.5000000E+00  0.3765841E-15  0.3677614E-15  0.1488095E-02
    1      -32.356671   1.000000
    2      -28.517557   1.000000
    3      -28.447399   1.000000
    4      -28.316988   1.000000
    5      -28.044207   1.000000
    6      -27.954579   1.000000
    7      -27.806296   1.000000
    8      -15.033302   1.000000
    9      -14.424484   1.000000
   10      -14.377052   1.000000
   11       -3.536387   1.000000
   12       -2.795690   1.000000
   13       -2.416508   1.000000
   14       -2.321834   1.000000
   15       -1.986151   1.000000
   16       -1.258357   1.000000
   17       -0.816459   1.000000
   18       -0.369598   1.000000
   19        1.671274   1.000000
   20        2.410598   1.000000
   21        3.796799   0.000000
   22        4.323684   0.000000
   23        5.307793   0.000000
   24        5.927440   0.000000
   25        5.955671   0.000000
   26        6.329612   0.000000
   27        7.184551   0.000000
   28        7.513937   0.000000
 
  0.3720982E-15  0.1428571E+00  0.3747003E-15  0.2976190E-02
    1      -32.425052   1.000000
    2      -28.539230   1.000000
    3      -28.348116   1.000000
    4      -28.230990   1.000000
    5      -28.052241   1.000000
    6      -27.860364   1.000000
    7      -27.759708   1.000000
    8      -14.544133   1.000000
    9      -14.504213   1.000000
   10      -14.252806   1.000000
   11       -6.071246   1.000000
   12       -3.327130   1.000000
   13       -2.572680   1.000000
   14       -2.069960   1.000000
   15       -1.567368   1.000000
   16       -1.105619   1.000000
   17       -0.069830   1.000000
   18        0.726704   1.000000
   19        2.253319   1.000000
   20        2.932368   0.999877
   21        3.435230   0.003749
   22        4.131704   0.000000
   23        4.287483   0.000000
   24        4.875201   0.000000
   25        5.013230   0.000000
   26        6.542617   0.000000
   27        7.228789   0.000000
   28        7.482081   0.000000
 
  0.8333333E-01  0.1428571E+00  0.3747003E-15  0.2976190E-02
    1      -32.420513   1.000000
    2      -28.535531   1.000000
    3      -28.345727   1.000000
    4      -28.248738   1.000000
    5      -28.051183   1.000000
    6      -27.871421   1.000000
    7      -27.758744   1.000000
    8      -14.535257   1.000000
    9      -14.496903   1.000000
   10      -14.309727   1.000000
   11       -5.964737   1.000000
   12       -3.235909   1.000000
   13       -2.551757   1.000000
   14       -2.058227   1.000000
   15       -1.535643   1.000000
   16       -1.092351   1.000000
   17       -0.205982   1.000000
   18        0.510256   1.000000
   19        2.327132   1.000000
   20        2.900809   0.999979
   21        3.384841  -0.024087
   22        4.024452   0.000000
   23        4.358131   0.000000
   24        5.014394   0.000000
   25        5.166769   0.000000
   26        6.604311   0.000000
   27        7.001667   0.000000
   28        7.542035   0.000000
 
  0.1666667E+00  0.1428571E+00  0.3781697E-15  0.2976190E-02
    1      -32.408080   1.000000
    2      -28.525757   1.000000
    3      -28.340366   1.000000
    4      -28.293728   1.000000
    5      -28.048523   1.000000
    6      -27.898623   1.000000
    7      -27.759401   1.000000
    8      -14.512054   1.000000
    9      -14.477813   1.000000
   10      -14.458941   1.000000
   11       -5.648546   1.000000
   12       -3.017703   1.000000
   13       -2.460566   1.000000
   14       -2.045101   1.000000
   15       -1.510139   1.000000
   16       -1.082142   1.000000
   17       -0.470281   1.000000
   18        0.081194   1.000000
   19        2.401519   1.000000
   20        2.648264   1.000000
   21        3.435780   0.003832
   22        3.923922   0.000000
   23        4.510887   0.000000
   24        5.226537   0.000000
   25        5.604056   0.000000
   26        6.462601   0.000000
   27        6.923319   0.000000
   28        7.531086   0.000000
 
  0.2500000E+00  0.1428571E+00  0.3747003E-15  0.2976190E-02
    1      -32.391018   1.000000
    2      -28.514742   1.000000
    3      -28.360240   1.000000
    4      -28.324279   1.000000
    5      -28.045766   1.000000
    6      -27.929145   1.000000
    7      -27.766933   1.000000
    8      -14.660318   1.000000
    9      -14.481465   1.000000
   10      -14.444376   1.000000
   11       -5.166382   1.000000
   12       -2.777721   1.000000
   13       -2.320970   1.000000
   14       -2.044136   1.000000
   15       -1.567802   1.000000
   16       -1.174404   1.000000
   17       -0.647837   1.000000
   18       -0.296398   1.000000
   19        2.172048   1.000000
   20        2.554284   1.000000
   21        3.522687   0.000967
   22        3.936076   0.000000
   23        4.641092   0.000000
   24        5.444381   0.000000
   25        6.043264   0.000000
   26        6.408649   0.000000
   27        6.856426   0.000000
   28        7.597784   0.000000
 
  0.3333333E+00  0.1428571E+00  0.3747003E-15  0.2976190E-02
    1      -32.373863   1.000000
    2      -28.509065   1.000000
    3      -28.409736   1.000000
    4      -28.320439   1.000000
    5      -28.044421   1.000000
    6      -27.949249   1.000000
    7      -27.782022   1.000000
    8      -14.850014   1.000000
    9      -14.452497   1.000000
   10      -14.411839   1.000000
   11       -4.580106   1.000000
   12       -2.627716   1.000000
   13       -2.236399   1.000000
   14       -2.024860   1.000000
   15       -1.810937   1.000000
   16       -1.285784   1.000000
   17       -0.705162   1.000000
   18       -0.467934   1.000000
   19        1.886175   1.000000
   20        2.545347   1.000000
   21        3.628229   0.000004
   22        4.001140   0.000000
   23        4.813078   0.000000
   24        5.538561   0.000000
   25        5.960675   0.000000
   26        6.600984   0.000000
   27        7.095432   0.000000
   28        7.802252   0.000000
 
  0.4166667E+00  0.1428571E+00  0.3742666E-15  0.2976190E-02
    1      -32.361241   1.000000
    2      -28.512971   1.000000
    3      -28.439421   1.000000
    4      -28.317695   1.000000
    5      -28.044269   1.000000
    6      -27.954992   1.000000
    7      -27.798612   1.000000
    8      -14.983949   1.000000
    9      -14.432056   1.000000
   10      -14.386691   1.000000
   11       -3.983362   1.000000
   12       -2.587663   1.000000
   13       -2.347219   1.000000
   14       -2.177920   1.000000
   15       -1.923422   1.000000
   16       -1.267056   1.000000
   17       -0.789417   1.000000
   18       -0.436661   1.000000
   19        1.729437   1.000000
   20        2.466797   1.000000
   21        3.762404   0.000000
   22        4.153984   0.000000
   23        5.031956   0.000000
   24        5.433916   0.000000
   25        5.917420   0.000000
   26        6.586980   0.000000
   27        7.346664   0.000000
   28        7.844800   0.000000
 
  0.5000000E+00  0.1428571E+00  0.3742666E-15  0.2976190E-02
    1      -32.356617   1.000000
    2      -28.517611   1.000000
    3      -28.447494   1.000000
    4      -28.317203   1.000000
    5      -28.044392   1.000000
    6      -27.954699   1.000000
    7      -27.806381   1.000000
    8      -15.032281   1.000000
    9      -14.425002   1.000000
   10      -14.377535   1.000000
   11       -3.605024   1.000000
   12       -2.800108   1.000000
   13       -2.419106   1.000000
   14       -2.236175   1.000000
   15       -1.910218   1.000000
   16       -1.221717   1.000000
   17       -0.874373   1.000000
   18       -0.366399   1.000000
   19        1.670917   1.000000
   20        2.421813   1.000000
   21        3.784841   0.000000
   22        4.288912   0.000000
   23        5.163459   0.000000
   24        5.386771   0.000000
   25        5.931070   0.000000
   26        6.670473   0.000000
   27        7.471508   0.000000
   28        7.618745   0.000000
 
 -0.4166667E+00  0.1428571E+00  0.3955170E-15  0.2976190E-02
    1      -32.361252   1.000000
    2      -28.513038   1.000000
    3      -28.439549   1.000000
    4      -28.317793   1.000000
    5      -28.044191   1.000000
    6      -27.955028   1.000000
    7      -27.798673   1.000000
    8      -14.984199   1.000000
    9      -14.432833   1.000000
   10      -14.386761   1.000000
   11       -3.909191   1.000000
   12       -2.794061   1.000000
   13       -2.303875   1.000000
   14       -2.185110   1.000000
   15       -1.812746   1.000000
   16       -1.286808   1.000000
   17       -0.869167   1.000000
   18       -0.357017   1.000000
   19        1.688168   1.000000
   20        2.490045   1.000000
   21        3.684421   0.000000
   22        4.219396   0.000000
   23        5.077400   0.000000
   24        5.604546   0.000000
   25        5.840434   0.000000
   26        6.861785   0.000000
   27        7.231648   0.000000
   28        7.743864   0.000000
 
 -0.3333333E+00  0.1428571E+00  0.3677614E-15  0.2976190E-02
    1      -32.373872   1.000000
    2      -28.509009   1.000000
    3      -28.409767   1.000000
    4      -28.320407   1.000000
    5      -28.044201   1.000000
    6      -27.949224   1.000000
    7      -27.781795   1.000000
    8      -14.850043   1.000000
    9      -14.453972   1.000000
   10      -14.411378   1.000000
   11       -4.519543   1.000000
   12       -2.788279   1.000000
   13       -2.307050   1.000000
   14       -1.863502   1.000000
   15       -1.676893   1.000000
   16       -1.478107   1.000000
   17       -0.716580   1.000000
   18       -0.387845   1.000000
   19        1.824775   1.000000
   20        2.572862   1.000000
   21        3.621978   0.000006
   22        4.036030   0.000000
   23        4.910629   0.000000
   24        5.591755   0.000000
   25        5.974452   0.000000
   26        6.807862   0.000000
   27        7.227734   0.000000
   28        7.554425   0.000000
 
 -0.2500000E+00  0.1428571E+00  0.3816392E-15  0.2976190E-02
    1      -32.391036   1.000000
    2      -28.514624   1.000000
    3      -28.360222   1.000000
    4      -28.324295   1.000000
    5      -28.045546   1.000000
    6      -27.929137   1.000000
    7      -27.766795   1.000000
    8      -14.660288   1.000000
    9      -14.483272   1.000000
   10      -14.443823   1.000000
   11       -5.125503   1.000000
   12       -2.906239   1.000000
   13       -2.273977   1.000000
   14       -1.976063   1.000000
   15       -1.559640   1.000000
   16       -1.335687   1.000000
   17       -0.490319   1.000000
   18       -0.327987   1.000000
   19        2.111911   1.000000
   20        2.571377   1.000000
   21        3.601331   0.000020
   22        3.896961   0.000000
   23        4.765500   0.000000
   24        5.399489   0.000000
   25        6.255687   0.000000
   26        6.526406   0.000000
   27        6.827693   0.000000
   28        7.330003   0.000000
 
 -0.1666667E+00  0.1428571E+00  0.3816392E-15  0.2976190E-02
    1      -32.408098   1.000000
    2      -28.525686   1.000000
    3      -28.340355   1.000000
    4      -28.293764   1.000000
    5      -28.048293   1.000000
    6      -27.898810   1.000000
    7      -27.759290   1.000000
    8      -14.513926   1.000000
    9      -14.476887   1.000000
   10      -14.458998   1.000000
   11       -5.624447   1.000000
   12       -3.097496   1.000000
   13       -2.345954   1.000000
   14       -2.110163   1.000000
   15       -1.557835   1.000000
   16       -1.124262   1.000000
   17       -0.374726   1.000000
   18        0.089325   1.000000
   19        2.391500   1.000000
   20        2.626054   1.000000
   21        3.429375   0.002626
   22        3.939861   0.000000
   23        4.634277   0.000000
   24        5.188245   0.000000
   25        5.693338   0.000000
   26        6.478948   0.000000
   27        6.967609   0.000000
   28        7.333877   0.000000
 
 -0.8333333E-01  0.1428571E+00  0.3747003E-15  0.2976190E-02
    1      -32.420520   1.000000
    2      -28.535432   1.000000
    3      -28.345709   1.000000
    4      -28.248598   1.000000
    5      -28.051054   1.000000
    6      -27.871435   1.000000
    7      -27.758709   1.000000
    8      -14.536194   1.000000
    9      -14.496484   1.000000
   10      -14.309554   1.000000
   11       -5.953301   1.000000
   12       -3.266364   1.000000
   13       -2.504120   1.000000
   14       -2.083672   1.000000
   15       -1.577886   1.000000
   16       -1.097059   1.000000
   17       -0.159857   1.000000
   18        0.526049   1.000000
   19        2.333653   1.000000
   20        2.875609   0.999996
   21        3.353325  -0.050106
   22        4.068645   0.000000
   23        4.399041   0.000000
   24        5.006460   0.000000
   25        5.174232   0.000000
   26        6.529656   0.000000
   27        7.222828   0.000000
   28        7.375627   0.000000
 
  0.3729655E-15  0.2857143E+00  0.3677614E-15  0.2976190E-02
    1      -32.425251   1.000000
    2      -28.539374   1.000000
    3      -28.347743   1.000000
    4      -28.230872   1.000000
    5      -28.051842   1.000000
    6      -27.860247   1.000000
    7      -27.759540   1.000000
    8      -14.553248   1.000000
    9      -14.503802   1.000000
   10      -14.252841   1.000000
   11       -5.829493   1.000000
   12       -3.412682   1.000000
   13       -3.005437   1.000000
   14       -2.206420   1.000000
   15       -1.516186   1.000000
   16       -0.875209   1.000000
   17        0.139686   1.000000
   18        0.700209   1.000000
   19        2.241063   1.000000
   20        2.906207   0.999971
   21        3.472909   0.004052
   22        4.126270   0.000000
   23        4.346192   0.000000
   24        4.780688   0.000000
   25        5.042463   0.000000
   26        6.341084   0.000000
   27        7.157671   0.000000
   28        7.554836   0.000000
 
  0.8333333E-01  0.2857143E+00  0.3747003E-15  0.2976190E-02
    1      -32.420691   1.000000
    2      -28.535683   1.000000
    3      -28.345459   1.000000
    4      -28.248685   1.000000
    5      -28.050910   1.000000
    6      -27.871440   1.000000
    7      -27.758631   1.000000
    8      -14.543439   1.000000
    9      -14.496908   1.000000
   10      -14.309582   1.000000
   11       -5.735534   1.000000
   12       -3.310924   1.000000
   13       -2.969671   1.000000
   14       -2.179276   1.000000
   15       -1.491294   1.000000
   16       -0.874901   1.000000
   17       -0.019152   1.000000
   18        0.492765   1.000000
   19        2.299507   1.000000
   20        2.869600   0.999997
   21        3.406780  -0.006703
   22        4.052731   0.000000
   23        4.430072   0.000000
   24        4.967416   0.000000
   25        5.066383   0.000000
   26        6.476894   0.000000
   27        7.017509   0.000000
   28        7.418439   0.000000
 
  0.1666667E+00  0.2857143E+00  0.3677614E-15  0.2976190E-02
    1      -32.408203   1.000000
    2      -28.525887   1.000000
    3      -28.340238   1.000000
    4      -28.293716   1.000000
    5      -28.048325   1.000000
    6      -27.898751   1.000000
    7      -27.759392   1.000000
    8      -14.517757   1.000000
    9      -14.478650   1.000000
   10      -14.458348   1.000000
   11       -5.451307   1.000000
   12       -3.084053   1.000000
   13       -2.821849   1.000000
   14       -2.118298   1.000000
   15       -1.490565   1.000000
   16       -0.897198   1.000000
   17       -0.331412   1.000000
   18        0.088994   1.000000
   19        2.400004   1.000000
   20        2.615131   1.000000
   21        3.353333  -0.050102
   22        3.921119   0.000000
   23        4.645765   0.000000
   24        5.168896   0.000000
   25        5.404693   0.000000
   26        6.573848   0.000000
   27        6.940915   0.000000
   28        7.255419   0.000000
 
  0.2500000E+00  0.2857143E+00  0.3747003E-15  0.2976190E-02
    1      -32.391061   1.000000
    2      -28.514850   1.000000
    3      -28.360357   1.000000
    4      -28.324305   1.000000
    5      -28.045797   1.000000
    6      -27.929348   1.000000
    7      -27.767057   1.000000
    8      -14.659013   1.000000
    9      -14.484244   1.000000
   10      -14.446524   1.000000
   11       -5.020963   1.000000
   12       -2.871651   1.000000
   13       -2.528264   1.000000
   14       -2.074629   1.000000
   15       -1.563466   1.000000
   16       -1.044252   1.000000
   17       -0.571658   1.000000
   18       -0.263160   1.000000
   19        2.225664   1.000000
   20        2.507843   1.000000
   21        3.395778  -0.014507
   22        3.865969   0.000000
   23        4.600537   0.000000
   24        5.389271   0.000000
   25        5.981480   0.000000
   26        6.477080   0.000000
   27        6.975460   0.000000
   28        7.271719   0.000000
 
  0.3333333E+00  0.2857143E+00  0.3677614E-15  0.2976190E-02
    1      -32.373817   1.000000
    2      -28.508953   1.000000
    3      -28.409892   1.000000
    4      -28.320539   1.000000
    5      -28.044498   1.000000
    6      -27.949424   1.000000
    7      -27.782106   1.000000
    8      -14.848033   1.000000
    9      -14.453695   1.000000
   10      -14.413628   1.000000
   11       -4.511593   1.000000
   12       -2.737948   1.000000
   13       -2.211634   1.000000
   14       -2.038988   1.000000
   15       -1.798848   1.000000
   16       -1.219640   1.000000
   17       -0.670554   1.000000
   18       -0.445589   1.000000
   19        1.918574   1.000000
   20        2.553258   1.000000
   21        3.510041   0.001526
   22        3.887227   0.000000
   23        4.564780   0.000000
   24        5.476353   0.000000
   25        5.912901   0.000000
   26        6.711495   0.000000
   27        7.215690   0.000000
   28        7.517280   0.000000
 
  0.4166667E+00  0.2857143E+00  0.3747003E-15  0.2976190E-02
    1      -32.361136   1.000000
    2      -28.512964   1.000000
    3      -28.439597   1.000000
    4      -28.318079   1.000000
    5      -28.044475   1.000000
    6      -27.955108   1.000000
    7      -27.798732   1.000000
    8      -14.981770   1.000000
    9      -14.432965   1.000000
   10      -14.387846   1.000000
   11       -4.020523   1.000000
   12       -2.676336   1.000000
   13       -2.309526   1.000000
   14       -2.047213   1.000000
   15       -1.810969   1.000000
   16       -1.247644   1.000000
   17       -0.801062   1.000000
   18       -0.449599   1.000000
   19        1.740750   1.000000
   20        2.501576   1.000000
   21        3.672378   0.000000
   22        3.985362   0.000000
   23        4.606815   0.000000
   24        5.409197   0.000000
   25        5.841476   0.000000
   26        6.644646   0.000000
   27        7.591746   0.000000
   28        7.683254   0.000000
 
  0.5000000E+00  0.2857143E+00  0.3781697E-15  0.2976190E-02
    1      -32.356487   1.000000
    2      -28.517635   1.000000
    3      -28.447506   1.000000
    4      -28.317560   1.000000
    5      -28.044578   1.000000
    6      -27.954671   1.000000
    7      -27.806460   1.000000
    8      -15.029766   1.000000
    9      -14.425939   1.000000
   10      -14.378210   1.000000
   11       -3.730667   1.000000
   12       -2.802367   1.000000
   13       -2.408543   1.000000
   14       -2.077876   1.000000
   15       -1.724077   1.000000
   16       -1.181676   1.000000
   17       -0.941020   1.000000
   18       -0.386382   1.000000
   19        1.665312   1.000000
   20        2.465002   1.000000
   21        3.719528   0.000000
   22        4.048206   0.000000
   23        4.716936   0.000000
   24        5.359555   0.000000
   25        5.854314   0.000000
   26        6.712246   0.000000
   27        7.537444   0.000000
   28        7.843547   0.000000
 
 -0.4166667E+00  0.2857143E+00  0.3885781E-15  0.2976190E-02
    1      -32.361148   1.000000
    2      -28.513035   1.000000
    3      -28.439602   1.000000
    4      -28.318111   1.000000
    5      -28.044336   1.000000
    6      -27.954926   1.000000
    7      -27.798658   1.000000
    8      -14.981714   1.000000
    9      -14.433932   1.000000
   10      -14.387856   1.000000
   11       -3.921739   1.000000
   12       -2.910422   1.000000
   13       -2.219280   1.000000
   14       -2.108957   1.000000
   15       -1.653245   1.000000
   16       -1.297814   1.000000
   17       -0.904315   1.000000
   18       -0.341671   1.000000
   19        1.679764   1.000000
   20        2.519811   1.000000
   21        3.606966   0.000014
   22        4.061638   0.000000
   23        4.742887   0.000000
   24        5.451253   0.000000
   25        5.743964   0.000000
   26        6.981234   0.000000
   27        7.455613   0.000000
   28        7.862808   0.000000
 
 -0.3333333E+00  0.2857143E+00  0.3747003E-15  0.2976190E-02
    1      -32.373841   1.000000
    2      -28.509047   1.000000
    3      -28.409984   1.000000
    4      -28.320723   1.000000
    5      -28.044320   1.000000
    6      -27.949380   1.000000
    7      -27.781898   1.000000
    8      -14.848184   1.000000
    9      -14.455612   1.000000
   10      -14.413464   1.000000
   11       -4.422677   1.000000
   12       -2.951927   1.000000
   13       -2.284354   1.000000
   14       -1.856657   1.000000
   15       -1.639248   1.000000
   16       -1.457123   1.000000
   17       -0.692550   1.000000
   18       -0.335169   1.000000
   19        1.827446   1.000000
   20        2.567412   1.000000
   21        3.537397   0.000534
   22        3.956876   0.000000
   23        4.735619   0.000000
   24        5.479491   0.000000
   25        5.776699   0.000000
   26        7.091649   0.000000
   27        7.284176   0.000000
   28        7.638457   0.000000
 
 -0.2500000E+00  0.2857143E+00  0.3816392E-15  0.2976190E-02
    1      -32.391086   1.000000
    2      -28.514625   1.000000
    3      -28.360300   1.000000
    4      -28.324427   1.000000
    5      -28.045569   1.000000
    6      -27.929330   1.000000
    7      -27.766824   1.000000
    8      -14.658883   1.000000
    9      -14.486569   1.000000
   10      -14.445903   1.000000
   11       -4.958636   1.000000
   12       -3.059733   1.000000
   13       -2.443717   1.000000
   14       -2.032025   1.000000
   15       -1.549492   1.000000
   16       -1.211194   1.000000
   17       -0.383614   1.000000
   18       -0.295098   1.000000
   19        2.124930   1.000000
   20        2.528505   1.000000
   21        3.477449   0.003724
   22        3.882759   0.000000
   23        4.804566   0.000000
   24        5.353672   0.000000
   25        6.053037   0.000000
   26        6.355363   0.000000
   27        7.042023   0.000000
   28        7.486248   0.000000
 
 -0.1666667E+00  0.2857143E+00  0.3677614E-15  0.2976190E-02
    1      -32.408225   1.000000
    2      -28.525670   1.000000
    3      -28.340194   1.000000
    4      -28.293773   1.000000
    5      -28.048096   1.000000
    6      -27.898846   1.000000
    7      -27.759204   1.000000
    8      -14.519825   1.000000
    9      -14.477697   1.000000
   10      -14.458447   1.000000
   11       -5.413484   1.000000
   12       -3.220762   1.000000
   13       -2.711035   1.000000
   14       -2.136310   1.000000
   15       -1.555150   1.000000
   16       -0.940086   1.000000
   17       -0.203812   1.000000
   18        0.092984   1.000000
   19        2.373589   1.000000
   20        2.589695   1.000000
   21        3.338469  -0.049299
   22        3.964112   0.000000
   23        4.869100   0.000000
   24        5.131897   0.000000
   25        5.483912   0.000000
   26        6.272547   0.000000
   27        7.046750   0.000000
   28        7.417750   0.000000
 
 -0.8333333E-01  0.2857143E+00  0.3608225E-15  0.2976190E-02
    1      -32.420701   1.000000
    2      -28.535539   1.000000
    3      -28.345348   1.000000
    4      -28.248591   1.000000