       N       E                     dE             d eps       ncg     rms          rms(c)
DAV:   1     0.216729117723E+03    0.21673E+03   -0.13927E+04 17232   0.810E+02
DAV:   2    -0.366955676753E+02   -0.25342E+03   -0.24733E+03 20056   0.361E+02
DAV:   3    -0.520335021038E+02   -0.15338E+02   -0.15126E+02 27632   0.739E+01
DAV:   4    -0.527142219699E+02   -0.68072E+00   -0.67817E+00 27224   0.123E+01
DAV:   5    -0.527267105451E+02   -0.12489E-01   -0.12482E-01 26904   0.154E+00    0.416E+01
DAV:   6    -0.489628191311E+02    0.37639E+01   -0.11861E+01 24272   0.219E+01    0.162E+01
DAV:   7    -0.484245776131E+02    0.53824E+00   -0.25179E+00 22424   0.976E+00    0.795E+00
DAV:   8    -0.484447671245E+02   -0.20190E-01   -0.18886E+00 26024   0.755E+00    0.414E+00
DAV:   9    -0.483669528796E+02    0.77814E-01   -0.70545E-01 24632   0.497E+00    0.215E+00
DAV:  10    -0.483657372139E+02    0.12157E-02   -0.67243E-02 24184   0.129E+00    0.282E-01
DAV:  11    -0.483660425451E+02   -0.30533E-03   -0.82285E-03 24240   0.544E-01    0.160E-01
DAV:  12    -0.483662796221E+02   -0.23708E-03   -0.10376E-03 20024   0.211E-01    0.643E-02
DAV:  13    -0.483664789375E+02   -0.19932E-03   -0.32538E-04 16348   0.115E-01    0.284E-02
DAV:  14    -0.483664970846E+02   -0.18147E-04   -0.31894E-05 11964   0.425E-02
   1 F= -.48366497E+02 E0= -.48366448E+02  d E =-.483665E+02
       N       E                     dE             d eps       ncg     rms          rms(c)
DAV:   1    -0.483201000015E+02    0.46379E-01   -0.96040E+00 18328   0.289E+01    0.157E+00
DAV:   2    -0.484478199189E+02   -0.12772E+00   -0.16263E+00 16496   0.772E+00    0.991E-01
DAV:   3    -0.484448423640E+02    0.29776E-02   -0.39084E-02 23672   0.145E+00    0.644E-01
DAV:   4    -0.484429403401E+02    0.19020E-02   -0.25020E-02 27640   0.109E+00    0.396E-01
DAV:   5    -0.484419218876E+02    0.10185E-02   -0.11903E-02 25024   0.698E-01    0.156E-01
DAV:   6    -0.484417683504E+02    0.15354E-03   -0.75417E-04 18864   0.205E-01    0.130E-01
DAV:   7    -0.484416691750E+02    0.99175E-04   -0.56565E-04 18716   0.163E-01
   2 F= -.48441669E+02 E0= -.48441539E+02  d E =-.751721E-01
       N       E                     dE             d eps       ncg     rms          rms(c)
DAV:   1    -0.484286922719E+02    0.13076E-01   -0.15492E+00 18528   0.116E+01    0.627E-01
DAV:   2    -0.484494426911E+02   -0.20750E-01   -0.26432E-01 16648   0.310E+00    0.379E-01
DAV:   3    -0.484489661895E+02    0.47650E-03   -0.60776E-03 23768   0.572E-01    0.238E-01
DAV:   4    -0.484486485690E+02    0.31762E-03   -0.38372E-03 26880   0.425E-01    0.133E-01
DAV:   5    -0.484485387794E+02    0.10979E-03   -0.14946E-03 23400   0.256E-01    0.565E-02
DAV:   6    -0.484485126999E+02    0.26080E-04   -0.84769E-05 11420   0.772E-02
   3 F= -.48448513E+02 E0= -.48448356E+02  d E =-.820156E-01
       N       E                     dE             d eps       ncg     rms          rms(c)
DAV:   1    -0.485452967364E+02   -0.96758E-01   -0.42489E+00 16352   0.159E+01    0.238E+00
DAV:   2    -0.485178671166E+02    0.27430E-01   -0.51529E-01 21416   0.534E+00    0.703E-01
DAV:   3    -0.485112085658E+02    0.66586E-02   -0.37319E-02 23792   0.134E+00    0.432E-01
DAV:   4    -0.485093004665E+02    0.19081E-02   -0.21704E-02 29960   0.101E+00    0.353E-01
DAV:   5    -0.485080201893E+02    0.12803E-02   -0.79688E-03 31024   0.634E-01    0.265E-01
DAV:   6    -0.485081242946E+02   -0.10411E-03   -0.41030E-04 17096   0.133E-01    0.136E-01
DAV:   7    -0.485081579708E+02   -0.33676E-04   -0.16390E-04 13904   0.908E-02
   4 F= -.48508158E+02 E0= -.48508134E+02  d E =-.596453E-01
       N       E                     dE             d eps       ncg     rms          rms(c)
DAV:   1    -0.486929089670E+02   -0.18478E+00   -0.16741E+01 16352   0.317E+01    0.506E+00
DAV:   2    -0.485875248904E+02    0.10538E+00   -0.20059E+00 21288   0.107E+01    0.138E+00
DAV:   3    -0.485602925945E+02    0.27232E-01   -0.14274E-01 25112   0.277E+00    0.856E-01
DAV:   4    -0.485522517548E+02    0.80408E-02   -0.76302E-02 30064   0.193E+00    0.672E-01
DAV:   5    -0.485479432645E+02    0.43085E-02   -0.27334E-02 31380   0.123E+00    0.511E-01
DAV:   6    -0.485483044833E+02   -0.36122E-03   -0.17042E-03 22872   0.274E-01    0.283E-01
DAV:   7    -0.485484553356E+02   -0.15085E-03   -0.59163E-04 24920   0.134E-01    0.312E-02
DAV:   8    -0.485484517239E+02    0.36117E-05   -0.78691E-05 11580   0.710E-02
   5 F= -.48548452E+02 E0= -.48548548E+02  d E =-.999390E-01
       N       E                     dE             d eps       ncg     rms          rms(c)
DAV:   1    -0.485623714403E+02   -0.13916E-01   -0.48918E+00 18536   0.193E+01    0.129E+00
DAV:   2    -0.485979436315E+02   -0.35572E-01   -0.58665E-01 17356   0.516E+00    0.823E-01
DAV:   3    -0.485944951818E+02    0.34484E-02   -0.40590E-02 24656   0.162E+00    0.445E-01
DAV:   4    -0.485925291143E+02    0.19661E-02   -0.14612E-02 27036   0.824E-01    0.274E-01
DAV:   5    -0.485920773565E+02    0.45176E-03   -0.34338E-03 28920   0.422E-01    0.120E-01
DAV:   6    -0.485920878175E+02   -0.10461E-04   -0.31952E-04 16784   0.142E-01
   6 F= -.48592088E+02 E0= -.48592134E+02  d E =-.436361E-01
       N       E                     dE             d eps       ncg     rms          rms(c)
DAV:   1    -0.485673968687E+02    0.24680E-01   -0.69753E+00 18264   0.229E+01    0.151E+00
DAV:   2    -0.486182764384E+02   -0.50880E-01   -0.84283E-01 17384   0.620E+00    0.976E-01
DAV:   3    -0.486132872853E+02    0.49892E-02   -0.59504E-02 24624   0.199E+00    0.526E-01
DAV:   4    -0.486104566079E+02    0.28307E-02   -0.20743E-02 26504   0.975E-01    0.326E-01
DAV:   5    -0.486098465887E+02    0.61002E-03   -0.46865E-03 29384   0.493E-01    0.147E-01
DAV:   6    -0.486098663453E+02   -0.19757E-04   -0.45276E-04 17400   0.165E-01
   7 F= -.48609866E+02 E0= -.48609810E+02  d E =-.614146E-01
       N       E                     dE             d eps       ncg     rms          rms(c)
DAV:   1    -0.486554895610E+02   -0.45643E-01   -0.24638E+00 16572   0.128E+01    0.166E+00
DAV:   2    -0.486507002993E+02    0.47893E-02   -0.31599E-01 19408   0.408E+00    0.558E-01
DAV:   3    -0.486478633739E+02    0.28369E-02   -0.16423E-02 24112   0.916E-01    0.311E-01
DAV:   4    -0.486468978232E+02    0.96555E-03   -0.86474E-03 27248   0.637E-01    0.271E-01
DAV:   5    -0.486464227834E+02    0.47504E-03   -0.34738E-03 30080   0.424E-01    0.192E-01
DAV:   6    -0.486464367472E+02   -0.13964E-04   -0.17117E-04 12548   0.101E-01
   8 F= -.48646437E+02 E0= -.48646397E+02  d E =-.365704E-01
       N       E                     dE             d eps       ncg     rms          rms(c)
DAV:   1    -0.486970029683E+02   -0.50580E-01   -0.70748E+00 16512   0.216E+01    0.265E+00
DAV:   2    -0.486814596830E+02    0.15543E-01   -0.90054E-01 19428   0.685E+00    0.943E-01
DAV:   3    -0.486733970727E+02    0.80626E-02   -0.46030E-02 23800   0.153E+00    0.526E-01
DAV:   4    -0.486706298184E+02    0.27673E-02   -0.24327E-02 27480   0.106E+00    0.456E-01
DAV:   5    -0.486693317837E+02    0.12980E-02   -0.96739E-03 29904   0.723E-01    0.328E-01
DAV:   6    -0.486693855177E+02   -0.53734E-04   -0.58699E-04 20604   0.170E-01
   9 F= -.48669386E+02 E0= -.48669366E+02  d E =-.595192E-01
       N       E                     dE             d eps       ncg     rms          rms(c)
DAV:   1    -0.486767916930E+02   -0.74599E-02   -0.38733E+00 17976   0.166E+01    0.138E+00
DAV:   2    -0.487004200835E+02   -0.23628E-01   -0.49524E-01 16840   0.434E+00    0.824E-01
DAV:   3    -0.486954804103E+02    0.49397E-02   -0.19395E-02 23576   0.943E-01    0.340E-01
DAV:   4    -0.486945748458E+02    0.90556E-03   -0.88357E-03 26240   0.712E-01    0.226E-01
DAV:   5    -0.486941697138E+02    0.40513E-03   -0.33372E-03 23840   0.401E-01    0.950E-02
DAV:   6    -0.486941666851E+02    0.30286E-05   -0.19882E-04 12108   0.107E-01
  10 F= -.48694167E+02 E0= -.48694102E+02  d E =-.247812E-01
       N       E                     dE             d eps       ncg     rms          rms(c)
DAV:   1    -0.486919771653E+02    0.21925E-02   -0.10526E+00 18576   0.866E+00    0.700E-01
DAV:   2    -0.486982634009E+02   -0.62862E-02   -0.13033E-01 16976   0.222E+00    0.426E-01
DAV:   3    -0.486969422513E+02    0.13211E-02   -0.47598E-03 23512   0.468E-01    0.176E-01
DAV:   4    -0.486966757092E+02    0.26654E-03   -0.17074E-03 25768   0.304E-01    0.102E-01
DAV:   5    -0.486966198693E+02    0.55840E-04   -0.57692E-04 16568   0.180E-01
  11 F= -.48696620E+02 E0= -.48696525E+02  d E =-.272344E-01
       N       E                     dE             d eps       ncg     rms          rms(c)
DAV:   1    -0.487108596804E+02   -0.14184E-01   -0.15605E+00 17424   0.927E+00    0.643E-01
DAV:   2    -0.487136398671E+02   -0.27802E-02   -0.11299E-01 19584   0.242E+00    0.429E-01
DAV:   3    -0.487124280968E+02    0.12118E-02   -0.80558E-03 25364   0.689E-01    0.229E-01
DAV:   4    -0.487119585434E+02    0.46955E-03   -0.47486E-03 26472   0.477E-01    0.157E-01
DAV:   5    -0.487117504179E+02    0.20813E-03   -0.14274E-03 23280   0.281E-01    0.373E-02
DAV:   6    -0.487117528746E+02   -0.24566E-05   -0.75448E-05 11128   0.682E-02
  12 F= -.48711753E+02 E0= -.48711614E+02  d E =-.151330E-01
       N       E                     dE             d eps       ncg     rms          rms(c)
DAV:   1    -0.487138689599E+02   -0.21185E-02   -0.50463E-01 17336   0.527E+00    0.364E-01
DAV:   2    -0.487148508133E+02   -0.98185E-03   -0.36681E-02 19504   0.138E+00    0.248E-01
DAV:   3    -0.487144698501E+02    0.38096E-03   -0.26082E-03 25448   0.390E-01    0.132E-01
DAV:   4    -0.487143186057E+02    0.15124E-03   -0.15211E-03 21792   0.274E-01    0.916E-02
DAV:   5    -0.487142448109E+02    0.73795E-04   -0.42106E-04 13336   0.166E-01
  13 F= -.48714245E+02 E0= -.48714086E+02  d E =-.176249E-01
       N       E                     dE             d eps       ncg     rms          rms(c)
DAV:   1    -0.487290365163E+02   -0.14718E-01   -0.17675E+00 18328   0.103E+01    0.687E-01
DAV:   2    -0.487334106879E+02   -0.43742E-02   -0.13969E-01 18868   0.261E+00    0.451E-01
DAV:   3    -0.487319031050E+02    0.15076E-02   -0.12961E-02 25096   0.907E-01    0.266E-01
DAV:   4    -0.487309733922E+02    0.92971E-03   -0.57280E-03 26632   0.526E-01    0.156E-01
DAV:   5    -0.487308016858E+02    0.17171E-03   -0.11658E-03 23200   0.256E-01    0.490E-02
DAV:   6    -0.487308030529E+02   -0.13671E-05   -0.79788E-05 11472   0.700E-02
  14 F= -.48730803E+02 E0= -.48730607E+02  d E =-.165582E-01
       N       E                     dE             d eps       ncg     rms          rms(c)
DAV:   1    -0.487342095368E+02   -0.34079E-02   -0.15667E+00 18336   0.971E+00    0.648E-01
DAV:   2    -0.487380907625E+02   -0.38812E-02   -0.12390E-01 18880   0.245E+00    0.421E-01
DAV:   3    -0.487367472698E+02    0.13435E-02   -0.11360E-02 25120   0.853E-01    0.249E-01
DAV:   4    -0.487359338027E+02    0.81347E-03   -0.49527E-03 26528   0.493E-01    0.145E-01
DAV:   5    -0.487357840680E+02    0.14973E-03   -0.10259E-03 23088   0.241E-01    0.463E-02
DAV:   6    -0.487357852216E+02   -0.11535E-05   -0.70663E-05 11440   0.664E-02
  15 F= -.48735785E+02 E0= -.48735585E+02  d E =-.215404E-01
       N       E                     dE             d eps       ncg     rms          rms(c)
DAV:   1    -0.487362860179E+02   -0.50195E-03   -0.24850E+00 18672   0.135E+01    0.114E+00
DAV:   2    -0.487478670111E+02   -0.11581E-01   -0.29377E-01 17744   0.363E+00    0.527E-01
DAV:   3    -0.487453274815E+02    0.25395E-02   -0.26417E-02 25224   0.134E+00    0.341E-01
DAV:   4    -0.487438525519E+02    0.14749E-02   -0.10107E-02 28168   0.675E-01    0.180E-01
DAV:   5    -0.487436404960E+02    0.21206E-03   -0.12899E-03 25584   0.272E-01    0.124E-01
DAV:   6    -0.487436292986E+02    0.11197E-04   -0.19658E-04 14648   0.952E-02
  16 F= -.48743629E+02 E0= -.48743479E+02  d E =-.784408E-02
       N       E                     dE             d eps       ncg     rms          rms(c)
DAV:   1    -0.487436201542E+02    0.20342E-04   -0.13736E-02 19176   0.101E+00    0.876E-02
DAV:   2    -0.487436822332E+02   -0.62079E-04   -0.16470E-03 18748   0.271E-01    0.415E-02
DAV:   3    -0.487436647102E+02    0.17523E-04   -0.13955E-04 11980   0.102E-01
  17 F= -.48743665E+02 E0= -.48743520E+02  d E =-.787949E-02
       N       E                     dE             d eps       ncg     rms          rms(c)
DAV:   1    -0.487414104074E+02    0.22718E-02   -0.19949E+00 18376   0.116E+01    0.757E-01
DAV:   2    -0.487546261359E+02   -0.13216E-01   -0.21765E-01 17928   0.317E+00    0.512E-01
DAV:   3    -0.487534442411E+02    0.11819E-02   -0.15495E-02 25640   0.101E+00    0.272E-01
DAV:   4    -0.487527444715E+02    0.69977E-03   -0.49439E-03 26528   0.485E-01    0.177E-01
DAV:   5    -0.487525722702E+02    0.17220E-03   -0.11848E-03 23368   0.263E-01    0.479E-02
DAV:   6    -0.487525703709E+02    0.18992E-05   -0.10158E-04 11448   0.843E-02
  18 F= -.48752570E+02 E0= -.48752491E+02  d E =-.890566E-02
       N       E                     dE             d eps       ncg     rms          rms(c)
DAV:   1    -0.487485362262E+02    0.40360E-02   -0.10696E+00 18136   0.851E+00    0.558E-01
DAV:   2    -0.487557968049E+02   -0.72606E-02   -0.11767E-01 17920   0.234E+00    0.379E-01
DAV:   3    -0.487551799681E+02    0.61684E-03   -0.82342E-03 25608   0.733E-01    0.200E-01
DAV:   4    -0.487548170701E+02    0.36290E-03   -0.25869E-03 25672   0.356E-01    0.130E-01
DAV:   5    -0.487547251193E+02    0.91951E-04   -0.62086E-04 19404   0.194E-01
  19 F= -.48754725E+02 E0= -.48754710E+02  d E =-.110604E-01
       N       E                     dE             d eps       ncg     rms          rms(c)
DAV:   1    -0.487488712294E+02    0.59458E-02   -0.14584E+00 18664   0.107E+01    0.561E-01
DAV:   2    -0.487628781923E+02   -0.14007E-01   -0.17930E-01 16632   0.268E+00    0.266E-01
DAV:   3    -0.487627532654E+02    0.12493E-03   -0.43812E-03 26952   0.466E-01    0.163E-01
DAV:   4    -0.487625935895E+02    0.15968E-03   -0.11363E-03 24056   0.241E-01    0.652E-02
DAV:   5    -0.487625663386E+02    0.27251E-04   -0.38543E-04 13136   0.163E-01
  20 F= -.48762566E+02 E0= -.48762636E+02  d E =-.784122E-02
       N       E                     dE             d eps       ncg     rms          rms(c)
DAV:   1    -0.486718096355E+02    0.90784E-01   -0.10458E+01 18080   0.287E+01    0.153E+00
DAV:   2    -0.487736434788E+02   -0.10183E+00   -0.13071E+00 16548   0.727E+00    0.702E-01
DAV:   3    -0.487728626433E+02    0.78084E-03   -0.34259E-02 26896   0.132E+00    0.448E-01
DAV:   4    -0.487719466105E+02    0.91603E-03   -0.95791E-03 28112   0.712E-01    0.233E-01
DAV:   5    -0.487715117460E+02    0.43486E-03   -0.42888E-03 25248   0.527E-01    0.981E-02
DAV:   6    -0.487715078091E+02    0.39369E-05   -0.33876E-04 16668   0.140E-01
  21 F= -.48771508E+02 E0= -.48771561E+02  d E =-.167827E-01
       N       E                     dE             d eps       ncg     rms          rms(c)
DAV:   1    -0.487705510808E+02    0.96067E-03   -0.99689E-01 18024   0.809E+00    0.447E-01
DAV:   2    -0.487787074304E+02   -0.81563E-02   -0.10607E-01 18388   0.206E+00    0.199E-01
DAV:   3    -0.487786962007E+02    0.11230E-04   -0.30036E-03 28376   0.363E-01    0.126E-01
DAV:   4    -0.487786356107E+02    0.60590E-04   -0.69779E-04 21220   0.196E-01
  22 F= -.48778636E+02 E0= -.48778614E+02  d E =-.712780E-02
       N       E                     dE             d eps       ncg     rms          rms(c)
DAV:   1    -0.487277563249E+02    0.50940E-01   -0.89223E+00 17624   0.242E+01    0.140E+00
DAV:   2    -0.488000012780E+02   -0.72245E-01   -0.95349E-01 17760   0.617E+00    0.583E-01
DAV:   3    -0.487998755209E+02    0.12576E-03   -0.30622E-02 27280   0.125E+00    0.390E-01
DAV:   4    -0.487993706231E+02    0.50490E-03   -0.72453E-03 28696   0.641E-01    0.242E-01
DAV:   5    -0.487990044639E+02    0.36616E-03   -0.31814E-03 27668   0.465E-01    0.981E-02
DAV:   6    -0.487990210115E+02   -0.16548E-04   -0.28233E-04 17016   0.125E-01
  23 F= -.48799021E+02 E0= -.48798657E+02  d E =-.275132E-01
       N       E                     dE             d eps       ncg     rms          rms(c)
DAV:   1    -0.485442876013E+02    0.25472E+00   -0.35646E+01 16536   0.486E+01    0.302E+00
DAV:   2    -0.488424526002E+02   -0.29816E+00   -0.38966E+00 17536   0.127E+01    0.117E+00
DAV:   3    -0.488420934806E+02    0.35912E-03   -0.12761E-01 26928   0.255E+00    0.773E-01
DAV:   4    -0.488400093476E+02    0.20841E-02   -0.27434E-02 29576   0.127E+00    0.490E-01
DAV:   5    -0.488387189371E+02    0.12904E-02   -0.11220E-02 26080   0.943E-01    0.207E-01
DAV:   6    -0.488388055468E+02   -0.86610E-04   -0.12637E-03 20860   0.258E-01    0.104E-01
DAV:   7    -0.488388209238E+02   -0.15377E-04   -0.21119E-04 14240   0.124E-01
  24 F= -.48838821E+02 E0= -.48838811E+02  d E =-.673131E-01
       N       E                     dE             d eps       ncg     rms          rms(c)
DAV:   1    -0.478002550825E+02    0.10386E+01   -0.14420E+02 18312   0.979E+01    0.668E+00
DAV:   2    -0.488556019632E+02   -0.10553E+01   -0.13908E+01 16976   0.245E+01    0.239E+00
DAV:   3    -0.488482728747E+02    0.73291E-02   -0.47709E-01 29640   0.497E+00    0.167E+00
DAV:   4    -0.488394994194E+02    0.87735E-02   -0.10149E-01 27432   0.244E+00    0.108E+00
DAV:   5    -0.488342350918E+02    0.52643E-02   -0.45098E-02 25640   0.196E+00    0.438E-01
DAV:   6    -0.488345423903E+02   -0.30730E-03   -0.55674E-03 21840   0.549E-01    0.225E-01
DAV:   7    -0.488346135866E+02   -0.71196E-04   -0.90235E-04 23032   0.235E-01
  25 F= -.48834614E+02 E0= -.48834428E+02  d E =-.631058E-01
       N       E                     dE             d eps       ncg     rms          rms(c)
DAV:   1    -0.484224288486E+02    0.41211E+00   -0.56124E+01 16872   0.621E+01    0.321E+00
DAV:   2    -0.488626907083E+02   -0.44026E+00   -0.59401E+00 17628   0.163E+01    0.184E+00
DAV:   3    -0.488627041082E+02   -0.13400E-04   -0.17991E-01 27032   0.299E+00    0.102E+00
DAV:   4    -0.488574001247E+02    0.53040E-02   -0.29246E-02 27568   0.139E+00    0.591E-01
DAV:   5    -0.488563989252E+02    0.10012E-02   -0.13455E-02 25052   0.977E-01    0.220E-01
DAV:   6    -0.488563470254E+02    0.51900E-04   -0.19812E-03 23704   0.388E-01    0.154E-01
DAV:   7    -0.488563239448E+02    0.23081E-04   -0.27625E-04 14296   0.158E-01
  26 F= -.48856324E+02 E0= -.48856272E+02  d E =-.848161E-01
       N       E                     dE             d eps       ncg     rms          rms(c)
DAV:   1    -0.487010749061E+02    0.15527E+00   -0.14448E+01 16360   0.348E+01    0.222E+00
DAV:   2    -0.489039980656E+02   -0.20292E+00   -0.24681E+00 16520   0.100E+01    0.107E+00
DAV:   3    -0.489027367111E+02    0.12614E-02   -0.66235E-02 24520   0.190E+00    0.666E-01
DAV:   4    -0.489011227609E+02    0.16140E-02   -0.17600E-02 26504   0.100E+00    0.390E-01
DAV:   5    -0.489006051302E+02    0.51763E-03   -0.70809E-03 25008   0.747E-01    0.208E-01
DAV:   6    -0.489006029324E+02    0.21979E-05   -0.94522E-04 24760   0.268E-01
  27 F= -.48900603E+02 E0= -.48900517E+02  d E =-.442790E-01
       N       E                     dE             d eps       ncg     rms          rms(c)
DAV:   1    -0.488976603578E+02    0.29448E-02   -0.32492E-01 17900   0.519E+00    0.381E-01
DAV:   2    -0.489020142736E+02   -0.43539E-02   -0.52576E-02 16616   0.143E+00    0.137E-01
DAV:   3    -0.489019617224E+02    0.52551E-04   -0.12722E-03 23288   0.263E-01    0.822E-02
DAV:   4    -0.489019217731E+02    0.39949E-04   -0.25360E-04 14524   0.131E-01
  28 F= -.48901922E+02 E0= -.48901837E+02  d E =-.455978E-01
       N       E                     dE             d eps       ncg     rms          rms(c)
DAV:   1    -0.489206905011E+02   -0.18729E-01   -0.50621E+00 18328   0.195E+01    0.186E+00
DAV:   2    -0.489525899493E+02   -0.31899E-01   -0.58153E-01 17888   0.523E+00    0.700E-01
DAV:   3    -0.489508231378E+02    0.17668E-02   -0.24281E-02 29408   0.991E-01    0.342E-01
DAV:   4    -0.489501042629E+02    0.71887E-03   -0.32043E-03 27176   0.380E-01    0.218E-01
DAV:   5    -0.489501661212E+02   -0.61858E-04   -0.69425E-04 23792   0.163E-01
  29 F= -.48950166E+02 E0= -.48950109E+02  d E =-.482443E-01
       N       E                     dE             d eps       ncg     rms          rms(c)
DAV:   1    -0.489299847276E+02    0.20120E-01   -0.57338E+00 18456   0.209E+01    0.205E+00
DAV:   2    -0.489662171486E+02   -0.36232E-01   -0.65502E-01 18264   0.557E+00    0.812E-01
DAV:   3    -0.489640118685E+02    0.22053E-02   -0.27679E-02 29588   0.107E+00    0.394E-01
DAV:   4    -0.489632535145E+02    0.75835E-03   -0.39745E-03 27968   0.454E-01    0.261E-01
DAV:   5    -0.489633092869E+02   -0.55772E-04   -0.11770E-03 27208   0.257E-01    0.176E-01
DAV:   6    -0.489633776902E+02   -0.68403E-04   -0.39140E-04 14288   0.193E-01
  30 F= -.48963378E+02 E0= -.48963282E+02  d E =-.614559E-01
       N       E                     dE             d eps       ncg     rms          rms(c)
DAV:   1    -0.489723672435E+02   -0.90580E-02   -0.25407E+00 18272   0.133E+01    0.922E-01
DAV:   2    -0.489897805698E+02   -0.17413E-01   -0.28511E-01 17900   0.367E+00    0.531E-01
DAV:   3    -0.489888865433E+02    0.89403E-03   -0.14405E-02 25156   0.978E-01    0.275E-01
DAV:   4    -0.489883874252E+02    0.49912E-03   -0.43352E-03 26448   0.568E-01    0.213E-01
DAV:   5    -0.489881900675E+02    0.19736E-03   -0.18751E-03 25280   0.346E-01    0.618E-02
DAV:   6    -0.489881824162E+02    0.76513E-05   -0.14967E-04 12464   0.108E-01
  31 F= -.48988182E+02 E0= -.48988024E+02  d E =-.248047E-01
       N       E                     dE             d eps       ncg     rms          rms(c)
DAV:   1    -0.489796915957E+02    0.84985E-02   -0.27090E+00 18392   0.138E+01    0.926E-01
DAV:   2    -0.489982980525E+02   -0.18606E-01   -0.30383E-01 17948   0.379E+00    0.558E-01
DAV:   3    -0.489973707794E+02    0.92727E-03   -0.15683E-02 25016   0.102E+00    0.291E-01
DAV:   4    -0.489968479582E+02    0.52282E-03   -0.46700E-03 26616   0.582E-01    0.229E-01
DAV:   5    -0.489966236402E+02    0.22432E-03   -0.21254E-03 26052   0.363E-01    0.669E-02
DAV:   6    -0.489966158865E+02    0.77537E-05   -0.16820E-04 13176   0.113E-01
  32 F= -.48996616E+02 E0= -.48996490E+02  d E =-.332382E-01
       N       E                     dE             d eps       ncg     rms          rms(c)
DAV:   1    -0.490044821374E+02   -0.78585E-02   -0.15544E+00 16792   0.114E+01    0.102E+00
DAV:   2    -0.490180287972E+02   -0.13547E-01   -0.27694E-01 17448   0.347E+00    0.359E-01
DAV:   3    -0.490174277029E+02    0.60109E-03   -0.11886E-02 25500   0.846E-01    0.206E-01
DAV:   4    -0.490170240605E+02    0.40364E-03   -0.31254E-03 26160   0.475E-01    0.155E-01
DAV:   5    -0.490168344744E+02    0.18959E-03   -0.12184E-03 28096   0.278E-01    0.102E-01
DAV:   6    -0.490168431302E+02   -0.86558E-05   -0.10168E-04 11884   0.829E-02
  33 F= -.49016843E+02 E0= -.49016858E+02  d E =-.202272E-01
       N       E                     dE             d eps       ncg     rms          rms(c)
DAV:   1    -0.490101662000E+02    0.66683E-02   -0.17111E+00 16712   0.119E+01    0.104E+00
DAV:   2    -0.490249454127E+02   -0.14779E-01   -0.30461E-01 17572   0.365E+00    0.393E-01
DAV:   3    -0.490242041536E+02    0.74126E-03   -0.13413E-02 25564   0.900E-01    0.223E-01
DAV:   4    -0.490237387618E+02    0.46539E-03   -0.36968E-03 26000   0.512E-01    0.173E-01
DAV:   5    -0.490235195019E+02    0.21926E-03   -0.14675E-03 29352   0.299E-01    0.112E-01
DAV:   6    -0.490235299094E+02   -0.10408E-04   -0.11157E-04 11772   0.874E-02
  34 F= -.49023530E+02 E0= -.49023658E+02  d E =-.269140E-01
       N       E                     dE             d eps       ncg     rms          rms(c)
DAV:   1    -0.490273505886E+02   -0.38311E-02   -0.82813E-01 18416   0.804E+00    0.535E-01
DAV:   2    -0.490349571985E+02   -0.76066E-02   -0.11774E-01 17048   0.215E+00    0.343E-01
DAV:   3    -0.490345977649E+02    0.35943E-03   -0.50370E-03 25072   0.596E-01    0.179E-01
DAV:   4    -0.490343925761E+02    0.20519E-03   -0.17873E-03 23784   0.346E-01    0.109E-01
DAV:   5    -0.490343063618E+02    0.86214E-04   -0.64579E-04 19816   0.212E-01
  35 F= -.49034306E+02 E0= -.49034448E+02  d E =-.107765E-01
       N       E                     dE             d eps       ncg     rms          rms(c)
DAV:   1    -0.490286716539E+02    0.57209E-02   -0.11445E+00 18440   0.949E+00    0.624E-01
DAV:   2    -0.490391797827E+02   -0.10508E-01   -0.16307E-01 17148   0.253E+00    0.406E-01
DAV:   3    -0.490387186079E+02    0.46117E-03   -0.71729E-03 25136   0.710E-01    0.214E-01
DAV:   4    -0.490384400550E+02    0.27855E-03   -0.24051E-03 25032   0.403E-01    0.130E-01
DAV:   5    -0.490383262267E+02    0.11383E-03   -0.89012E-04 23256   0.245E-01    0.369E-02
DAV:   6    -0.490383270112E+02   -0.78454E-06   -0.76970E-05 11464   0.726E-02
  36 F= -.49038327E+02 E0= -.49038476E+02  d E =-.147971E-01
       N       E                     dE             d eps       ncg     rms          rms(c)
DAV:   1    -0.490414868647E+02   -0.31606E-02   -0.64590E-01 16352   0.653E+00    0.473E-01
DAV:   2    -0.490455620063E+02   -0.40751E-02   -0.65206E-02 18324   0.182E+00    0.207E-01
DAV:   3    -0.490453966765E+02    0.16533E-03   -0.24469E-03 25952   0.330E-01    0.117E-01
DAV:   4    -0.490453230829E+02    0.73594E-04   -0.62765E-04 20480   0.210E-01
  37 F= -.49045323E+02 E0= -.49045498E+02  d E =-.699607E-02
       N       E                     dE             d eps       ncg     rms          rms(c)
DAV:   1    -0.490443756546E+02    0.10210E-02   -0.43694E-01 16360   0.538E+00    0.387E-01
DAV:   2    -0.490471026269E+02   -0.27270E-02   -0.43951E-02 18336   0.149E+00    0.172E-01
DAV:   3    -0.490470006438E+02    0.10198E-03   -0.16332E-03 24992   0.266E-01    0.971E-02
DAV:   4    -0.490469486862E+02    0.51958E-04   -0.35767E-04 15300   0.165E-01
  38 F= -.49046949E+02 E0= -.49047141E+02  d E =-.862168E-02
       N       E                     dE             d eps       ncg     rms          rms(c)
DAV:   1    -0.490520497025E+02   -0.50491E-02   -0.47722E-01 16364   0.533E+00    0.386E-01
DAV:   2    -0.490538007583E+02   -0.17511E-02   -0.40178E-02 19328   0.148E+00    0.159E-01
DAV:   3    -0.490536926347E+02    0.10812E-03   -0.18719E-03 29608   0.302E-01    0.934E-02
DAV:   4    -0.490536301057E+02    0.62529E-04   -0.49069E-04 16504   0.192E-01
  39 F= -.49053630E+02 E0= -.49053835E+02  d E =-.668142E-02
       N       E                     dE             d eps       ncg     rms          rms(c)
DAV:   1    -0.490477770589E+02    0.59156E-02   -0.42911E+00 16352   0.160E+01    0.117E+00
DAV:   2    -0.490631770200E+02   -0.15400E-01   -0.36306E-01 19308   0.442E+00    0.478E-01
DAV:   3    -0.490621966703E+02    0.98035E-03   -0.16522E-02 29256   0.907E-01    0.275E-01
DAV:   4    -0.490616989516E+02    0.49772E-03   -0.47863E-03 26872   0.570E-01    0.173E-01
DAV:   5    -0.490614711183E+02    0.22783E-03   -0.21495E-03 28104   0.401E-01    0.100E-01
DAV:   6    -0.490614822048E+02   -0.11087E-04   -0.13518E-04 11680   0.956E-02
  40 F= -.49061482E+02 E0= -.49061650E+02  d E =-.145335E-01
       N       E                     dE             d eps       ncg     rms          rms(c)
DAV:   1    -0.490650520254E+02   -0.35809E-02   -0.18446E-01 16412   0.310E+00    0.183E-01
DAV:   2    -0.490656500159E+02   -0.59799E-03   -0.12120E-02 19512   0.832E-01    0.114E-01
DAV:   3    -0.490656576270E+02   -0.76112E-05   -0.52243E-04 24248   0.159E-01
  41 F= -.49065658E+02 E0= -.49065811E+02  d E =-.417542E-02
       N       E                     dE             d eps       ncg     rms          rms(c)
DAV:   1    -0.490717240762E+02   -0.60741E-02   -0.16531E+00 16352   0.926E+00    0.563E-01
DAV:   2    -0.490769237405E+02   -0.51997E-02   -0.10841E-01 19588   0.250E+00    0.362E-01
DAV:   3    -0.490769665431E+02   -0.42803E-04   -0.49988E-03 29848   0.494E-01    0.206E-01
DAV:   4    -0.490769083618E+02    0.58181E-04   -0.13162E-03 24080   0.315E-01    0.134E-01
DAV:   5    -0.490768444396E+02    0.63922E-04   -0.70419E-04 18928   0.236E-01
  42 F= -.49076844E+02 E0= -.49076979E+02  d E =-.153622E-01
       N       E                     dE             d eps       ncg     rms          rms(c)
DAV:   1    -0.490724237001E+02    0.44847E-02   -0.66250E+00 16352   0.186E+01    0.116E+00
DAV:   2    -0.490936729681E+02   -0.21249E-01   -0.44322E-01 19680   0.506E+00    0.735E-01
DAV:   3    -0.490938119113E+02   -0.13894E-03   -0.22221E-02 29636   0.114E+00    0.409E-01
DAV:   4    -0.490935853424E+02    0.22657E-03   -0.57906E-03 26368   0.677E-01    0.299E-01
DAV:   5    -0.490932912472E+02    0.29410E-03   -0.33151E-03 29876   0.490E-01    0.121E-01
DAV:   6    -0.490933023703E+02   -0.11123E-04   -0.21844E-04 12752   0.117E-01
  43 F= -.49093302E+02 E0= -.49093473E+02  d E =-.318202E-01
       N       E                     dE             d eps       ncg     rms          rms(c)
DAV:   1    -0.490148585494E+02    0.78433E-01   -0.26403E+01 16352   0.371E+01    0.247E+00
DAV:   2    -0.491006366624E+02   -0.85778E-01   -0.18059E+00 19716   0.102E+01    0.150E+00
DAV:   3    -0.491006711395E+02   -0.34477E-04   -0.91612E-02 28632   0.236E+00    0.843E-01
DAV:   4    -0.490997288846E+02    0.94225E-03   -0.25572E-02 27280   0.144E+00    0.638E-01
DAV:   5    -0.490984004143E+02    0.13285E-02   -0.14251E-02 30328   0.102E+00    0.249E-01
DAV:   6    -0.490984626120E+02   -0.62198E-04   -0.10353E-03 19184   0.237E-01    0.197E-01
DAV:   7    -0.490984262841E+02    0.36328E-04   -0.43248E-04 16936   0.193E-01
  44 F= -.49098426E+02 E0= -.49098599E+02  d E =-.369441E-01
       N       E                     dE             d eps       ncg     rms          rms(c)
DAV:   1    -0.490884787153E+02    0.99839E-02   -0.43100E+00 16352   0.150E+01    0.883E-01
DAV:   2    -0.491018498070E+02   -0.13371E-01   -0.29213E-01 19772   0.417E+00    0.593E-01
DAV:   3    -0.491017780927E+02    0.71714E-04   -0.17254E-02 29456   0.107E+00    0.311E-01
DAV:   4    -0.491014973915E+02    0.28070E-03   -0.42088E-03 26352   0.596E-01    0.234E-01
DAV:   5    -0.491012640630E+02    0.23333E-03   -0.21971E-03 29344   0.383E-01    0.885E-02
DAV:   6    -0.491012688966E+02   -0.48336E-05   -0.13638E-04 11644   0.946E-02
  45 F= -.49101269E+02 E0= -.49101476E+02  d E =-.397867E-01
       N       E                     dE             d eps       ncg     rms          rms(c)
DAV:   1    -0.491111124712E+02   -0.98484E-02   -0.89447E-01 16352   0.641E+00    0.495E-01
DAV:   2    -0.491130376860E+02   -0.19252E-02   -0.48193E-02 21736   0.175E+00    0.213E-01
DAV:   3    -0.491129410614E+02    0.96625E-04   -0.17902E-03 28672   0.279E-01    0.124E-01
DAV:   4    -0.491128729968E+02    0.68065E-04   -0.37148E-04 19040   0.156E-01
  46 F= -.49112873E+02 E0= -.49113077E+02  d E =-.116041E-01
       N       E                     dE             d eps       ncg     rms          rms(c)
DAV:   1    -0.491246836824E+02   -0.11743E-01   -0.80318E+00 16352   0.192E+01    0.148E+00
DAV:   2    -0.491416277455E+02   -0.16944E-01   -0.44040E-01 21848   0.527E+00    0.667E-01
DAV:   3    -0.491409224876E+02    0.70526E-03   -0.16159E-02 28808   0.833E-01    0.406E-01
DAV:   4    -0.491404812646E+02    0.44122E-03   -0.37235E-03 28272   0.477E-01    0.251E-01
DAV:   5    -0.491404587545E+02    0.22510E-04   -0.16537E-03 25912   0.360E-01    0.180E-01
DAV:   6    -0.491404795390E+02   -0.20784E-04   -0.22932E-04 11732   0.156E-01
  47 F= -.49140480E+02 E0= -.49140646E+02  d E =-.392106E-01
       N       E                     dE             d eps       ncg     rms          rms(c)
DAV:   1    -0.490902404135E+02    0.50218E-01   -0.31984E+01 16352   0.383E+01    0.319E+00
DAV:   2    -0.491586777283E+02   -0.68437E-01   -0.18095E+00 22072   0.106E+01    0.133E+00
DAV:   3    -0.491556290137E+02    0.30487E-02   -0.64405E-02 27648   0.161E+00    0.815E-01
DAV:   4    -0.491536075938E+02    0.20214E-02   -0.14215E-02 28120   0.858E-01    0.477E-01
DAV:   5    -0.491538100174E+02   -0.20242E-03   -0.39603E-03 27408   0.557E-01    0.343E-01
DAV:   6    -0.491539089834E+02   -0.98966E-04   -0.14179E-03 25536   0.348E-01    0.178E-01
DAV:   7    -0.491539116480E+02   -0.26646E-05   -0.27450E-04 11968   0.172E-01
  48 F= -.49153912E+02 E0= -.49153889E+02  d E =-.526428E-01
       N       E                     dE             d eps       ncg     rms          rms(c)
DAV:   1    -0.491507665982E+02    0.31424E-02   -0.32516E+00 16352   0.123E+01    0.917E-01
DAV:   2    -0.491573532782E+02   -0.65867E-02   -0.18110E-01 22024   0.340E+00    0.416E-01
DAV:   3    -0.491570329842E+02    0.32029E-03   -0.68941E-03 28472   0.543E-01    0.243E-01
DAV:   4    -0.491567087869E+02    0.32420E-03   -0.13500E-03 27992   0.257E-01    0.141E-01
DAV:   5    -0.491567102169E+02   -0.14301E-05   -0.31072E-04 13104   0.174E-01
  49 F= -.49156710E+02 E0= -.49156752E+02  d E =-.554413E-01
       N       E                     dE             d eps       ncg     rms          rms(c)
DAV:   1    -0.491674283970E+02   -0.10720E-01   -0.14442E+00 16352   0.949E+00    0.637E-01
DAV:   2    -0.491760756099E+02   -0.86472E-02   -0.12958E-01 20480   0.260E+00    0.357E-01
DAV:   3    -0.491757204894E+02    0.35512E-03   -0.65012E-03 26680   0.700E-01    0.164E-01
DAV:   4    -0.491755385968E+02    0.18189E-03   -0.20450E-03 25000   0.407E-01    0.112E-01
DAV:   5    -0.491754564333E+02    0.82163E-04   -0.54071E-04 16048   0.229E-01
  50 F= -.49175456E+02 E0= -.49175523E+02  d E =-.187462E-01
       N       E                     dE             d eps       ncg     rms          rms(c)
DAV:   1    -0.491307204385E+02    0.44818E-01   -0.13002E+01 16352   0.285E+01    0.187E+00
DAV:   2    -0.492084059246E+02   -0.77685E-01   -0.11793E+00 20452   0.783E+00    0.106E+00
DAV:   3    -0.492050122965E+02    0.33936E-02   -0.66609E-02 26856   0.222E+00    0.509E-01
DAV:   4    -0.492031720478E+02    0.18402E-02   -0.18277E-02 28128   0.122E+00    0.364E-01
DAV:   5    -0.492025740415E+02    0.59801E-03   -0.50396E-03 27752   0.635E-01    0.161E-01
DAV:   6    -0.492026424197E+02   -0.68378E-04   -0.57334E-04 20032   0.184E-01
  51 F= -.49202642E+02 E0= -.49202768E+02  d E =-.459322E-01
       N       E                     dE             d eps       ncg     rms          rms(c)
DAV:   1    -0.492227956992E+02   -0.20222E-01   -0.26589E+00 16352   0.111E+01    0.109E+00
DAV:   2    -0.492274171473E+02   -0.46214E-02   -0.17567E-01 21964   0.334E+00    0.421E-01
DAV:   3    -0.492260744775E+02    0.13427E-02   -0.10488E-02 29616   0.828E-01    0.231E-01
DAV:   4    -0.492256799459E+02    0.39453E-03   -0.39631E-03 27728   0.570E-01    0.197E-01
DAV:   5    -0.492254946608E+02    0.18529E-03   -0.12826E-03 25344   0.330E-01    0.112E-01
DAV:   6    -0.492255049687E+02   -0.10308E-04   -0.94017E-05 11656   0.797E-02
  52 F= -.49225505E+02 E0= -.49225661E+02  d E =-.228625E-01
       N       E                     dE             d eps       ncg     rms          rms(c)
DAV:   1    -0.492289862954E+02   -0.34916E-02   -0.16680E+01 16352   0.277E+01    0.257E+00
DAV:   2    -0.492591593708E+02   -0.30173E-01   -0.11029E+00 21496   0.832E+00    0.105E+00
DAV:   3    -0.492512779785E+02    0.78814E-02   -0.70677E-02 30584   0.209E+00    0.581E-01
DAV:   4    -0.492488043828E+02    0.24736E-02   -0.26776E-02 27672   0.145E+00    0.491E-01
DAV:   5    -0.492475615022E+02    0.12429E-02   -0.85953E-03 29016   0.816E-01    0.288E-01
DAV:   6    -0.492476536226E+02   -0.92120E-04   -0.72728E-04 21212   0.187E-01
  53 F= -.49247654E+02 E0= -.49247839E+02  d E =-.450112E-01
       N       E                     dE             d eps       ncg     rms          rms(c)
DAV:   1    -0.492531334789E+02   -0.55720E-02   -0.14102E+00 16352   0.884E+00    0.539E-01
DAV:   2    -0.492613370752E+02   -0.82036E-02   -0.11744E-01 19960   0.251E+00    0.242E-01
DAV:   3    -0.492611497013E+02    0.18737E-03   -0.39602E-03 28540   0.403E-01    0.142E-01
DAV:   4    -0.492610353747E+02    0.11433E-03   -0.75188E-04 23040   0.211E-01    0.461E-02
DAV:   5    -0.492610285434E+02    0.68313E-05   -0.20635E-04 11668   0.149E-01
  54 F= -.49261029E+02 E0= -.49261214E+02  d E =-.133749E-01
       N       E                     dE             d eps       ncg     rms          rms(c)
DAV:   1    -0.492147684923E+02    0.46267E-01   -0.12741E+01 16352   0.266E+01    0.170E+00
DAV:   2    -0.492894789422E+02   -0.74710E-01   -0.10688E+00 19644   0.760E+00    0.741E-01
DAV:   3    -0.492878490299E+02    0.16299E-02   -0.37831E-02 28864   0.132E+00    0.434E-01
DAV:   4    -0.492872475672E+02    0.60146E-03   -0.10479E-02 25616   0.887E-01    0.239E-01
DAV:   5    -0.492867547903E+02    0.49278E-03   -0.51030E-03 25104   0.649E-01    0.812E-02
DAV:   6    -0.492867734832E+02   -0.18693E-04   -0.31280E-04 15528   0.145E-01
  55 F= -.49286773E+02 E0= -.49286810E+02  d E =-.391199E-01
       N       E                     dE             d eps       ncg     rms          rms(c)
DAV:   1    -0.489708637754E+02    0.31589E+00   -0.51152E+01 16352   0.531E+01    0.370E+00
DAV:   2    -0.492771559865E+02   -0.30629E+00   -0.43580E+00 19408   0.153E+01    0.152E+00
DAV:   3    -0.492714178636E+02    0.57381E-02   -0.16789E-01 31216   0.289E+00    0.910E-01
DAV:   4    -0.492692865205E+02    0.21313E-02   -0.51150E-02 25824   0.194E+00    0.601E-01
DAV:   5    -0.492664000064E+02    0.28865E-02   -0.26952E-02 25624   0.142E+00    0.179E-01
DAV:   6    -0.492665345448E+02   -0.13454E-03   -0.18778E-03 22464   0.330E-01    0.841E-02
DAV:   7    -0.492665437890E+02   -0.92443E-05   -0.24679E-04 13776   0.148E-01
  56 F= -.49266544E+02 E0= -.49266727E+02  d E =-.188902E-01
       N       E                     dE             d eps       ncg     rms          rms(c)
DAV:   1    -0.491445723148E+02    0.12196E+00   -0.26329E+01 16352   0.384E+01    0.220E+00
DAV:   2    -0.492972457243E+02   -0.15267E+00   -0.22114E+00 19580   0.110E+01    0.115E+00
DAV:   3    -0.492939147557E+02    0.33310E-02   -0.85864E-02 29064   0.212E+00    0.707E-01
DAV:   4    -0.492926610548E+02    0.12537E-02   -0.27599E-02 27184   0.143E+00    0.396E-01
DAV:   5    -0.492911121379E+02    0.15489E-02   -0.13801E-02 24856   0.108E+00    0.148E-01
DAV:   6    -0.492911529734E+02   -0.40835E-04   -0.89650E-04 19488   0.231E-01
  57 F= -.49291153E+02 E0= -.49291131E+02  d E =-.434994E-01
       N       E                     dE             d eps       ncg     rms          rms(c)
DAV:   1    -0.492988004685E+02   -0.76883E-02   -0.10045E+00 18688   0.931E+00    0.896E-01
DAV:   2    -0.493052692220E+02   -0.64688E-02   -0.14647E-01 18476   0.263E+00    0.293E-01
DAV:   3    -0.493048322000E+02    0.43702E-03   -0.60159E-03 29648   0.558E-01    0.174E-01
DAV:   4    -0.493047018477E+02    0.13035E-03   -0.16880E-03 27312   0.362E-01    0.154E-01
DAV:   5    -0.493046169775E+02    0.84870E-04   -0.63238E-04 19228   0.222E-01
  58 F= -.49304617E+02 E0= -.49304631E+02  d E =-.134640E-01
       N       E                     dE             d eps       ncg     rms          rms(c)
DAV:   1    -0.492855859785E+02    0.19116E-01   -0.44967E+00 18424   0.198E+01    0.195E+00
DAV:   2    -0.493161426790E+02   -0.30557E-01   -0.67132E-01 18612   0.563E+00    0.642E-01
DAV:   3    -0.493141652671E+02    0.19774E-02   -0.27428E-02 29344   0.120E+00    0.394E-01
DAV:   4    -0.493136235854E+02    0.54168E-03   -0.81180E-03 30120   0.797E-01    0.354E-01
DAV:   5    -0.493132467205E+02    0.37686E-03   -0.31221E-03 29592   0.470E-01    0.236E-01
DAV:   6    -0.493133262127E+02   -0.79492E-04   -0.39312E-04 18304   0.162E-01
  59 F= -.49313326E+02 E0= -.49313454E+02  d E =-.221732E-01
       N       E                     dE             d eps       ncg     rms          rms(c)
DAV:   1    -0.493258433372E+02   -0.12597E-01   -0.55440E-01 16352   0.496E+00    0.647E-01
DAV:   2    -0.493239894387E+02    0.18539E-02   -0.39062E-02 23880   0.164E+00    0.243E-01
DAV:   3    -0.493235520143E+02    0.43742E-03   -0.30975E-03 26544   0.457E-01    0.142E-01
DAV:   4    -0.493234227024E+02    0.12931E-03   -0.15343E-03 23184   0.361E-01    0.120E-01
DAV:   5    -0.493233384365E+02    0.84266E-04   -0.52286E-04 17576   0.204E-01
  60 F= -.49323338E+02 E0= -.49323470E+02  d E =-.100122E-01
