   9   9   1   0
  0.9847582E+01  0.3153087E-09  0.5236582E-09  0.5868542E-09  0.5000000E-15
  1.000000000000000E-004
  CAR 
 unknown system                          
     17.34170559    -36.78846885  301      1.26053294      1.00000000
    -36.788  0.0000E+00  0.0000E+00  0.0000E+00  0.0000E+00
    -36.608  0.0000E+00  0.0000E+00  0.0000E+00  0.0000E+00
    -36.428  0.0000E+00  0.0000E+00  0.0000E+00  0.0000E+00
    -36.247  0.0000E+00  0.0000E+00  0.0000E+00  0.0000E+00
    -36.067  0.0000E+00  0.0000E+00  0.0000E+00  0.0000E+00
    -35.886  0.0000E+00  0.0000E+00  0.0000E+00  0.0000E+00
    -35.706  0.0000E+00  0.0000E+00  0.0000E+00  0.0000E+00
    -35.525  0.0000E+00  0.0000E+00  0.0000E+00  0.0000E+00
    -35.345  0.0000E+00  0.0000E+00  0.0000E+00  0.0000E+00
    -35.165  0.0000E+00  0.0000E+00  0.0000E+00  0.0000E+00
    -34.984  0.0000E+00  0.0000E+00  0.0000E+00  0.0000E+00
    -34.804  0.0000E+00  0.0000E+00  0.0000E+00  0.0000E+00
    -34.623  0.0000E+00  0.0000E+00  0.0000E+00  0.0000E+00
    -34.443  0.0000E+00  0.0000E+00  0.0000E+00  0.0000E+00
    -34.262  0.4363E-01  0.4363E-01  0.4883E-02  0.4883E-02
    -34.082  0.0000E+00  0.0000E+00  0.1010E-01  0.1010E-01
    -33.902  0.0000E+00  0.0000E+00  0.1010E-01  0.1010E-01
    -33.721  0.0000E+00  0.0000E+00  0.1010E-01  0.1010E-01
    -33.541  0.0000E+00  0.0000E+00  0.1010E-01  0.1010E-01
    -33.360  0.0000E+00  0.0000E+00  0.1010E-01  0.1010E-01
    -33.180  0.0000E+00  0.0000E+00  0.1010E-01  0.1010E-01
    -32.999  0.0000E+00  0.0000E+00  0.1010E-01  0.1010E-01
    -32.819  0.0000E+00  0.0000E+00  0.1010E-01  0.1010E-01
    -32.638  0.0000E+00  0.0000E+00  0.1010E-01  0.1010E-01
    -32.458  0.0000E+00  0.0000E+00  0.1010E-01  0.1010E-01
    -32.278  0.0000E+00  0.0000E+00  0.1010E-01  0.1010E-01
    -32.097  0.0000E+00  0.0000E+00  0.1010E-01  0.1010E-01
    -31.917  0.0000E+00  0.0000E+00  0.1010E-01  0.1010E-01
    -31.736  0.0000E+00  0.0000E+00  0.1010E-01  0.1010E-01
    -31.556  0.0000E+00  0.0000E+00  0.1010E-01  0.1010E-01
    -31.375  0.0000E+00  0.0000E+00  0.1010E-01  0.1010E-01
    -31.195  0.0000E+00  0.0000E+00  0.1010E-01  0.1010E-01
    -31.015  0.0000E+00  0.0000E+00  0.1010E-01  0.1010E-01
    -30.834  0.0000E+00  0.0000E+00  0.1010E-01  0.1010E-01
    -30.654  0.0000E+00  0.0000E+00  0.1010E-01  0.1010E-01
    -30.473  0.0000E+00  0.0000E+00  0.1010E-01  0.1010E-01
    -30.293  0.0000E+00  0.0000E+00  0.1010E-01  0.1010E-01
    -30.112  0.0000E+00  0.0000E+00  0.1010E-01  0.1010E-01
    -29.932  0.1426E+00  0.1426E+00  0.1475E-01  0.1475E-01
    -29.752  0.1904E-01  0.1904E-01  0.3520E-01  0.3520E-01
    -29.571  0.0000E+00  0.0000E+00  0.4040E-01  0.4040E-01
    -29.391  0.0000E+00  0.0000E+00  0.4040E-01  0.4040E-01
    -29.210  0.0000E+00  0.0000E+00  0.4040E-01  0.4040E-01
    -29.030  0.0000E+00  0.0000E+00  0.4040E-01  0.4040E-01
    -28.849  0.0000E+00  0.0000E+00  0.4040E-01  0.4040E-01
    -28.669  0.0000E+00  0.0000E+00  0.4040E-01  0.4040E-01
    -28.489  0.0000E+00  0.0000E+00  0.4040E-01  0.4040E-01
    -28.308  0.0000E+00  0.0000E+00  0.4040E-01  0.4040E-01
    -28.128  0.0000E+00  0.0000E+00  0.4040E-01  0.4040E-01
    -27.947  0.0000E+00  0.0000E+00  0.4040E-01  0.4040E-01
    -27.767  0.0000E+00  0.0000E+00  0.4040E-01  0.4040E-01
    -27.586  0.0000E+00  0.0000E+00  0.4040E-01  0.4040E-01
    -27.406  0.0000E+00  0.0000E+00  0.4040E-01  0.4040E-01
    -27.225  0.0000E+00  0.0000E+00  0.4040E-01  0.4040E-01
    -27.045  0.0000E+00  0.0000E+00  0.4040E-01  0.4040E-01
    -26.865  0.0000E+00  0.0000E+00  0.4040E-01  0.4040E-01
    -26.684  0.0000E+00  0.0000E+00  0.4040E-01  0.4040E-01
    -26.504  0.0000E+00  0.0000E+00  0.4040E-01  0.4040E-01
    -26.323  0.0000E+00  0.0000E+00  0.4040E-01  0.4040E-01
    -26.143  0.0000E+00  0.0000E+00  0.4040E-01  0.4040E-01
    -25.962  0.0000E+00  0.0000E+00  0.4040E-01  0.4040E-01
    -25.782  0.0000E+00  0.0000E+00  0.4040E-01  0.4040E-01
    -25.602  0.0000E+00  0.0000E+00  0.4040E-01  0.4040E-01
    -25.421  0.0000E+00  0.0000E+00  0.4040E-01  0.4040E-01
    -25.241  0.0000E+00  0.0000E+00  0.4040E-01  0.4040E-01
    -25.060  0.0000E+00  0.0000E+00  0.4040E-01  0.4040E-01
    -24.880  0.0000E+00  0.0000E+00  0.4040E-01  0.4040E-01
    -24.699  0.0000E+00  0.0000E+00  0.4040E-01  0.4040E-01
    -24.519  0.0000E+00  0.0000E+00  0.4040E-01  0.4040E-01
    -24.339  0.0000E+00  0.0000E+00  0.4040E-01  0.4040E-01
    -24.158  0.0000E+00  0.0000E+00  0.4040E-01  0.4040E-01
    -23.978  0.0000E+00  0.0000E+00  0.4040E-01  0.4040E-01
    -23.797  0.0000E+00  0.0000E+00  0.4040E-01  0.4040E-01
    -23.617  0.0000E+00  0.0000E+00  0.4040E-01  0.4040E-01
    -23.436  0.0000E+00  0.0000E+00  0.4040E-01  0.4040E-01
    -23.256  0.0000E+00  0.0000E+00  0.4040E-01  0.4040E-01
    -23.075  0.0000E+00  0.0000E+00  0.4040E-01  0.4040E-01
    -22.895  0.0000E+00  0.0000E+00  0.4040E-01  0.4040E-01
    -22.715  0.0000E+00  0.0000E+00  0.4040E-01  0.4040E-01
    -22.534  0.0000E+00  0.0000E+00  0.4040E-01  0.4040E-01
    -22.354  0.0000E+00  0.0000E+00  0.4040E-01  0.4040E-01
    -22.173  0.0000E+00  0.0000E+00  0.4040E-01  0.4040E-01
    -21.993  0.0000E+00  0.0000E+00  0.4040E-01  0.4040E-01
    -21.812  0.0000E+00  0.0000E+00  0.4040E-01  0.4040E-01
    -21.632  0.0000E+00  0.0000E+00  0.4040E-01  0.4040E-01
    -21.452  0.0000E+00  0.0000E+00  0.4040E-01  0.4040E-01
    -21.271  0.0000E+00  0.0000E+00  0.4040E-01  0.4040E-01
    -21.091  0.0000E+00  0.0000E+00  0.4040E-01  0.4040E-01
    -20.910  0.0000E+00  0.0000E+00  0.4040E-01  0.4040E-01
    -20.730  0.0000E+00  0.0000E+00  0.4040E-01  0.4040E-01
    -20.549  0.0000E+00  0.0000E+00  0.4040E-01  0.4040E-01
    -20.369  0.0000E+00  0.0000E+00  0.4040E-01  0.4040E-01
    -20.189  0.0000E+00  0.0000E+00  0.4040E-01  0.4040E-01
    -20.008  0.0000E+00  0.0000E+00  0.4040E-01  0.4040E-01
    -19.828  0.0000E+00  0.0000E+00  0.4040E-01  0.4040E-01
    -19.647  0.0000E+00  0.0000E+00  0.4040E-01  0.4040E-01
    -19.467  0.0000E+00  0.0000E+00  0.4040E-01  0.4040E-01
    -19.286  0.0000E+00  0.0000E+00  0.4040E-01  0.4040E-01
    -19.106  0.0000E+00  0.0000E+00  0.4040E-01  0.4040E-01
    -18.926  0.0000E+00  0.0000E+00  0.4040E-01  0.4040E-01
    -18.745  0.0000E+00  0.0000E+00  0.4040E-01  0.4040E-01
    -18.565  0.0000E+00  0.0000E+00  0.4040E-01  0.4040E-01
    -18.384  0.0000E+00  0.0000E+00  0.4040E-01  0.4040E-01
    -18.204  0.0000E+00  0.0000E+00  0.4040E-01  0.4040E-01
    -18.023  0.0000E+00  0.0000E+00  0.4040E-01  0.4040E-01
    -17.843  0.0000E+00  0.0000E+00  0.4040E-01  0.4040E-01
    -17.662  0.0000E+00  0.0000E+00  0.4040E-01  0.4040E-01
    -17.482  0.0000E+00  0.0000E+00  0.4040E-01  0.4040E-01
    -17.302  0.0000E+00  0.0000E+00  0.4040E-01  0.4040E-01
    -17.121  0.7697E-02  0.7697E-02  0.4196E-01  0.4196E-01
    -16.941  0.7697E-02  0.7697E-02  0.4334E-01  0.4334E-01
    -16.760  0.5197E-02  0.5197E-02  0.4456E-01  0.4456E-01
    -16.580  0.5197E-02  0.5197E-02  0.4549E-01  0.4549E-01
    -16.399  0.5197E-02  0.5197E-02  0.4643E-01  0.4643E-01
    -16.219  0.8240E-01  0.8240E-01  0.5853E-01  0.5853E-01
    -16.039  0.9206E-02  0.9206E-02  0.6861E-01  0.6861E-01
    -15.858  0.0000E+00  0.0000E+00  0.7071E-01  0.7071E-01
    -15.678  0.0000E+00  0.0000E+00  0.7071E-01  0.7071E-01
    -15.497  0.0000E+00  0.0000E+00  0.7071E-01  0.7071E-01
    -15.317  0.0000E+00  0.0000E+00  0.7071E-01  0.7071E-01
    -15.136  0.0000E+00  0.0000E+00  0.7071E-01  0.7071E-01
    -14.956  0.0000E+00  0.0000E+00  0.7071E-01  0.7071E-01
    -14.776  0.0000E+00  0.0000E+00  0.7071E-01  0.7071E-01
    -14.595  0.0000E+00  0.0000E+00  0.7071E-01  0.7071E-01
    -14.415  0.0000E+00  0.0000E+00  0.7071E-01  0.7071E-01
    -14.234  0.0000E+00  0.0000E+00  0.7071E-01  0.7071E-01
    -14.054  0.0000E+00  0.0000E+00  0.7071E-01  0.7071E-01
    -13.873  0.0000E+00  0.0000E+00  0.7071E-01  0.7071E-01
    -13.693  0.0000E+00  0.0000E+00  0.7071E-01  0.7071E-01
    -13.512  0.0000E+00  0.0000E+00  0.7071E-01  0.7071E-01
    -13.332  0.0000E+00  0.0000E+00  0.7071E-01  0.7071E-01
    -13.152  0.0000E+00  0.0000E+00  0.7071E-01  0.7071E-01
    -12.971  0.0000E+00  0.0000E+00  0.7071E-01  0.7071E-01
    -12.791  0.0000E+00  0.0000E+00  0.7071E-01  0.7071E-01
    -12.610  0.0000E+00  0.0000E+00  0.7071E-01  0.7071E-01
    -12.430  0.0000E+00  0.0000E+00  0.7071E-01  0.7071E-01
    -12.249  0.0000E+00  0.0000E+00  0.7071E-01  0.7071E-01
    -12.069  0.0000E+00  0.0000E+00  0.7071E-01  0.7071E-01
    -11.889  0.0000E+00  0.0000E+00  0.7071E-01  0.7071E-01
    -11.708  0.0000E+00  0.0000E+00  0.7071E-01  0.7071E-01
    -11.528  0.0000E+00  0.0000E+00  0.7071E-01  0.7071E-01
    -11.347  0.0000E+00  0.0000E+00  0.7071E-01  0.7071E-01
    -11.167  0.0000E+00  0.0000E+00  0.7071E-01  0.7071E-01
    -10.986  0.0000E+00  0.0000E+00  0.7071E-01  0.7071E-01
    -10.806  0.0000E+00  0.0000E+00  0.7071E-01  0.7071E-01
    -10.626  0.0000E+00  0.0000E+00  0.7071E-01  0.7071E-01
    -10.445  0.0000E+00  0.0000E+00  0.7071E-01  0.7071E-01
    -10.265  0.0000E+00  0.0000E+00  0.7071E-01  0.7071E-01
    -10.084  0.0000E+00  0.0000E+00  0.7071E-01  0.7071E-01
     -9.904  0.0000E+00  0.0000E+00  0.7071E-01  0.7071E-01
     -9.723  0.0000E+00  0.0000E+00  0.7071E-01  0.7071E-01
     -9.543  0.0000E+00  0.0000E+00  0.7071E-01  0.7071E-01
     -9.363  0.0000E+00  0.0000E+00  0.7071E-01  0.7071E-01
     -9.182  0.0000E+00  0.0000E+00  0.7071E-01  0.7071E-01
     -9.002  0.0000E+00  0.0000E+00  0.7071E-01  0.7071E-01
     -8.821  0.0000E+00  0.0000E+00  0.7071E-01  0.7071E-01
     -8.641  0.0000E+00  0.0000E+00  0.7071E-01  0.7071E-01
     -8.460  0.0000E+00  0.0000E+00  0.7071E-01  0.7071E-01
     -8.280  0.0000E+00  0.0000E+00  0.7071E-01  0.7071E-01
     -8.099  0.0000E+00  0.0000E+00  0.7071E-01  0.7071E-01
     -7.919  0.0000E+00  0.0000E+00  0.7071E-01  0.7071E-01
     -7.739  0.0000E+00  0.0000E+00  0.7071E-01  0.7071E-01
     -7.558  0.0000E+00  0.0000E+00  0.7071E-01  0.7071E-01
     -7.378  0.0000E+00  0.0000E+00  0.7071E-01  0.7071E-01
     -7.197  0.0000E+00  0.0000E+00  0.7071E-01  0.7071E-01
     -7.017  0.0000E+00  0.0000E+00  0.7071E-01  0.7071E-01
     -6.836  0.0000E+00  0.0000E+00  0.7071E-01  0.7071E-01
     -6.656  0.2370E-02  0.2370E-02  0.7092E-01  0.7092E-01
     -6.476  0.5221E-02  0.5221E-02  0.7158E-01  0.7158E-01
     -6.295  0.1113E-01  0.1113E-01  0.7331E-01  0.7331E-01
     -6.115  0.7223E-02  0.7223E-02  0.7485E-01  0.7485E-01
     -5.934  0.6007E-02  0.6007E-02  0.7597E-01  0.7597E-01
     -5.754  0.6400E-02  0.6400E-02  0.7708E-01  0.7708E-01
     -5.573  0.6929E-02  0.6929E-02  0.7830E-01  0.7830E-01
     -5.393  0.1492E-01  0.1492E-01  0.8014E-01  0.8014E-01
     -5.213  0.0000E+00  0.0000E+00  0.8081E-01  0.8081E-01
     -5.032  0.0000E+00  0.0000E+00  0.8081E-01  0.8081E-01
     -4.852  0.9575E-02  0.9575E-02  0.8170E-01  0.8170E-01
     -4.671  0.5856E-02  0.5856E-02  0.8276E-01  0.8276E-01
     -4.491  0.5369E-02  0.5369E-02  0.8387E-01  0.8387E-01
     -4.310  0.4316E-02  0.4316E-02  0.8472E-01  0.8472E-01
     -4.130  0.3882E-02  0.3882E-02  0.8545E-01  0.8545E-01
     -3.949  0.3855E-02  0.3855E-02  0.8615E-01  0.8615E-01
     -3.769  0.4627E-02  0.4627E-02  0.8687E-01  0.8687E-01
     -3.589  0.7682E-02  0.7682E-02  0.8801E-01  0.8801E-01
     -3.408  0.1222E-01  0.1222E-01  0.8988E-01  0.8988E-01
     -3.228  0.1953E-01  0.1953E-01  0.9143E-01  0.9143E-01
     -3.047  0.1636E-01  0.1636E-01  0.9466E-01  0.9466E-01
     -2.867  0.1983E-01  0.1983E-01  0.9923E-01  0.9923E-01
     -2.686  0.7301E-03  0.7301E-03  0.1010E+00  0.1010E+00
     -2.506  0.3685E-01  0.3685E-01  0.1030E+00  0.1030E+00
     -2.326  0.1968E-01  0.1968E-01  0.1088E+00  0.1088E+00
     -2.145  0.4749E-01  0.4749E-01  0.1134E+00  0.1134E+00
     -1.965  0.1887E-01  0.1887E-01  0.1200E+00  0.1200E+00
     -1.784  0.0000E+00  0.0000E+00  0.1212E+00  0.1212E+00
     -1.604  0.5354E-02  0.5354E-02  0.1213E+00  0.1213E+00
     -1.423  0.1245E-01  0.1245E-01  0.1230E+00  0.1230E+00
     -1.243  0.2002E-01  0.2002E-01  0.1262E+00  0.1262E+00
     -1.063  0.1143E-01  0.1143E-01  0.1294E+00  0.1294E+00
     -0.882  0.5534E-02  0.5534E-02  0.1309E+00  0.1309E+00
     -0.702  0.0000E+00  0.0000E+00  0.1313E+00  0.1313E+00
     -0.521  0.0000E+00  0.0000E+00  0.1313E+00  0.1313E+00
     -0.341  0.0000E+00  0.0000E+00  0.1313E+00  0.1313E+00
     -0.160  0.0000E+00  0.0000E+00  0.1313E+00  0.1313E+00
      0.020  0.0000E+00  0.0000E+00  0.1313E+00  0.1313E+00
      0.200  0.0000E+00  0.0000E+00  0.1313E+00  0.1313E+00
      0.381  0.0000E+00  0.0000E+00  0.1313E+00  0.1313E+00
      0.561  0.5382E-02  0.5382E-02  0.1328E+00  0.1328E+00
      0.742  0.1028E-01  0.1028E-01  0.1341E+00  0.1341E+00
      0.922  0.1683E-01  0.1683E-01  0.1367E+00  0.1367E+00
      1.103  0.1539E-01  0.1539E-01  0.1406E+00  0.1406E+00
      1.283  0.0000E+00  0.0000E+00  0.1414E+00  0.1414E+00
      1.464  0.8659E-02  0.8659E-02  0.1423E+00  0.1423E+00
      1.644  0.2135E-01  0.2135E-01  0.1452E+00  0.1452E+00
      1.824  0.7073E-02  0.7073E-02  0.1471E+00  0.1471E+00
      2.005  0.3998E-02  0.3998E-02  0.1481E+00  0.1481E+00
      2.185  0.3974E-02  0.3974E-02  0.1488E+00  0.1488E+00
      2.366  0.9837E-02  0.9837E-02  0.1503E+00  0.1503E+00
      2.546  0.2153E-01  0.2153E-01  0.1531E+00  0.1531E+00
      2.727  0.2442E-01  0.2442E-01  0.1566E+00  0.1566E+00
      2.907  0.1126E-01  0.1126E-01  0.1595E+00  0.1595E+00
      3.087  0.1248E-01  0.1248E-01  0.1614E+00  0.1614E+00
      3.268  0.6046E-02  0.6046E-02  0.1633E+00  0.1633E+00
      3.448  0.3077E-02  0.3077E-02  0.1640E+00  0.1640E+00
      3.629  0.2854E-02  0.2854E-02  0.1645E+00  0.1645E+00
      3.809  0.5405E-02  0.5405E-02  0.1652E+00  0.1652E+00
      3.990  0.1226E-01  0.1226E-01  0.1666E+00  0.1666E+00
      4.170  0.2117E-01  0.2117E-01  0.1702E+00  0.1702E+00
      4.350  0.1492E-01  0.1492E-01  0.1736E+00  0.1736E+00
      4.531  0.6979E-02  0.6979E-02  0.1762E+00  0.1762E+00
      4.711  0.1785E-01  0.1785E-01  0.1779E+00  0.1779E+00
      4.892  0.2682E-01  0.2682E-01  0.1827E+00  0.1827E+00
      5.072  0.1562E-01  0.1562E-01  0.1864E+00  0.1864E+00
      5.253  0.8717E-02  0.8717E-02  0.1889E+00  0.1889E+00
      5.433  0.1323E-01  0.1323E-01  0.1909E+00  0.1909E+00
      5.614  0.3315E-02  0.3315E-02  0.1921E+00  0.1921E+00
      5.794  0.1254E-01  0.1254E-01  0.1930E+00  0.1930E+00
      5.974  0.2431E-01  0.2431E-01  0.1974E+00  0.1974E+00
      6.155  0.1366E-01  0.1366E-01  0.2010E+00  0.2010E+00
      6.335  0.5429E-02  0.5429E-02  0.2024E+00  0.2024E+00
      6.516  0.2259E-01  0.2259E-01  0.2051E+00  0.2051E+00
      6.696  0.2310E-01  0.2310E-01  0.2093E+00  0.2093E+00
      6.877  0.2031E-01  0.2031E-01  0.2130E+00  0.2130E+00
      7.057  0.1468E-01  0.1468E-01  0.2170E+00  0.2170E+00
      7.237  0.1603E-01  0.1603E-01  0.2196E+00  0.2196E+00
      7.418  0.2799E-01  0.2799E-01  0.2239E+00  0.2239E+00
      7.598  0.1768E-01  0.1768E-01  0.2284E+00  0.2284E+00
      7.779  0.2235E-01  0.2235E-01  0.2315E+00  0.2315E+00
      7.959  0.1601E-01  0.1601E-01  0.2349E+00  0.2349E+00
      8.140  0.1663E-01  0.1663E-01  0.2384E+00  0.2384E+00
      8.320  0.1676E-01  0.1676E-01  0.2411E+00  0.2411E+00
      8.500  0.1988E-01  0.1988E-01  0.2443E+00  0.2443E+00
      8.681  0.1256E-01  0.1256E-01  0.2472E+00  0.2472E+00
      8.861  0.1031E-01  0.1031E-01  0.2493E+00  0.2493E+00
      9.042  0.1095E-01  0.1095E-01  0.2512E+00  0.2512E+00
      9.222  0.1755E-01  0.1755E-01  0.2538E+00  0.2538E+00
      9.403  0.1539E-01  0.1539E-01  0.2569E+00  0.2569E+00
      9.583  0.6920E-02  0.6920E-02  0.2588E+00  0.2588E+00
      9.763  0.6273E-02  0.6273E-02  0.2600E+00  0.2600E+00
      9.944  0.7723E-02  0.7723E-02  0.2612E+00  0.2612E+00
     10.124  0.1726E-01  0.1726E-01  0.2636E+00  0.2636E+00
     10.305  0.1303E-01  0.1303E-01  0.2664E+00  0.2664E+00
     10.485  0.1567E-01  0.1567E-01  0.2688E+00  0.2688E+00
     10.666  0.1551E-01  0.1551E-01  0.2715E+00  0.2715E+00
     10.846  0.1645E-01  0.1645E-01  0.2745E+00  0.2745E+00
     11.027  0.1325E-01  0.1325E-01  0.2774E+00  0.2774E+00
     11.207  0.1918E-01  0.1918E-01  0.2803E+00  0.2803E+00
     11.387  0.1775E-01  0.1775E-01  0.2841E+00  0.2841E+00
     11.568  0.1587E-01  0.1587E-01  0.2867E+00  0.2867E+00
     11.748  0.1815E-01  0.1815E-01  0.2901E+00  0.2901E+00
     11.929  0.1428E-01  0.1428E-01  0.2931E+00  0.2931E+00
     12.109  0.1482E-01  0.1482E-01  0.2956E+00  0.2956E+00
     12.290  0.8900E-02  0.8900E-02  0.2975E+00  0.2975E+00
     12.470  0.1956E-01  0.1956E-01  0.3002E+00  0.3002E+00
     12.650  0.1633E-01  0.1633E-01  0.3042E+00  0.3042E+00
     12.831  0.1209E-01  0.1209E-01  0.3066E+00  0.3066E+00
     13.011  0.1113E-01  0.1113E-01  0.3088E+00  0.3088E+00
     13.192  0.1061E-01  0.1061E-01  0.3108E+00  0.3108E+00
     13.372  0.1116E-01  0.1116E-01  0.3127E+00  0.3127E+00
     13.553  0.1260E-01  0.1260E-01  0.3149E+00  0.3149E+00
     13.733  0.1502E-01  0.1502E-01  0.3174E+00  0.3174E+00
     13.913  0.1042E-01  0.1042E-01  0.3197E+00  0.3197E+00
     14.094  0.8805E-02  0.8802E-02  0.3213E+00  0.3213E+00
     14.274  0.4234E-02  0.4236E-02  0.3226E+00  0.3226E+00
     14.455  0.1370E-02  0.1370E-02  0.3230E+00  0.3230E+00
     14.635  0.5311E-03  0.5311E-03  0.3232E+00  0.3232E+00
     14.816  0.3776E-04  0.3777E-04  0.3232E+00  0.3232E+00
     14.996  0.0000E+00  0.0000E+00  0.3232E+00  0.3232E+00
     15.176  0.0000E+00  0.0000E+00  0.3232E+00  0.3232E+00
     15.357  0.0000E+00  0.0000E+00  0.3232E+00  0.3232E+00
     15.537  0.0000E+00  0.0000E+00  0.3232E+00  0.3232E+00
     15.718  0.0000E+00  0.0000E+00  0.3232E+00  0.3232E+00
     15.898  0.0000E+00  0.0000E+00  0.3232E+00  0.3232E+00
     16.079  0.0000E+00  0.0000E+00  0.3232E+00  0.3232E+00
     16.259  0.0000E+00  0.0000E+00  0.3232E+00  0.3232E+00
     16.440  0.0000E+00  0.0000E+00  0.3232E+00  0.3232E+00
     16.620  0.0000E+00  0.0000E+00  0.3232E+00  0.3232E+00
     16.800  0.0000E+00  0.0000E+00  0.3232E+00  0.3232E+00
     16.981  0.0000E+00  0.0000E+00  0.3232E+00  0.3232E+00
     17.161  0.0000E+00  0.0000E+00  0.3232E+00  0.3232E+00
     17.342  0.0000E+00  0.0000E+00  0.3232E+00  0.3232E+00
     17.34170559    -36.78846885  301      1.26053294      1.00000000
    -36.788  0.0000E+00  0.0000E+00  0.0000E+00  0.0000E+00  0.0000E+00  0.0000E+00  0.0000E+00  0.0000E+00  0.0000E+00  0.0000E+00  0.0000E+00  0.0000E+00  0.0000E+00  0.0000E+00  0.0000E+00  0.0000E+00  0.0000E+00  0.0000E+00
    -36.608  0.0000E+00  0.0000E+00  0.0000E+00  0.0000E+00  0.0000E+00  0.0000E+00  0.0000E+00  0.0000E+00  0.0000E+00  0.0000E+00  0.0000E+00  0.0000E+00  0.0000E+00  0.0000E+00  0.0000E+00  0.0000E+00  0.0000E+00  0.0000E+00
    -36.428  0.0000E+00  0.0000E+00  0.0000E+00  0.0000E+00  0.0000E+00  0.0000E+00  0.0000E+00  0.0000E+00  0.0000E+00  0.0000E+00  0.0000E+00  0.0000E+00  0.0000E+00  0.0000E+00  0.0000E+00  0.0000E+00  0.0000E+00  0.0000E+00
    -36.247  0.0000E+00  0.0000E+00  0.0000E+00  0.0000E+00  0.0000E+00  0.0000E+00  0.0000E+00  0.0000E+00  0.0000E+00  0.0000E+00  0.0000E+00  0.0000E+00  0.0000E+00  0.0000E+00  0.0000E+00  0.0000E+00  0.0000E+00  0.0000E+00
    -36.067  0.0000E+00  0.0000E+00  0.0000E+00  0.0000E+00  0.0000E+00  0.0000E+00  0.0000E+00  0.0000E+00  0.0000E+00  0.0000E+00  0.0000E+00  0.0000E+00  0.0000E+00  0.0000E+00  0.0000E+00  0.0000E+00  0.0000E+00  0.0000E+00
    -35.886  0.0000E+00  0.0000E+00  0.0000E+00  0.0000E+00  0.0000E+00  0.0000E+00  0.0000E+00  0.0000E+00  0.0000E+00  0.0000E+00  0.0000E+00  0.0000E+00  0.0000E+00  0.0000E+00  0.0000E+00  0.0000E+00  0.0000E+00  0.0000E+00
    -35.706  0.0000E+00  0.0000E+00  0.0000E+00  0.0000E+00  0.0000E+00  0.0000E+00  0.0000E+00  0.0000E+00  0.0000E+00  0.0000E+00  0.0000E+00  0.0000E+00  0.0000E+00  0.0000E+00  0.0000E+00  0.0000E+00  0.0000E+00  0.0000E+00
    -35.525  0.0000E+00  0.0000E+00  0.0000E+00  0.0000E+00  0.0000E+00  0.0000E+00  0.0000E+00  0.0000E+00  0.0000E+00  0.0000E+00  0.0000E+00  0.0000E+00  0.0000E+00  0.0000E+00  0.0000E+00  0.0000E+00  0.0000E+00  0.0000E+00
    -35.345  0.0000E+00  0.0000E+00  0.0000E+00  0.0000E+00  0.0000E+00  0.0000E+00  0.0000E+00  0.0000E+00  0.0000E+00  0.0000E+00  0.0000E+00  0.0000E+00  0.0000E+00  0.0000E+00  0.0000E+00  0.0000E+00  0.0000E+00  0.0000E+00
    -35.165  0.0000E+00  0.0000E+00  0.0000E+00  0.0000E+00  0.0000E+00  0.0000E+00  0.0000E+00  0.0000E+00  0.0000E+00  0.0000E+00  0.0000E+00  0.0000E+00  0.0000E+00  0.0000E+00  0.0000E+00  0.0000E+00  0.0000E+00  0.0000E+00
    -34.984  0.0000E+00  0.0000E+00  0.0000E+00  0.0000E+00  0.0000E+00  0.0000E+00  0.0000E+00  0.0000E+00  0.0000E+00  0.0000E+00  0.0000E+00  0.0000E+00  0.0000E+00  0.0000E+00  0.0000E+00  0.0000E+00  0.0000E+00  0.0000E+00
    -34.804  0.0000E+00  0.0000E+00  0.0000E+00  0.0000E+00  0.0000E+00  0.0000E+00  0.0000E+00  0.0000E+00  0.0000E+00  0.0000E+00  0.0000E+00  0.0000E+00  0.0000E+00  0.0000E+00  0.0000E+00  0.0000E+00  0.0000E+00  0.0000E+00
    -34.623  0.0000E+00  0.0000E+00  0.0000E+00  0.0000E+00  0.0000E+00  0.0000E+00  0.0000E+00  0.0000E+00  0.0000E+00  0.0000E+00  0.0000E+00  0.0000E+00  0.0000E+00  0.0000E+00  0.0000E+00  0.0000E+00  0.0000E+00  0.0000E+00
    -34.443  0.0000E+00  0.0000E+00  0.0000E+00  0.0000E+00  0.0000E+00  0.0000E+00  0.0000E+00  0.0000E+00  0.0000E+00  0.0000E+00  0.0000E+00  0.0000E+00  0.0000E+00  0.0000E+00  0.0000E+00  0.0000E+00  0.0000E+00  0.0000E+00
    -34.262  0.4222E+01  0.4222E+01  0.3611E-03  0.3611E-03  0.8790E-06  0.8791E-06  0.2860E-03  0.2860E-03  0.7728E-08  0.7728E-08  0.3583E-05  0.3583E-05  0.6179E-04  0.6179E-04  0.2661E-07  0.2661E-07  0.7559E-04  0.7559E-04
    -34.082  0.0000E+00  0.0000E+00  0.0000E+00  0.0000E+00  0.0000E+00  0.0000E+00  0.0000E+00  0.0000E+00  0.0000E+00  0.0000E+00  0.0000E+00  0.0000E+00  0.0000E+00  0.0000E+00  0.0000E+00  0.0000E+00  0.0000E+00  0.0000E+00
    -33.902  0.0000E+00  0.0000E+00  0.0000E+00  0.0000E+00  0.0000E+00  0.0000E+00  0.0000E+00  0.0000E+00  0.0000E+00  0.0000E+00  0.0000E+00  0.0000E+00  0.0000E+00  0.0000E+00  0.0000E+00  0.0000E+00  0.0000E+00  0.0000E+00
    -33.721  0.0000E+00  0.0000E+00  0.0000E+00  0.0000E+00  0.0000E+00  0.0000E+00  0.0000E+00  0.0000E+00  0.0000E+00  0.0000E+00  0.0000E+00  0.0000E+00  0.0000E+00  0.0000E+00  0.0000E+00  0.0000E+00  0.0000E+00  0.0000E+00
    -33.541  0.0000E+00  0.0000E+00  0.0000E+00  0.0000E+00  0.0000E+00  0.0000E+00  0.0000E+00  0.0000E+00  0.0000E+00  0.0000E+00  0.0000E+00  0.0000E+00  0.0000E+00  0.0000E+00  0.0000E+00  0.0000E+00  0.0000E+00  0.0000E+00
    -33.360  0.0000E+00  0.0000E+00  0.0000E+00  0.0000E+00  0.0000E+00  0.0000E+00  0.0000E+00  0.0000E+00  0.0000E+00  0.0000E+00  0.0000E+00  0.0000E+00  0.0000E+00  0.0000E+00  0.0000E+00  0.0000E+00  0.0000E+00  0.0000E+00
    -33.180  0.0000E+00  0.0000E+00  0.0000E+00  0.0000E+00  0.0000E+00  0.0000E+00  0.0000E+00  0.0000E+00  0.0000E+00  0.0000E+00  0.0000E+00  0.0000E+00  0.0000E+00  0.0000E+00  0.0000E+00  0.0000E+00  0.0000E+00  0.0000E+00
    -32.999  0.0000E+00  0.0000E+00  0.0000E+00  0.0000E+00  0.0000E+00  0.0000E+00  0.0000E+00  0.0000E+00  0.0000E+00  0.0000E+00  0.0000E+00  0.0000E+00  0.0000E+00  0.0000E+00  0.0000E+00  0.0000E+00  0.0000E+00  0.0000E+00
    -32.819  0.0000E+00  0.0000E+00  0.0000E+00  0.0000E+00  0.0000E+00  0.0000E+00  0.0000E+00  0.0000E+00  0.0000E+00  0.0000E+00  0.0000E+00  0.0000E+00  0.0000E+00  0.0000E+00  0.0000E+00  0.0000E+00  0.0000E+00  0.0000E+00
    -32.638  0.0000E+00  0.0000E+00  0.0000E+00  0.0000E+00  0.0000E+00  0.0000E+00  0.0000E+00  0.0000E+00  0.0000E+00  0.0000E+00  0.0000E+00  0.0000E+00  0.0000E+00  0.0000E+00  0.0000E+00  0.0000E+00  0.0000E+00  0.0000E+00
    -32.458  0.0000E+00  0.0000E+00  0.0000E+00  0.0000E+00  0.0000E+00  0.0000E+00  0.0000E+00  0.0000E+00  0.0000E+00  0.0000E+00  0.0000E+00  0.0000E+00  0.0000E+00  0.0000E+00  0.0000E+00  0.0000E+00  0.0000E+00  0.0000E+00
    -32.278  0.0000E+00  0.0000E+00  0.0000E+00  0.0000E+00  0.0000E+00  0.0000E+00  0.0000E+00  0.0000E+00  0.0000E+00  0.0000E+00  0.0000E+00  0.0000E+00  0.0000E+00  0.0000E+00  0.0000E+00  0.0000E+00  0.0000E+00  0.0000E+00
    -32.097  0.0000E+00  0.0000E+00  0.0000E+00  0.0000E+00  0.0000E+00  0.0000E+00  0.0000E+00  0.0000E+00  0.0000E+00  0.0000E+00  0.0000E+00  0.0000E+00  0.0000E+00  0.0000E+00  0.0000E+00  0.0000E+00  0.0000E+00  0.0000E+00
    -31.917  0.0000E+00  0.0000E+00  0.0000E+00  0.0000E+00  0.0000E+00  0.0000E+00  0.0000E+00  0.0000E+00  0.0000E+00  0.0000E+00  0.0000E+00  0.0000E+00  0.0000E+00  0.0000E+00  0.0000E+00  0.0000E+00  0.0000E+00  0.0000E+00
    -31.736  0.0000E+00  0.0000E+00  0.0000E+00  0.0000E+00  0.0000E+00  0.0000E+00  0.0000E+00  0.0000E+00  0.0000E+00  0.0000E+00  0.0000E+00  0.0000E+00  0.0000E+00  0.0000E+00  0.0000E+00  0.0000E+00  0.0000E+00  0.0000E+00
    -31.556  0.0000E+00  0.0000E+00  0.0000E+00  0.0000E+00  0.0000E+00  0.0000E+00  0.0000E+00  0.0000E+00  0.0000E+00  0.0000E+00  0.0000E+00  0.0000E+00  0.0000E+00  0.0000E+00  0.0000E+00  0.0000E+00  0.0000E+00  0.0000E+00
    -31.375  0.0000E+00  0.0000E+00  0.0000E+00  0.0000E+00  0.0000E+00  0.0000E+00  0.0000E+00  0.0000E+00  0.0000E+00  0.0000E+00  0.0000E+00  0.0000E+00  0.0000E+00  0.0000E+00  0.0000E+00  0.0000E+00  0.0000E+00  0.0000E+00
    -31.195  0.0000E+00  0.0000E+00  0.0000E+00  0.0000E+00  0.0000E+00  0.0000E+00  0.0000E+00  0.0000E+00  0.0000E+00  0.0000E+00  0.0000E+00  0.0000E+00  0.0000E+00  0.0000E+00  0.0000E+00  0.0000E+00  0.0000E+00  0.0000E+00
    -31.015  0.0000E+00  0.0000E+00  0.0000E+00  0.0000E+00  0.0000E+00  0.0000E+00  0.0000E+00  0.0000E+00  0.0000E+00  0.0000E+00  0.0000E+00  0.0000E+00  0.0000E+00  0.0000E+00  0.0000E+00  0.0000E+00  0.0000E+00  0.0000E+00
    -30.834  0.0000E+00  0.0000E+00  0.0000E+00  0.0000E+00  0.0000E+00  0.0000E+00  0.0000E+00  0.0000E+00  0.0000E+00  0.0000E+00  0.0000E+00  0.0000E+00  0.0000E+00  0.0000E+00  0.0000E+00  0.0000E+00  0.0000E+00  0.0000E+00
    -30.654  0.0000E+00  0.0000E+00  0.0000E+00  0.0000E+00  0.0000E+00  0.0000E+00  0.0000E+00  0.0000E+00  0.0000E+00  0.0000E+00  0.0000E+00  0.0000E+00  0.0000E+00  0.0000E+00  0.0000E+00  0.0000E+00  0.0000E+00  0.0000E+00
    -30.473  0.0000E+00  0.0000E+00  0.0000E+00  0.0000E+00  0.0000E+00  0.0000E+00  0.0000E+00  0.0000E+00  0.0000E+00  0.0000E+00  0.0000E+00  0.0000E+00  0.0000E+00  0.0000E+00  0.0000E+00  0.0000E+00  0.0000E+00  0.0000E+00
    -30.293  0.0000E+00  0.0000E+00  0.0000E+00  0.0000E+00  0.0000E+00  0.0000E+00  0.0000E+00  0.0000E+00  0.0000E+00  0.0000E+00  0.0000E+00  0.0000E+00  0.0000E+00  0.0000E+00  0.0000E+00  0.0000E+00  0.0000E+00  0.0000E+00
    -30.112  0.0000E+00  0.0000E+00  0.0000E+00  0.0000E+00  0.0000E+00  0.0000E+00  0.0000E+00  0.0000E+00  0.0000E+00  0.0000E+00  0.0000E+00  0.0000E+00  0.0000E+00  0.0000E+00  0.0000E+00  0.0000E+00  0.0000E+00  0.0000E+00
    -29.932  0.1415E-03  0.1415E-03  0.1150E-04  0.1150E-04  0.3631E-04  0.3631E-04  0.1333E-04  0.1333E-04  0.2110E-05  0.2110E-05  0.7279E-05  0.7279E-05  0.2845E-05  0.2845E-05  0.7807E-05  0.7807E-05  0.5466E-06  0.5466E-06
    -29.752  0.3878E-04  0.3878E-04  0.8435E-05  0.8435E-05  0.7402E-05  0.7402E-05  0.9744E-06  0.9744E-06  0.3351E-06  0.3351E-06  0.2838E-05  0.2838E-05  0.3503E-06  0.3503E-06  0.4512E-06  0.4512E-06  0.5840E-06  0.5840E-06
    -29.571  0.0000E+00  0.0000E+00  0.0000E+00  0.0000E+00  0.0000E+00  0.0000E+00  0.0000E+00  0.0000E+00  0.0000E+00  0.0000E+00  0.0000E+00  0.0000E+00  0.0000E+00  0.0000E+00  0.0000E+00  0.0000E+00  0.0000E+00  0.0000E+00
    -29.391  0.0000E+00  0.0000E+00  0.0000E+00  0.0000E+00  0.0000E+00  0.0000E+00  0.0000E+00  0.0000E+00  0.0000E+00  0.0000E+00  0.0000E+00  0.0000E+00  0.0000E+00  0.0000E+00  0.0000E+00  0.0000E+00  0.0000E+00  0.0000E+00
    -29.210  0.0000E+00  0.0000E+00  0.0000E+00  0.0000E+00  0.0000E+00  0.0000E+00  0.0000E+00  0.0000E+00  0.0000E+00  0.0000E+00  0.0000E+00  0.0000E+00  0.0000E+00  0.0000E+00  0.0000E+00  0.0000E+00  0.0000E+00  0.0000E+00
    -29.030  0.0000E+00  0.0000E+00  0.0000E+00  0.0000E+00  0.0000E+00  0.0000E+00  0.0000E+00  0.0000E+00  0.0000E+00  0.0000E+00  0.0000E+00  0.0000E+00  0.0000E+00  0.0000E+00  0.0000E+00  0.0000E+00  0.0000E+00  0.0000E+00
    -28.849  0.0000E+00  0.0000E+00  0.0000E+00  0.0000E+00  0.0000E+00  0.0000E+00  0.0000E+00  0.0000E+00  0.0000E+00  0.0000E+00  0.0000E+00  0.0000E+00  0.0000E+00  0.0000E+00  0.0000E+00  0.0000E+00  0.0000E+00  0.0000E+00
    -28.669  0.0000E+00  0.0000E+00  0.0000E+00  0.0000E+00  0.0000E+00  0.0000E+00  0.0000E+00  0.0000E+00  0.0000E+00  0.0000E+00  0.0000E+00  0.0000E+00  0.0000E+00  0.0000E+00  0.0000E+00  0.0000E+00  0.0000E+00  0.0000E+00
    -28.489  0.0000E+00  0.0000E+00  0.0000E+00  0.0000E+00  0.0000E+00  0.0000E+00  0.0000E+00  0.0000E+00  0.0000E+00  0.0000E+00  0.0000E+00  0.0000E+00  0.0000E+00  0.0000E+00  0.0000E+00  0.0000E+00  0.0000E+00  0.0000E+00
    -28.308  0.0000E+00  0.0000E+00  0.0000E+00  0.0000E+00  0.0000E+00  0.0000E+00  0.0000E+00  0.0000E+00  0.0000E+00  0.0000E+00  0.0000E+00  0.0000E+00  0.0000E+00  0.0000E+00  0.0000E+00  0.0000E+00  0.0000E+00  0.0000E+00
    -28.128  0.0000E+00  0.0000E+00  0.0000E+00  0.0000E+00  0.0000E+00  0.0000E+00  0.0000E+00  0.0000E+00  0.0000E+00  0.0000E+00  0.0000E+00  0.0000E+00  0.0000E+00  0.0000E+00  0.0000E+00  0.0000E+00  0.0000E+00  0.0000E+00
    -27.947  0.0000E+00  0.0000E+00  0.0000E+00  0.0000E+00  0.0000E+00  0.0000E+00  0.0000E+00  0.0000E+00  0.0000E+00  0.0000E+00  0.0000E+00  0.0000E+00  0.0000E+00  0.0000E+00  0.0000E+00  0.0000E+00  0.0000E+00  0.0000E+00
    -27.767  0.0000E+00  0.0000E+00  0.0000E+00  0.0000E+00  0.0000E+00  0.0000E+00  0.0000E+00  0.0000E+00  0.0000E+00  0.0000E+00  0.0000E+00  0.0000E+00  0.0000E+00  0.0000E+00  0.0000E+00  0.0000E+00  0.0000E+00  0.0000E+00