       N       E                     dE             d eps       ncg     rms          rms(c)
DAV:   1     0.167337697541E+03    0.16734E+03   -0.12878E+04 11064   0.661E+02
DAV:   2    -0.175610452312E+02   -0.18490E+03   -0.18011E+03 12456   0.265E+02
DAV:   3    -0.338350456703E+02   -0.16274E+02   -0.16155E+02 14536   0.590E+01
DAV:   4    -0.350012764311E+02   -0.11662E+01   -0.11611E+01 16032   0.145E+01
DAV:   5    -0.350262283951E+02   -0.24952E-01   -0.24947E-01 15012   0.180E+00    0.555E+01
DAV:   6    -0.295497659639E+02    0.54765E+01   -0.26410E+01 13952   0.234E+01    0.210E+01
DAV:   7    -0.295503183829E+02   -0.55242E-03   -0.29159E+01 15248   0.195E+01    0.194E+01
DAV:   8    -0.281694865369E+02    0.13808E+01   -0.51964E+00 15032   0.952E+00    0.528E+00
DAV:   9    -0.281134395144E+02    0.56047E-01   -0.59786E-01 11876   0.260E+00    0.269E+00
DAV:  10    -0.281258961342E+02   -0.12457E-01   -0.75778E-02 14144   0.123E+00    0.735E-01
DAV:  11    -0.281310411895E+02   -0.51451E-02   -0.19843E-02 13168   0.512E-01    0.314E-01
DAV:  12    -0.281344297265E+02   -0.33885E-02   -0.54558E-03 11592   0.286E-01    0.112E-01
DAV:  13    -0.281360583241E+02   -0.16286E-02   -0.14538E-03  9624   0.161E-01    0.595E-02
DAV:  14    -0.281365717155E+02   -0.51339E-03   -0.46112E-04 10668   0.856E-02    0.318E-02
DAV:  15    -0.281367833052E+02   -0.21159E-03   -0.25717E-04  9316   0.608E-02    0.182E-02
DAV:  16    -0.281368079871E+02   -0.24682E-04   -0.30566E-05  9464   0.321E-02
   1 F= -.28136808E+02 E0= -.28139191E+02  d E =-.281368E+02
       N       E                     dE             d eps       ncg     rms          rms(c)
DAV:   1    -0.294116939568E+02   -0.12749E+01   -0.71540E+02  9520   0.174E+02    0.273E+01
DAV:   2    -0.319431204294E+02   -0.25314E+01   -0.65921E+01 12172   0.490E+01    0.140E+01
DAV:   3    -0.315138167097E+02    0.42930E+00   -0.87633E+00 17104   0.131E+01    0.113E+01
DAV:   4    -0.313201026607E+02    0.19371E+00   -0.12788E+00 15936   0.529E+00    0.589E+00
DAV:   5    -0.313269278826E+02   -0.68252E-02   -0.15034E-01 15240   0.173E+00    0.310E+00
DAV:   6    -0.313261621566E+02    0.76573E-03   -0.35100E-02 17472   0.811E-01    0.998E-01
DAV:   7    -0.313257483423E+02    0.41381E-03   -0.10326E-02 12776   0.452E-01    0.250E-01
DAV:   8    -0.313258738400E+02   -0.12550E-03   -0.15432E-03 12784   0.165E-01    0.132E-01
DAV:   9    -0.313259833269E+02   -0.10949E-03   -0.18453E-04  8400   0.642E-02    0.617E-02
DAV:  10    -0.313260603484E+02   -0.77021E-04   -0.84877E-05  8628   0.556E-02
   2 F= -.31326060E+02 E0= -.31327829E+02  d E =-.318925E+01
       N       E                     dE             d eps       ncg     rms          rms(c)
DAV:   1    -0.313207831300E+02    0.52002E-02   -0.68024E+00  9528   0.163E+01    0.172E+00
DAV:   2    -0.313381339989E+02   -0.17351E-01   -0.59989E-01 12064   0.459E+00    0.992E-01
DAV:   3    -0.313333438505E+02    0.47901E-02   -0.55669E-02 14284   0.105E+00    0.576E-01
DAV:   4    -0.313323906105E+02    0.95324E-03   -0.72016E-03 16192   0.432E-01    0.354E-01
DAV:   5    -0.313324725536E+02   -0.81943E-04   -0.20436E-03 16420   0.213E-01    0.209E-01
DAV:   6    -0.313325806255E+02   -0.10807E-03   -0.55229E-04 12448   0.102E-01    0.980E-02
DAV:   7    -0.313325983123E+02   -0.17687E-04   -0.12877E-04  6216   0.670E-02
   3 F= -.31332598E+02 E0= -.31334461E+02  d E =-.319579E+01
       N       E                     dE             d eps       ncg     rms          rms(c)
DAV:   1    -0.322181680429E+02   -0.88559E+00   -0.46047E+01  9520   0.371E+01    0.517E+00
DAV:   2    -0.321620255886E+02    0.56142E-01   -0.24374E+00 12396   0.993E+00    0.290E+00
DAV:   3    -0.321259150651E+02    0.36111E-01   -0.38867E-01 17544   0.268E+00    0.183E+00
DAV:   4    -0.321136788428E+02    0.12236E-01   -0.56345E-02 16316   0.114E+00    0.904E-01
DAV:   5    -0.321137498959E+02   -0.71053E-04   -0.10425E-02 17688   0.475E-01    0.539E-01
DAV:   6    -0.321144780369E+02   -0.72814E-03   -0.28821E-03 18792   0.217E-01    0.146E-01
DAV:   7    -0.321145609178E+02   -0.82881E-04   -0.60576E-04 11032   0.128E-01
   4 F= -.32114561E+02 E0= -.32115725E+02  d E =-.781963E+00
       N       E                     dE             d eps       ncg     rms          rms(c)
DAV:   1    -0.330004689870E+02   -0.88599E+00   -0.34561E+02  9520   0.102E+02    0.172E+01
DAV:   2    -0.329892671131E+02    0.11202E-01   -0.20462E+01 12344   0.283E+01    0.671E+00
DAV:   3    -0.328154760065E+02    0.17379E+00   -0.21683E+00 17248   0.651E+00    0.418E+00
DAV:   4    -0.327730961840E+02    0.42380E-01   -0.27567E-01 15928   0.292E+00    0.220E+00
DAV:   5    -0.327779840135E+02   -0.48878E-02   -0.69905E-02 18088   0.121E+00    0.109E+00
DAV:   6    -0.327826824043E+02   -0.46984E-02   -0.17108E-02 16840   0.620E-01    0.382E-01
DAV:   7    -0.327833228817E+02   -0.64048E-03   -0.16324E-03 13288   0.210E-01    0.870E-02
DAV:   8    -0.327833332523E+02   -0.10371E-04   -0.12938E-04  8192   0.733E-02
   5 F= -.32783333E+02 E0= -.32783457E+02  d E =-.145073E+01
       N       E                     dE             d eps       ncg     rms          rms(c)
DAV:   1    -0.329044558015E+02   -0.12113E+00   -0.26254E+01  9520   0.289E+01    0.430E+00
DAV:   2    -0.328839702315E+02    0.20486E-01   -0.15402E+00 12412   0.840E+00    0.239E+00
DAV:   3    -0.328600969039E+02    0.23873E-01   -0.21362E-01 15912   0.220E+00    0.179E+00
DAV:   4    -0.328514551377E+02    0.86418E-02   -0.28715E-02 16580   0.917E-01    0.933E-01
DAV:   5    -0.328508644283E+02    0.59071E-03   -0.71160E-03 18976   0.372E-01    0.584E-01
DAV:   6    -0.328511439945E+02   -0.27957E-03   -0.12334E-03 17156   0.143E-01    0.148E-01
DAV:   7    -0.328511762606E+02   -0.32266E-04   -0.31814E-04 10292   0.101E-01
   6 F= -.32851176E+02 E0= -.32851459E+02  d E =-.151858E+01
       N       E                     dE             d eps       ncg     rms          rms(c)
DAV:   1    -0.334253373400E+02   -0.57419E+00   -0.81277E+01 10880   0.659E+01    0.716E+00
DAV:   2    -0.336066720043E+02   -0.18133E+00   -0.81045E+00 10852   0.163E+01    0.379E+00
DAV:   3    -0.335099729462E+02    0.96699E-01   -0.51203E-01 15732   0.342E+00    0.219E+00
DAV:   4    -0.334869208906E+02    0.23052E-01   -0.83197E-02 17096   0.178E+00    0.156E+00
DAV:   5    -0.334849286194E+02    0.19923E-02   -0.29039E-02 17792   0.801E-01    0.792E-01
DAV:   6    -0.334866364391E+02   -0.17078E-02   -0.13150E-02 18272   0.650E-01    0.280E-01
DAV:   7    -0.334865861292E+02    0.50310E-04   -0.15801E-03 13392   0.212E-01    0.662E-02
DAV:   8    -0.334866043328E+02   -0.18204E-04   -0.12818E-04  8160   0.658E-02
   7 F= -.33486604E+02 E0= -.33486348E+02  d E =-.635428E+00
       N       E                     dE             d eps       ncg     rms          rms(c)
DAV:   1    -0.336180926253E+02   -0.13151E+00   -0.54568E+01 10880   0.549E+01    0.628E+00
DAV:   2    -0.337392727954E+02   -0.12118E+00   -0.54445E+00 10836   0.134E+01    0.274E+00
DAV:   3    -0.336678052578E+02    0.71468E-01   -0.33237E-01 15692   0.286E+00    0.159E+00
DAV:   4    -0.336541107053E+02    0.13695E-01   -0.60792E-02 16992   0.154E+00    0.116E+00
DAV:   5    -0.336542014731E+02   -0.90768E-04   -0.14384E-02 17916   0.540E-01    0.599E-01
DAV:   6    -0.336552095988E+02   -0.10081E-02   -0.75308E-03 18296   0.506E-01    0.211E-01
DAV:   7    -0.336552484298E+02   -0.38831E-04   -0.74416E-04 10892   0.150E-01
   8 F= -.33655248E+02 E0= -.33654819E+02  d E =-.804072E+00
       N       E                     dE             d eps       ncg     rms          rms(c)
DAV:   1    -0.343247064494E+02   -0.66950E+00   -0.28610E+01  9520   0.350E+01    0.578E+00
DAV:   2    -0.341746915332E+02    0.15001E+00   -0.18949E+00 12648   0.954E+00    0.206E+00
DAV:   3    -0.341190375024E+02    0.55654E-01   -0.18218E-01 13304   0.237E+00    0.123E+00
DAV:   4    -0.341084210114E+02    0.10616E-01   -0.50959E-02 16792   0.124E+00    0.902E-01
DAV:   5    -0.341089262208E+02   -0.50521E-03   -0.67736E-03 18844   0.334E-01    0.521E-01
DAV:   6    -0.341097107182E+02   -0.78450E-03   -0.49251E-03 18808   0.378E-01    0.121E-01
DAV:   7    -0.341098086713E+02   -0.97953E-04   -0.32172E-04 10788   0.902E-02
   9 F= -.34109809E+02 E0= -.34109254E+02  d E =-.454560E+00
       N       E                     dE             d eps       ncg     rms          rms(c)
DAV:   1    -0.355251610852E+02   -0.14155E+01   -0.16744E+02  9520   0.852E+01    0.150E+01
DAV:   2    -0.347443324461E+02    0.78083E+00   -0.10536E+01 12240   0.231E+01    0.514E+00
DAV:   3    -0.343906688768E+02    0.35366E+00   -0.10056E+00 14664   0.542E+00    0.250E+00
DAV:   4    -0.343476461017E+02    0.43023E-01   -0.25753E-01 17872   0.280E+00    0.191E+00
DAV:   5    -0.343545370977E+02   -0.68910E-02   -0.22290E-02 16796   0.656E-01    0.103E+00
DAV:   6    -0.343591424122E+02   -0.46053E-02   -0.23431E-02 19000   0.812E-01    0.293E-01
DAV:   7    -0.343593654816E+02   -0.22307E-03   -0.16153E-03 12952   0.229E-01    0.103E-01
DAV:   8    -0.343594683389E+02   -0.10286E-03   -0.19540E-04  8536   0.101E-01    0.358E-02
DAV:   9    -0.343594766016E+02   -0.82626E-05   -0.31111E-05  6788   0.509E-02
  10 F= -.34359477E+02 E0= -.34359156E+02  d E =-.704228E+00
       N       E                     dE             d eps       ncg     rms          rms(c)
DAV:   1    -0.346108547908E+02   -0.25139E+00   -0.22131E+01  9520   0.314E+01    0.520E+00
DAV:   2    -0.344925257031E+02    0.11833E+00   -0.15439E+00 12416   0.890E+00    0.188E+00
DAV:   3    -0.344450174450E+02    0.47508E-01   -0.14699E-01 13912   0.235E+00    0.129E+00
DAV:   4    -0.344352271110E+02    0.97903E-02   -0.30620E-02 16124   0.101E+00    0.997E-01
DAV:   5    -0.344350786962E+02    0.14841E-03   -0.54661E-03 18892   0.271E-01    0.523E-01
DAV:   6    -0.344351793816E+02   -0.10069E-03   -0.43133E-03 18944   0.318E-01    0.865E-02
DAV:   7    -0.344352452469E+02   -0.65865E-04   -0.24622E-04 10156   0.776E-02
  11 F= -.34435245E+02 E0= -.34434815E+02  d E =-.779997E+00
       N       E                     dE             d eps       ncg     rms          rms(c)
DAV:   1    -0.345394453117E+02   -0.10427E+00   -0.40121E+01  9520   0.480E+01    0.375E+00
DAV:   2    -0.348151989557E+02   -0.27575E+00   -0.41645E+00 10676   0.121E+01    0.249E+00
DAV:   3    -0.347976107984E+02    0.17588E-01   -0.14393E-01 13728   0.217E+00    0.168E+00
DAV:   4    -0.347901506388E+02    0.74602E-02   -0.35763E-02 15640   0.111E+00    0.752E-01
DAV:   5    -0.347907832661E+02   -0.63263E-03   -0.61469E-03 17760   0.359E-01    0.411E-01
DAV:   6    -0.347911135711E+02   -0.33031E-03   -0.10905E-03 14248   0.177E-01    0.657E-02
DAV:   7    -0.347911161168E+02   -0.25457E-05   -0.92467E-05  6848   0.711E-02
  12 F= -.34791116E+02 E0= -.34790279E+02  d E =-.355871E+00
       N       E                     dE             d eps       ncg     rms          rms(c)
DAV:   1    -0.347819690719E+02    0.91445E-02   -0.64000E+00 10272   0.190E+01    0.150E+00
DAV:   2    -0.348233112842E+02   -0.41342E-01   -0.63304E-01 10632   0.464E+00    0.897E-01
DAV:   3    -0.348204548257E+02    0.28565E-02   -0.21944E-02 13908   0.812E-01    0.563E-01
DAV:   4    -0.348195509627E+02    0.90386E-03   -0.53697E-03 16056   0.435E-01    0.278E-01
DAV:   5    -0.348196559850E+02   -0.10502E-03   -0.72848E-04 14124   0.129E-01    0.155E-01
DAV:   6    -0.348197068689E+02   -0.50884E-04   -0.14997E-04  7700   0.843E-02
  13 F= -.34819707E+02 E0= -.34818799E+02  d E =-.384462E+00
       N       E                     dE             d eps       ncg     rms          rms(c)
DAV:   1    -0.351220205148E+02   -0.30236E+00   -0.18984E+01  9520   0.276E+01    0.331E+00
DAV:   2    -0.350862481318E+02    0.35772E-01   -0.12244E+00 12336   0.789E+00    0.151E+00
DAV:   3    -0.350714813116E+02    0.14767E-01   -0.84223E-02 14752   0.175E+00    0.933E-01
DAV:   4    -0.350658411224E+02    0.56402E-02   -0.16356E-02 14956   0.702E-01    0.684E-01
DAV:   5    -0.350658431063E+02   -0.19839E-05   -0.52460E-03 19032   0.304E-01    0.396E-01
DAV:   6    -0.350661197113E+02   -0.27660E-03   -0.51058E-04 13984   0.110E-01    0.655E-02
DAV:   7    -0.350661321395E+02   -0.12428E-04   -0.90272E-05  6808   0.619E-02
  14 F= -.35066132E+02 E0= -.35065047E+02  d E =-.246425E+00
       N       E                     dE             d eps       ncg     rms          rms(c)
DAV:   1    -0.356446974819E+02   -0.57858E+00   -0.11614E+02  9520   0.677E+01    0.712E+00
DAV:   2    -0.354716020165E+02    0.17310E+00   -0.79827E+00 12952   0.193E+01    0.357E+00
DAV:   3    -0.353814932817E+02    0.90109E-01   -0.60820E-01 15416   0.452E+00    0.214E+00
DAV:   4    -0.353416504012E+02    0.39843E-01   -0.10453E-01 15408   0.168E+00    0.165E+00
DAV:   5    -0.353401067879E+02    0.15436E-02   -0.26724E-02 18648   0.716E-01    0.104E+00
DAV:   6    -0.353414298910E+02   -0.13231E-02   -0.59955E-03 16392   0.358E-01    0.152E-01
DAV:   7    -0.353416271244E+02   -0.19723E-03   -0.10193E-03 14408   0.130E-01    0.546E-02
DAV:   8    -0.353416420758E+02   -0.14951E-04   -0.63564E-05  6896   0.497E-02
  15 F= -.35341642E+02 E0= -.35340561E+02  d E =-.521935E+00
       N       E                     dE             d eps       ncg     rms          rms(c)
DAV:   1    -0.350816984099E+02    0.25993E+00   -0.56433E+01 10880   0.586E+01    0.372E+00
DAV:   2    -0.355757667096E+02   -0.49407E+00   -0.62939E+00  9896   0.135E+01    0.217E+00
DAV:   3    -0.355658094093E+02    0.99573E-02   -0.13691E-01 14872   0.216E+00    0.162E+00
DAV:   4    -0.355580918623E+02    0.77175E-02   -0.38525E-02 13632   0.130E+00    0.533E-01
DAV:   5    -0.355586154243E+02   -0.52356E-03   -0.68106E-03 14048   0.533E-01    0.278E-01
DAV:   6    -0.355585777431E+02    0.37681E-04   -0.84158E-04 13176   0.198E-01
  16 F= -.35558578E+02 E0= -.35557998E+02  d E =-.216936E+00
       N       E                     dE             d eps       ncg     rms          rms(c)
DAV:   1    -0.355113699769E+02    0.47245E-01   -0.72019E+00 10880   0.211E+01    0.137E+00
DAV:   2    -0.355780622351E+02   -0.66692E-01   -0.85899E-01 10080   0.490E+00    0.715E-01
DAV:   3    -0.355769996546E+02    0.10626E-02   -0.19165E-02 15024   0.803E-01    0.486E-01
DAV:   4    -0.355762200416E+02    0.77961E-03   -0.50499E-03 14000   0.481E-01    0.165E-01
DAV:   5    -0.355763117412E+02   -0.91700E-04   -0.62125E-04 12708   0.154E-01
  17 F= -.35576312E+02 E0= -.35575957E+02  d E =-.234670E+00
       N       E                     dE             d eps       ncg     rms          rms(c)
DAV:   1    -0.358089950743E+02   -0.23278E+00   -0.18269E+01  9520   0.296E+01    0.389E+00
DAV:   2    -0.357873824900E+02    0.21613E-01   -0.17155E+00 12272   0.804E+00    0.138E+00
DAV:   3    -0.357581722512E+02    0.29210E-01   -0.11073E-01 12792   0.178E+00    0.819E-01
DAV:   4    -0.357513385430E+02    0.68337E-02   -0.40657E-02 17752   0.112E+00    0.726E-01
DAV:   5    -0.357524878197E+02   -0.11493E-02   -0.24309E-03 12716   0.236E-01    0.432E-01
DAV:   6    -0.357532467524E+02   -0.75893E-03   -0.42875E-03 18600   0.320E-01    0.849E-02
DAV:   7    -0.357532698513E+02   -0.23099E-04   -0.20122E-04  9344   0.782E-02
  18 F= -.35753270E+02 E0= -.35753346E+02  d E =-.176958E+00
       N       E                     dE             d eps       ncg     rms          rms(c)
DAV:   1    -0.363732763638E+02   -0.62003E+00   -0.12866E+02  9536   0.788E+01    0.113E+01
DAV:   2    -0.362124362793E+02    0.16084E+00   -0.11426E+01 11400   0.211E+01    0.378E+00
DAV:   3    -0.360023379600E+02    0.21010E+00   -0.91782E-01 15536   0.485E+00    0.203E+00
DAV:   4    -0.359663597400E+02    0.35978E-01   -0.23238E-01 17712   0.302E+00    0.169E+00
DAV:   5    -0.359731292789E+02   -0.67695E-02   -0.18387E-02 13336   0.647E-01    0.106E+00
DAV:   6    -0.359798219771E+02   -0.66927E-02   -0.24159E-02 18960   0.768E-01    0.243E-01
DAV:   7    -0.359799603422E+02   -0.13837E-03   -0.12274E-03 12564   0.191E-01    0.125E-01
DAV:   8    -0.359800077883E+02   -0.47446E-04   -0.20863E-04  8404   0.113E-01
  19 F= -.35980008E+02 E0= -.35980810E+02  d E =-.403696E+00
       N       E                     dE             d eps       ncg     rms          rms(c)
DAV:   1    -0.361664811851E+02   -0.18652E+00   -0.51418E+01 10880   0.545E+01    0.573E+00
DAV:   2    -0.363086517457E+02   -0.14217E+00   -0.45910E+00 10140   0.121E+01    0.213E+00
DAV:   3    -0.362547494801E+02    0.53902E-01   -0.23823E-01 15800   0.262E+00    0.115E+00
DAV:   4    -0.362467648967E+02    0.79846E-02   -0.41733E-02 16808   0.135E+00    0.938E-01
DAV:   5    -0.362476565294E+02   -0.89163E-03   -0.69510E-03 17288   0.372E-01    0.428E-01
DAV:   6    -0.362481934179E+02   -0.53689E-03   -0.38790E-03 18492   0.372E-01    0.117E-01
DAV:   7    -0.362482104413E+02   -0.17023E-04   -0.26503E-04  9748   0.925E-02
  20 F= -.36248210E+02 E0= -.36248963E+02  d E =-.268203E+00
       N       E                     dE             d eps       ncg     rms          rms(c)
DAV:   1    -0.360891152144E+02    0.15908E+00   -0.17290E+02 10856   0.991E+01    0.108E+01
DAV:   2    -0.365636011962E+02   -0.47449E+00   -0.14372E+01  9996   0.220E+01    0.398E+00
DAV:   3    -0.363701295374E+02    0.19347E+00   -0.83508E-01 16128   0.495E+00    0.209E+00
DAV:   4    -0.363451333243E+02    0.24996E-01   -0.16307E-01 16956   0.267E+00    0.169E+00
DAV:   5    -0.363493290341E+02   -0.41957E-02   -0.23629E-02 16816   0.729E-01    0.779E-01
DAV:   6    -0.363511061842E+02   -0.17772E-02   -0.14280E-02 18032   0.726E-01    0.209E-01
DAV:   7    -0.363511455641E+02   -0.39380E-04   -0.11734E-03 13104   0.195E-01    0.973E-02
DAV:   8    -0.363511909791E+02   -0.45415E-04   -0.18008E-04  9356   0.785E-02
  21 F= -.36351191E+02 E0= -.36351691E+02  d E =-.371183E+00
       N       E                     dE             d eps       ncg     rms          rms(c)
DAV:   1    -0.363639272932E+02   -0.12782E-01   -0.24557E+01 10880   0.379E+01    0.375E+00
DAV:   2    -0.364151216921E+02   -0.51194E-01   -0.20993E+00 10728   0.872E+00    0.157E+00
DAV:   3    -0.363873380161E+02    0.27784E-01   -0.12090E-01 15856   0.184E+00    0.976E-01
DAV:   4    -0.363823842948E+02    0.49537E-02   -0.22811E-02 17056   0.928E-01    0.749E-01
DAV:   5    -0.363823842615E+02    0.33303E-07   -0.32250E-03 17720   0.269E-01    0.381E-01
DAV:   6    -0.363825026272E+02   -0.11837E-03   -0.22612E-03 18840   0.264E-01    0.701E-02
DAV:   7    -0.363825222161E+02   -0.19589E-04   -0.10895E-04  7932   0.583E-02
  22 F= -.36382522E+02 E0= -.36383113E+02  d E =-.402514E+00
       N       E                     dE             d eps       ncg     rms          rms(c)
DAV:   1    -0.364421798202E+02   -0.59677E-01   -0.42987E+01 10880   0.504E+01    0.425E+00
DAV:   2    -0.366817177372E+02   -0.23954E+00   -0.38327E+00  9860   0.107E+01    0.177E+00
DAV:   3    -0.366518383876E+02    0.29879E-01   -0.13145E-01 16184   0.216E+00    0.982E-01
DAV:   4    -0.366447480155E+02    0.70904E-02   -0.23400E-02 13756   0.971E-01    0.552E-01
DAV:   5    -0.366450060707E+02   -0.25806E-03   -0.55118E-03 18792   0.412E-01    0.265E-01
DAV:   6    -0.366451380534E+02   -0.13198E-03   -0.63155E-04 12736   0.125E-01    0.854E-02
DAV:   7    -0.366451609321E+02   -0.22879E-04   -0.14649E-04  7200   0.851E-02
  23 F= -.36645161E+02 E0= -.36645681E+02  d E =-.262639E+00
       N       E                     dE             d eps       ncg     rms          rms(c)
DAV:   1    -0.364049787249E+02    0.24016E+00   -0.70560E+01 10704   0.646E+01    0.547E+00
DAV:   2    -0.368083217485E+02   -0.40334E+00   -0.63022E+00  9936   0.138E+01    0.225E+00
DAV:   3    -0.367586287967E+02    0.49693E-01   -0.22044E-01 15832   0.280E+00    0.120E+00
DAV:   4    -0.367479493541E+02    0.10679E-01   -0.41765E-02 14336   0.133E+00    0.713E-01
DAV:   5    -0.367484733927E+02   -0.52404E-03   -0.78995E-03 18336   0.432E-01    0.273E-01
DAV:   6    -0.367487017916E+02   -0.22840E-03   -0.12129E-03 14912   0.213E-01    0.123E-01
DAV:   7    -0.367487096253E+02   -0.78337E-05   -0.24167E-04  8252   0.897E-02
  24 F= -.36748710E+02 E0= -.36749159E+02  d E =-.366187E+00
       N       E                     dE             d eps       ncg     rms          rms(c)
DAV:   1    -0.367319987513E+02    0.16703E-01   -0.62283E+00 10880   0.193E+01    0.146E+00
DAV:   2    -0.367646916923E+02   -0.32693E-01   -0.56014E-01 10144   0.415E+00    0.712E-01
DAV:   3    -0.367605935321E+02    0.40982E-02   -0.19906E-02 15148   0.825E-01    0.370E-01
DAV:   4    -0.367596298607E+02    0.96367E-03   -0.37693E-03 16368   0.394E-01    0.214E-01
DAV:   5    -0.367596023173E+02    0.27543E-04   -0.66296E-04 13664   0.128E-01
  25 F= -.36759602E+02 E0= -.36760082E+02  d E =-.377080E+00
       N       E                     dE             d eps       ncg     rms          rms(c)
DAV:   1    -0.368949247695E+02   -0.13529E+00   -0.11949E+01 10880   0.274E+01    0.235E+00
DAV:   2    -0.369916007639E+02   -0.96676E-01   -0.12414E+00 10608   0.624E+00    0.111E+00
DAV:   3    -0.369892281010E+02    0.23727E-02   -0.34405E-02 14960   0.112E+00    0.606E-01
DAV:   4    -0.369885292425E+02    0.69886E-03   -0.73595E-03 15896   0.504E-01    0.233E-01
DAV:   5    -0.369884796487E+02    0.49594E-04   -0.17248E-03 14724   0.243E-01    0.103E-01
DAV:   6    -0.369884835433E+02   -0.38946E-05   -0.15772E-04  7400   0.869E-02
  26 F= -.36988484E+02 E0= -.36988951E+02  d E =-.228881E+00
       N       E                     dE             d eps       ncg     rms          rms(c)
DAV:   1    -0.368818773616E+02    0.10660E+00   -0.31619E+01 10880   0.445E+01    0.352E+00
DAV:   2    -0.371334561109E+02   -0.25158E+00   -0.32479E+00 10500   0.101E+01    0.163E+00
DAV:   3    -0.371275646239E+02    0.58915E-02   -0.91028E-02 15104   0.182E+00    0.911E-01
DAV:   4    -0.371256168890E+02    0.19477E-02   -0.17771E-02 15672   0.773E-01    0.405E-01
DAV:   5    -0.371254523364E+02    0.16455E-03   -0.51870E-03 14900   0.426E-01    0.173E-01
DAV:   6    -0.371254655111E+02   -0.13175E-04   -0.48401E-04 11012   0.143E-01
  27 F= -.37125466E+02 E0= -.37125790E+02  d E =-.365863E+00
       N       E                     dE             d eps       ncg     rms          rms(c)
DAV:   1    -0.372765611834E+02   -0.15111E+00   -0.76902E+00  9560   0.205E+01    0.171E+00
DAV:   2    -0.373161269496E+02   -0.39566E-01   -0.74209E-01 10420   0.506E+00    0.777E-01
DAV:   3    -0.373124861288E+02    0.36408E-02   -0.22214E-02 13808   0.866E-01    0.436E-01
DAV:   4    -0.373112029342E+02    0.12832E-02   -0.63554E-03 15668   0.527E-01    0.201E-01
DAV:   5    -0.373111998807E+02    0.30535E-05   -0.11391E-03 14156   0.180E-01    0.102E-01
DAV:   6    -0.373112115980E+02   -0.11717E-04   -0.13165E-04  6812   0.892E-02
  28 F= -.37311212E+02 E0= -.37311405E+02  d E =-.185746E+00
       N       E                     dE             d eps       ncg     rms          rms(c)
DAV:   1    -0.374010950996E+02   -0.89895E-01   -0.68972E+01  9592   0.614E+01    0.510E+00
DAV:   2    -0.377493511014E+02   -0.34826E+00   -0.64701E+00 10096   0.150E+01    0.220E+00
DAV:   3    -0.377180115571E+02    0.31340E-01   -0.19089E-01 13920   0.255E+00    0.134E+00
DAV:   4    -0.377059199499E+02    0.12092E-01   -0.55897E-02 16456   0.158E+00    0.647E-01
DAV:   5    -0.377061215911E+02   -0.20164E-03   -0.79609E-03 13600   0.483E-01    0.304E-01
DAV:   6    -0.377062369768E+02   -0.11539E-03   -0.19483E-03 15932   0.269E-01    0.143E-01
DAV:   7    -0.377062735875E+02   -0.36611E-04   -0.25698E-04  8764   0.969E-02
  29 F= -.37706274E+02 E0= -.37706332E+02  d E =-.580808E+00
       N       E                     dE             d eps       ncg     rms          rms(c)
DAV:   1    -0.365859244438E+02    0.11203E+01   -0.27761E+02 10784   0.122E+02    0.994E+00
DAV:   2    -0.377903539051E+02   -0.12044E+01   -0.22441E+01 10104   0.275E+01    0.413E+00
DAV:   3    -0.376772177041E+02    0.11314E+00   -0.75232E-01 15920   0.524E+00    0.276E+00
DAV:   4    -0.376333230159E+02    0.43895E-01   -0.17425E-01 15348   0.269E+00    0.143E+00
DAV:   5    -0.376326697595E+02    0.65326E-03   -0.36417E-02 13688   0.102E+00    0.548E-01
DAV:   6    -0.376331636967E+02   -0.49394E-03   -0.96041E-03 18556   0.571E-01    0.254E-01
DAV:   7    -0.376332258359E+02   -0.62139E-04   -0.10697E-03 13828   0.194E-01    0.620E-02
DAV:   8    -0.376332402378E+02   -0.14402E-04   -0.11298E-04  8128   0.814E-02
  30 F= -.37633240E+02 E0= -.37633354E+02  d E =-.507775E+00
       N       E                     dE             d eps       ncg     rms          rms(c)
DAV:   1    -0.374295531671E+02    0.20367E+00   -0.95330E+01  9648   0.723E+01    0.525E+00
DAV:   2    -0.378951320080E+02   -0.46558E+00   -0.86109E+00 10892   0.180E+01    0.231E+00
DAV:   3    -0.378470662852E+02    0.48066E-01   -0.26724E-01 14880   0.316E+00    0.138E+00
DAV:   4    -0.378280675205E+02    0.18999E-01   -0.79863E-02 16896   0.166E+00    0.654E-01
DAV:   5    -0.378256904833E+02    0.23770E-02   -0.18197E-02 14832   0.757E-01    0.383E-01
DAV:   6    -0.378258780464E+02   -0.18756E-03   -0.30309E-03 17100   0.340E-01    0.155E-01
DAV:   7    -0.378259621187E+02   -0.84072E-04   -0.30005E-04  9676   0.934E-02
  31 F= -.37825962E+02 E0= -.37826109E+02  d E =-.700497E+00
       N       E                     dE             d eps       ncg     rms          rms(c)
DAV:   1    -0.381676161041E+02   -0.34174E+00   -0.27144E+01  9520   0.368E+01    0.418E+00
DAV:   2    -0.381290175010E+02    0.38599E-01   -0.25588E+00 13476   0.104E+01    0.193E+00
DAV:   3    -0.380881184732E+02    0.40899E-01   -0.21020E-01 14728   0.267E+00    0.940E-01
DAV:   4    -0.380720976008E+02    0.16021E-01   -0.59327E-02 17056   0.148E+00    0.792E-01
DAV:   5    -0.380721372942E+02   -0.39693E-04   -0.64397E-03 17404   0.349E-01    0.503E-01
DAV:   6    -0.380727005223E+02   -0.56323E-03   -0.36517E-03 18936   0.287E-01    0.734E-02
DAV:   7    -0.380727213595E+02   -0.20837E-04   -0.21877E-04  9468   0.907E-02
  32 F= -.38072721E+02 E0= -.38072834E+02  d E =-.246759E+00
       N       E                     dE             d eps       ncg     rms          rms(c)
DAV:   1    -0.392917559126E+02   -0.12191E+01   -0.25064E+02  9520   0.111E+02    0.142E+01
DAV:   2    -0.389053895628E+02    0.38637E+00   -0.21975E+01 12480   0.306E+01    0.629E+00
DAV:   3    -0.385650249594E+02    0.34036E+00   -0.16669E+00 15728   0.753E+00    0.308E+00
DAV:   4    -0.384382230546E+02    0.12680E+00   -0.55161E-01 17560   0.475E+00    0.230E+00
DAV:   5    -0.384387201006E+02   -0.49705E-03   -0.74466E-02 15600   0.128E+00    0.143E+00
DAV:   6    -0.384461205417E+02   -0.74004E-02   -0.39416E-02 18892   0.994E-01    0.318E-01
DAV:   7    -0.384459066169E+02    0.21392E-03   -0.31682E-03 14556   0.362E-01    0.122E-01
DAV:   8    -0.384459624470E+02   -0.55830E-04   -0.49188E-04 11052   0.136E-01
  33 F= -.38445962E+02 E0= -.38445901E+02  d E =-.620000E+00
       N       E                     dE             d eps       ncg     rms          rms(c)
DAV:   1    -0.386759757037E+02   -0.23007E+00   -0.31940E+01  9520   0.414E+01    0.407E+00
DAV:   2    -0.387311902026E+02   -0.55214E-01   -0.28031E+00 12824   0.112E+01    0.204E+00
DAV:   3    -0.386972092086E+02    0.33981E-01   -0.18740E-01 14496   0.259E+00    0.920E-01
DAV:   4    -0.386844072854E+02    0.12802E-01   -0.53523E-02 17048   0.145E+00    0.737E-01
DAV:   5    -0.386845197934E+02   -0.11251E-03   -0.59556E-03 16132   0.368E-01    0.428E-01
DAV:   6    -0.386848982829E+02   -0.37849E-03   -0.32790E-03 18884   0.277E-01    0.875E-02
DAV:   7    -0.386849183064E+02   -0.20023E-04   -0.16938E-04  8920   0.768E-02
  34 F= -.38684918E+02 E0= -.38684832E+02  d E =-.238956E+00
       N       E                     dE             d eps       ncg     rms          rms(c)
DAV:   1    -0.387438570125E+02   -0.58959E-01   -0.31509E+01  9520   0.413E+01    0.420E+00
DAV:   2    -0.387997838804E+02   -0.55927E-01   -0.27515E+00 12560   0.112E+01    0.192E+00
DAV:   3    -0.387655646113E+02    0.34219E-01   -0.18860E-01 14200   0.260E+00    0.913E-01
DAV:   4    -0.387533574286E+02    0.12207E-01   -0.54211E-02 17116   0.145E+00    0.710E-01
DAV:   5    -0.387536000369E+02   -0.24261E-03   -0.54338E-03 16144   0.355E-01    0.418E-01
DAV:   6    -0.387539707902E+02   -0.37075E-03   -0.31968E-03 18908   0.274E-01    0.805E-02
DAV:   7    -0.387539919123E+02   -0.21122E-04   -0.16253E-04  8800   0.753E-02
  35 F= -.38753992E+02 E0= -.38753888E+02  d E =-.308029E+00
       N       E                     dE             d eps       ncg     rms          rms(c)
DAV:   1    -0.390388428126E+02   -0.28487E+00   -0.19940E+01  9520   0.282E+01    0.292E+00
DAV:   2    -0.390351558206E+02    0.36870E-02   -0.10269E+00 12496   0.727E+00    0.144E+00
DAV:   3    -0.390181275912E+02    0.17028E-01   -0.85311E-02 16240   0.166E+00    0.653E-01
DAV:   4    -0.390128426179E+02    0.52850E-02   -0.19267E-02 14912   0.844E-01    0.348E-01
DAV:   5    -0.390126024355E+02    0.24018E-03   -0.30922E-03 16240   0.313E-01    0.175E-01
DAV:   6    -0.390126626160E+02   -0.60180E-04   -0.47797E-04 14296   0.116E-01
  36 F= -.39012663E+02 E0= -.39012566E+02  d E =-.258671E+00
       N       E                     dE             d eps       ncg     rms          rms(c)
DAV:   1    -0.394849411657E+02   -0.47234E+00   -0.18260E+02  9520   0.844E+01    0.914E+00
DAV:   2    -0.395183392300E+02   -0.33398E-01   -0.10041E+01 12632   0.214E+01    0.394E+00
DAV:   3    -0.393711661473E+02    0.14717E+00   -0.83024E-01 16624   0.486E+00    0.182E+00
DAV:   4    -0.393347914564E+02    0.36375E-01   -0.16037E-01 15064   0.245E+00    0.102E+00
DAV:   5    -0.393336771335E+02    0.11143E-02   -0.27927E-02 16388   0.938E-01    0.450E-01
DAV:   6    -0.393343161960E+02   -0.63906E-03   -0.43823E-03 15748   0.371E-01    0.128E-01
DAV:   7    -0.393343943458E+02   -0.78150E-04   -0.26128E-04  9988   0.104E-01
  37 F= -.39334394E+02 E0= -.39334189E+02  d E =-.580402E+00
       N       E                     dE             d eps       ncg     rms          rms(c)
DAV:   1    -0.391978897828E+02    0.13643E+00   -0.49830E+01 10024   0.575E+01    0.363E+00
DAV:   2    -0.395654151559E+02   -0.36753E+00   -0.52160E+00 10304   0.136E+01    0.266E+00
DAV:   3    -0.395500058910E+02    0.15409E-01   -0.14860E-01 15172   0.248E+00    0.164E+00
DAV:   4    -0.395394040899E+02    0.10602E-01   -0.45084E-02 15364   0.152E+00    0.356E-01
DAV:   5    -0.395393166280E+02    0.87462E-04   -0.91694E-03 13600   0.549E-01    0.274E-01
DAV:   6    -0.395392311231E+02    0.85505E-04   -0.12229E-03 14456   0.215E-01    0.138E-01
DAV:   7    -0.395392600095E+02   -0.28886E-04   -0.24325E-04  9416   0.102E-01
  38 F= -.39539260E+02 E0= -.39539399E+02  d E =-.204866E+00
       N       E                     dE             d eps       ncg     rms          rms(c)
DAV:   1    -0.395390394998E+02    0.19162E-03   -0.71634E-02 11216   0.215E+00    0.156E-01
DAV:   2    -0.395395732172E+02   -0.53372E-03   -0.75483E-03 10776   0.492E-01    0.906E-02
DAV:   3    -0.395395449686E+02    0.28249E-04   -0.19328E-04 11724   0.926E-02
  39 F= -.39539545E+02 E0= -.39539696E+02  d E =-.205151E+00
       N       E                     dE             d eps       ncg     rms          rms(c)
DAV:   1    -0.396227424440E+02   -0.83169E-01   -0.26220E+00 10888   0.116E+01    0.938E-01
DAV:   2    -0.396285101087E+02   -0.57677E-02   -0.16524E-01 11296   0.255E+00    0.504E-01
DAV:   3    -0.396264866776E+02    0.20234E-02   -0.88751E-03 15072   0.512E-01    0.228E-01
DAV:   4    -0.396260192235E+02    0.46745E-03   -0.18856E-03 16032   0.283E-01    0.925E-02
DAV:   5    -0.396260025219E+02    0.16702E-04   -0.22853E-04  8316   0.967E-02
  40 F= -.39626003E+02 E0= -.39626167E+02  d E =-.864576E-01
       N       E                     dE             d eps       ncg     rms          rms(c)
DAV:   1    -0.396939343283E+02   -0.67915E-01   -0.15904E+01 10880   0.285E+01    0.237E+00
DAV:   2    -0.397301627407E+02   -0.36228E-01   -0.10074E+00 11256   0.630E+00    0.124E+00
DAV:   3    -0.397183100804E+02    0.11853E-01   -0.52909E-02 15476   0.123E+00    0.577E-01
DAV:   4    -0.397154058623E+02    0.29042E-02   -0.11571E-02 17224   0.690E-01    0.232E-01
DAV:   5    -0.397153186735E+02    0.87189E-04   -0.15275E-03 13856   0.228E-01    0.998E-02
DAV:   6    -0.397153485719E+02   -0.29898E-04   -0.15898E-04  7120   0.823E-02
  41 F= -.39715349E+02 E0= -.39715546E+02  d E =-.175804E+00
       N       E                     dE             d eps       ncg     rms          rms(c)
DAV:   1    -0.397376925136E+02   -0.22374E-01   -0.62628E+00 10880   0.196E+01    0.127E+00
DAV:   2    -0.397761458590E+02   -0.38453E-01   -0.52517E-01 10808   0.428E+00    0.624E-01
DAV:   3    -0.397745358151E+02    0.16100E-02   -0.14797E-02 15412   0.735E-01    0.332E-01
DAV:   4    -0.397738445033E+02    0.69131E-03   -0.35395E-03 15552   0.399E-01    0.119E-01
DAV:   5    -0.397738630294E+02   -0.18526E-04   -0.46640E-04 11836   0.121E-01
  42 F= -.39773863E+02 E0= -.39774084E+02  d E =-.585145E-01
       N       E                     dE             d eps       ncg     rms          rms(c)
DAV:   1    -0.397738475577E+02   -0.30544E-05   -0.50342E-01 10896   0.559E+00    0.352E-01
DAV:   2    -0.397770066575E+02   -0.31591E-02   -0.42762E-02 10920   0.122E+00    0.182E-01
DAV:   3    -0.397768862656E+02    0.12039E-03   -0.11955E-03 15304   0.210E-01    0.980E-02
DAV:   4    -0.397768328424E+02    0.53423E-04   -0.23937E-04  8644   0.114E-01
  43 F= -.39776833E+02 E0= -.39777054E+02  d E =-.614843E-01
       N       E                     dE             d eps       ncg     rms          rms(c)
DAV:   1    -0.398083319413E+02   -0.31446E-01   -0.50378E+00 10880   0.175E+01    0.120E+00
DAV:   2    -0.398275936649E+02   -0.19262E-01   -0.41941E-01 10472   0.381E+00    0.588E-01
DAV:   3    -0.398241185016E+02    0.34752E-02   -0.14744E-02 14904   0.756E-01    0.280E-01
DAV:   4    -0.398231455987E+02    0.97290E-03   -0.37133E-03 14392   0.373E-01    0.927E-02
DAV:   5    -0.398231459686E+02   -0.36994E-06   -0.51785E-04 11120   0.131E-01
  44 F= -.39823146E+02 E0= -.39823295E+02  d E =-.463131E-01
       N       E                     dE             d eps       ncg     rms          rms(c)
DAV:   1    -0.398224069072E+02    0.73869E-03   -0.55548E+00 10880   0.185E+01    0.127E+00
DAV:   2    -0.398440340787E+02   -0.21627E-01   -0.46372E-01 10532   0.401E+00    0.623E-01
DAV:   3    -0.398403178835E+02    0.37162E-02   -0.16126E-02 14936   0.787E-01    0.293E-01
DAV:   4    -0.398392881349E+02    0.10297E-02   -0.39289E-03 14320   0.387E-01    0.936E-02
DAV:   5    -0.398392963258E+02   -0.81909E-05   -0.54247E-04 11420   0.134E-01
  45 F= -.39839296E+02 E0= -.39839339E+02  d E =-.624635E-01
       N       E                     dE             d eps       ncg     rms          rms(c)
DAV:   1    -0.398064108479E+02    0.32877E-01   -0.74844E+00 10880   0.227E+01    0.158E+00
DAV:   2    -0.398640814577E+02   -0.57671E-01   -0.92810E-01 10508   0.542E+00    0.716E-01
DAV:   3    -0.398618836991E+02    0.21978E-02   -0.31359E-02 14528   0.109E+00    0.470E-01
DAV:   4    -0.398608101578E+02    0.10735E-02   -0.60548E-03 16320   0.449E-01    0.260E-01
DAV:   5    -0.398608176221E+02   -0.74643E-05   -0.86904E-04 13880   0.143E-01
  46 F= -.39860818E+02 E0= -.39860696E+02  d E =-.215213E-01
       N       E                     dE             d eps       ncg     rms          rms(c)
DAV:   1    -0.398606444268E+02    0.16573E-03   -0.10425E-01 10936   0.266E+00    0.209E-01
DAV:   2    -0.398614109038E+02   -0.76648E-03   -0.13096E-02 10576   0.640E-01    0.820E-02
DAV:   3    -0.398613808887E+02    0.30015E-04   -0.51958E-04 13600   0.138E-01
  47 F= -.39861381E+02 E0= -.39861275E+02  d E =-.220846E-01
       N       E                     dE             d eps       ncg     rms          rms(c)
DAV:   1    -0.398844668099E+02   -0.23056E-01   -0.32042E+00  9520   0.111E+01    0.118E+00
DAV:   2    -0.398877048444E+02   -0.32380E-02   -0.14670E-01 12360   0.269E+00    0.590E-01
DAV:   3    -0.398861827334E+02    0.15221E-02   -0.10122E-02 17392   0.608E-01    0.285E-01
DAV:   4    -0.398856937670E+02    0.48897E-03   -0.24660E-03 14904   0.271E-01    0.106E-01
DAV:   5    -0.398856631106E+02    0.30656E-04   -0.27978E-04  8832   0.992E-02
  48 F= -.39885663E+02 E0= -.39885509E+02  d E =-.242822E-01
       N       E                     dE             d eps       ncg     rms          rms(c)
DAV:   1    -0.398943466738E+02   -0.86529E-02   -0.56982E+00  9520   0.148E+01    0.158E+00
DAV:   2    -0.399001173360E+02   -0.57707E-02   -0.26063E-01 12344   0.358E+00    0.799E-01
DAV:   3    -0.398973653965E+02    0.27519E-02   -0.18167E-02 17368   0.807E-01    0.375E-01
DAV:   4    -0.398965326771E+02    0.83272E-03   -0.44509E-03 15720   0.364E-01    0.146E-01
DAV:   5    -0.398964795055E+02    0.53172E-04   -0.53214E-04 11328   0.129E-01
  49 F= -.39896480E+02 E0= -.39896280E+02  d E =-.350986E-01
       N       E                     dE             d eps       ncg     rms          rms(c)
DAV:   1    -0.398815638748E+02    0.14969E-01   -0.45020E+00 10880   0.168E+01    0.114E+00
DAV:   2    -0.399117654021E+02   -0.30202E-01   -0.44981E-01 10288   0.376E+00    0.579E-01
DAV:   3    -0.399101302449E+02    0.16352E-02   -0.13341E-02 15024   0.715E-01    0.344E-01
DAV:   4    -0.399094078327E+02    0.72241E-03   -0.37958E-03 16480   0.381E-01    0.122E-01
DAV:   5    -0.399093467186E+02    0.61114E-04   -0.76195E-04 13588   0.156E-01
  50 F= -.39909347E+02 E0= -.39909143E+02  d E =-.128672E-01
       N       E                     dE             d eps       ncg     rms          rms(c)
DAV:   1    -0.399093529828E+02    0.54850E-04   -0.10897E-03 11968   0.240E-01    0.363E-02
DAV:   2    -0.399093568904E+02   -0.39076E-05   -0.80831E-05  6620   0.554E-02
  51 F= -.39909357E+02 E0= -.39909153E+02  d E =-.128774E-01
       N       E                     dE             d eps       ncg     rms          rms(c)
DAV:   1    -0.399194516276E+02   -0.10099E-01   -0.10198E+00  9520   0.637E+00    0.553E-01
DAV:   2    -0.399208984915E+02   -0.14469E-02   -0.49486E-02 12872   0.162E+00    0.301E-01
DAV:   3    -0.399205322641E+02    0.36623E-03   -0.36463E-03 16664   0.351E-01    0.161E-01
DAV:   4    -0.399203708968E+02    0.16137E-03   -0.63356E-04 11248   0.152E-01    0.805E-02
DAV:   5    -0.399203696730E+02    0.12238E-05   -0.12788E-04  7552   0.668E-02
  52 F= -.39920370E+02 E0= -.39920164E+02  d E =-.110128E-01
       N       E                     dE             d eps       ncg     rms          rms(c)
DAV:   1    -0.399260044669E+02   -0.56336E-02   -0.91844E+00  9520   0.191E+01    0.169E+00
DAV:   2    -0.399393292565E+02   -0.13325E-01   -0.45522E-01 12920   0.489E+00    0.918E-01
DAV:   3    -0.399359734077E+02    0.33558E-02   -0.33633E-02 16544   0.106E+00    0.493E-01
DAV:   4    -0.399346497528E+02    0.13237E-02   -0.64207E-03 17400   0.468E-01    0.251E-01
DAV:   5    -0.399346453090E+02    0.44437E-05   -0.76387E-04 13600   0.145E-01
  53 F= -.39934645E+02 E0= -.39934438E+02  d E =-.252884E-01
       N       E                     dE             d eps       ncg     rms          rms(c)
DAV:   1    -0.399200460293E+02    0.14604E-01   -0.25127E+00 10880   0.127E+01    0.677E-01
DAV:   2    -0.399389495796E+02   -0.18904E-01   -0.22887E-01 10180   0.269E+00    0.379E-01
DAV:   3    -0.399387959038E+02    0.15368E-03   -0.60806E-03 16128   0.465E-01    0.232E-01
DAV:   4    -0.399385708047E+02    0.22510E-03   -0.13728E-03 15304   0.263E-01    0.734E-02
DAV:   5    -0.399385684086E+02    0.23961E-05   -0.26093E-04  8796   0.994E-02
  54 F= -.39938568E+02 E0= -.39938380E+02  d E =-.392310E-02
       N       E                     dE             d eps       ncg     rms          rms(c)
DAV:   1    -0.399379115879E+02    0.65922E-03   -0.29672E-01 10884   0.435E+00    0.233E-01
DAV:   2    -0.399401293602E+02   -0.22178E-02   -0.26812E-02 10000   0.921E-01    0.129E-01
DAV:   3    -0.399400994227E+02    0.29937E-04   -0.69159E-04 14252   0.163E-01
  55 F= -.39940099E+02 E0= -.39939904E+02  d E =-.545411E-02
       N       E                     dE             d eps       ncg     rms          rms(c)
DAV:   1    -0.399481194958E+02   -0.79901E-02   -0.93818E-01  9520   0.591E+00    0.530E-01
DAV:   2    -0.399489527264E+02   -0.83323E-03   -0.34537E-02 12448   0.143E+00    0.270E-01
DAV:   3    -0.399485076882E+02    0.44504E-03   -0.29995E-03 14688   0.304E-01    0.195E-01
DAV:   4    -0.399483296935E+02    0.17799E-03   -0.84228E-04 14056   0.186E-01    0.984E-02
DAV:   5    -0.399483356100E+02   -0.59165E-05   -0.64384E-05  6484   0.440E-02
  56 F= -.39948336E+02 E0= -.39948144E+02  d E =-.823619E-02
       N       E                     dE             d eps       ncg     rms          rms(c)
DAV:   1    -0.399532848191E+02   -0.49551E-02   -0.36866E+00  9520   0.118E+01    0.104E+00
DAV:   2    -0.399566878422E+02   -0.34030E-02   -0.13880E-01 12464   0.286E+00    0.551E-01
DAV:   3    -0.399549284810E+02    0.17594E-02   -0.12401E-02 14888   0.615E-01    0.395E-01
DAV:   4    -0.399542170317E+02    0.71145E-03   -0.35134E-03 17112   0.376E-01    0.196E-01
DAV:   5    -0.399542503310E+02   -0.33299E-04   -0.22915E-04 10252   0.739E-02
  57 F= -.39954250E+02 E0= -.39954055E+02  d E =-.141509E-01
       N       E                     dE             d eps       ncg     rms          rms(c)
DAV:   1    -0.399585520255E+02   -0.43350E-02   -0.10890E+00 10880   0.766E+00    0.572E-01
DAV:   2    -0.399621900351E+02   -0.36380E-02   -0.73905E-02 11620   0.168E+00    0.260E-01
DAV:   3    -0.399617267510E+02    0.46328E-03   -0.38431E-03 15328   0.359E-01    0.175E-01
DAV:   4    -0.399615544000E+02    0.17235E-03   -0.90626E-04 14464   0.186E-01    0.946E-02
DAV:   5    -0.399615593961E+02   -0.49961E-05   -0.87776E-05  6648   0.526E-02
  58 F= -.39961559E+02 E0= -.39961365E+02  d E =-.730907E-02
       N       E                     dE             d eps       ncg     rms          rms(c)
DAV:   1    -0.399597990624E+02    0.17553E-02   -0.15674E+00 10880   0.919E+00    0.681E-01
DAV:   2    -0.399650451150E+02   -0.52461E-02   -0.10685E-01 11808   0.202E+00    0.305E-01
DAV:   3    -0.399644002800E+02    0.64484E-03   -0.55639E-03 15360   0.433E-01    0.203E-01
DAV:   4    -0.399641802585E+02    0.22002E-03   -0.13051E-03 15720   0.221E-01    0.116E-01
DAV:   5    -0.399641925062E+02   -0.12248E-04   -0.10740E-04  6800   0.595E-02
  59 F= -.39964193E+02 E0= -.39963992E+02  d E =-.994218E-02
       N       E                     dE             d eps       ncg     rms          rms(c)
DAV:   1    -0.399701556311E+02   -0.59754E-02   -0.56232E-01 10872   0.481E+00    0.390E-01
DAV:   2    -0.399703001370E+02   -0.14451E-03   -0.25355E-02 13160   0.104E+00    0.186E-01
DAV:   3    -0.399699546200E+02    0.34552E-03   -0.20736E-03 15832   0.258E-01    0.126E-01
DAV:   4    -0.399698385300E+02    0.11609E-03   -0.43153E-04  9752   0.130E-01    0.719E-02
DAV:   5    -0.399698444046E+02   -0.58746E-05   -0.80945E-05  6376   0.716E-02
  60 F= -.39969844E+02 E0= -.39969639E+02  d E =-.565190E-02
