   12   12   99    2
  0.8371323E+01  0.3349553E-09  0.7706241E-09  0.5452540E-09  0.5000000E-15
  1.000000000000000E-004
  CAR 
 unknown system                          
     41     61     32
 
  0.3742002E-15  0.3742002E-15  0.3742002E-15  0.8333333E-02
    1      -32.607982    -32.607982   1.000000   1.000000
    2      -28.222545    -28.222546   1.000000   1.000000
    3      -28.177166    -28.177166   1.000000   1.000000
    4      -28.033925    -28.033925   1.000000   1.000000
    5      -27.924933    -27.924933   1.000000   1.000000
    6      -27.756212    -27.756212   1.000000   1.000000
    7      -27.621673    -27.621673   1.000000   1.000000
    8      -14.737529    -14.737529   1.000000   1.000000
    9      -14.547724    -14.547724   1.000000   1.000000
   10      -14.412384    -14.412384   1.000000   1.000000
   11       -6.744583     -6.744583   1.000000   1.000000
   12       -5.111688     -5.111688   1.000000   1.000000
   13       -2.958358     -2.958358   1.000000   1.000000
   14       -2.548241     -2.548241   1.000000   1.000000
   15       -1.617242     -1.617242   1.000000   1.000000
   16       -0.777772     -0.777772   1.000000   1.000000
   17       -0.238370     -0.238370   1.000000   1.000000
   18        1.057804      1.057804   1.000000   1.000000
   19        2.067783      2.067783   1.000000   1.000000
   20        3.393220      3.393220   1.000000   1.000000
   21        3.699390      3.699390   0.000000   0.000000
   22        4.153248      4.153248   0.000000   0.000000
   23        4.336836      4.336836   0.000000   0.000000
   24        4.745776      4.745776   0.000000   0.000000
   25        5.148626      5.148626   0.000000   0.000000
   26        5.752645      5.752645   0.000000   0.000000
   27        6.437777      6.437777   0.000000   0.000000
   28        7.396786      7.396786   0.000000   0.000000
   29        7.947022      7.947023   0.000000   0.000000
   30        8.551013      8.551013   0.000000   0.000000
   31        9.009344      9.009344   0.000000   0.000000
   32        9.360895      9.360896   0.000000   0.000000
 
  0.1250000E+00  0.3747003E-15  0.4163336E-15  0.1666667E-01
    1      -32.595828    -32.595828   1.000000   1.000000
    2      -28.231178    -28.231178   1.000000   1.000000
    3      -28.194491    -28.194491   1.000000   1.000000
    4      -28.068787    -28.068787   1.000000   1.000000
    5      -27.933216    -27.933216   1.000000   1.000000
    6      -27.745323    -27.745323   1.000000   1.000000
    7      -27.620408    -27.620408   1.000000   1.000000
    8      -14.714085    -14.714085   1.000000   1.000000
    9      -14.572202    -14.572202   1.000000   1.000000
   10      -14.535355    -14.535355   1.000000   1.000000
   11       -6.388019     -6.388019   1.000000   1.000000
   12       -4.984412     -4.984412   1.000000   1.000000
   13       -2.868607     -2.868607   1.000000   1.000000
   14       -2.227697     -2.227697   1.000000   1.000000
   15       -1.607553     -1.607553   1.000000   1.000000
   16       -1.047547     -1.047547   1.000000   1.000000
   17       -0.315998     -0.315998   1.000000   1.000000
   18        0.650082      0.650082   1.000000   1.000000
   19        2.119148      2.119148   1.000000   1.000000
   20        3.115434      3.115434   1.000000   1.000000
   21        3.871063      3.871063  -0.039888  -0.039888
   22        3.991708      3.991708   0.000000   0.000000
   23        4.537012      4.537012   0.000000   0.000000
   24        4.967663      4.967663   0.000000   0.000000
   25        5.401697      5.401697   0.000000   0.000000
   26        5.779423      5.779423   0.000000   0.000000
   27        6.325884      6.325884   0.000000   0.000000
   28        7.267988      7.267988   0.000000   0.000000
   29        7.607679      7.607679   0.000000   0.000000
   30        8.239041      8.239041   0.000000   0.000000
   31        8.625471      8.625471   0.000000   0.000000
   32        9.348964      9.348966   0.000000   0.000000
 
  0.2500000E+00  0.3747003E-15  0.3885781E-15  0.1666667E-01
    1      -32.566555    -32.566555   1.000000   1.000000
    2      -28.260915    -28.260916   1.000000   1.000000
    3      -28.231671    -28.231671   1.000000   1.000000
    4      -28.139471    -28.139471   1.000000   1.000000
    5      -27.961761    -27.961761   1.000000   1.000000
    6      -27.723730    -27.723730   1.000000   1.000000
    7      -27.610927    -27.610927   1.000000   1.000000
    8      -14.846715    -14.846715   1.000000   1.000000
    9      -14.645564    -14.645564   1.000000   1.000000
   10      -14.593108    -14.593108   1.000000   1.000000
   11       -5.713007     -5.713007   1.000000   1.000000
   12       -4.338316     -4.338316   1.000000   1.000000
   13       -2.610148     -2.610148   1.000000   1.000000
   14       -1.913352     -1.913352   1.000000   1.000000
   15       -1.656986     -1.656986   1.000000   1.000000
   16       -1.282127     -1.282127   1.000000   1.000000
   17       -0.470902     -0.470902   1.000000   1.000000
   18        0.035302      0.035301   1.000000   1.000000
   19        1.864939      1.864939   1.000000   1.000000
   20        2.344617      2.344617   1.000000   1.000000
   21        3.638635      3.638635   0.363093   0.363093
   22        4.218514      4.218514   0.000000   0.000000
   23        4.819981      4.819981   0.000000   0.000000
   24        5.178066      5.178066   0.000000   0.000000
   25        5.880301      5.880301   0.000000   0.000000
   26        6.195803      6.195803   0.000000   0.000000
   27        6.535510      6.535510   0.000000   0.000000
   28        6.714121      6.714121   0.000000   0.000000
   29        7.377836      7.377836   0.000000   0.000000
   30        7.961704      7.961704   0.000000   0.000000
   31        8.626035      8.626035   0.000000   0.000000
   32        9.011637      9.011638   0.000000   0.000000
 
  0.3750000E+00  0.3330669E-15  0.3330669E-15  0.1666667E-01
    1      -32.537388    -32.537388   1.000000   1.000000
    2      -28.329512    -28.329512   1.000000   1.000000
    3      -28.263466    -28.263466   1.000000   1.000000
    4      -28.166120    -28.166120   1.000000   1.000000
    5      -27.991786    -27.991786   1.000000   1.000000
    6      -27.710078    -27.710078   1.000000   1.000000
    7      -27.599306    -27.599306   1.000000   1.000000
    8      -15.108418    -15.108418   1.000000   1.000000
    9      -14.632077    -14.632077   1.000000   1.000000
   10      -14.566056    -14.566056   1.000000   1.000000
   11       -5.283655     -5.283655   1.000000   1.000000
   12       -3.409595     -3.409595   1.000000   1.000000
   13       -2.354870     -2.354870   1.000000   1.000000
   14       -1.955698     -1.955698   1.000000   1.000000
   15       -1.743418     -1.743418   1.000000   1.000000
   16       -1.176034     -1.176034   1.000000   1.000000
   17       -0.657621     -0.657621   1.000000   1.000000
   18       -0.074359     -0.074359   1.000000   1.000000
   19        1.489223      1.489223   1.000000   1.000000
   20        1.868592      1.868592   1.000000   1.000000
   21        2.873483      2.873483   1.042745   1.042745
   22        4.335705      4.335705   0.000000   0.000000
   23        4.734747      4.734747   0.000000   0.000000
   24        5.414101      5.414101   0.000000   0.000000
   25        5.748882      5.748882   0.000000   0.000000
   26        6.371705      6.371705   0.000000   0.000000
   27        6.892223      6.892223   0.000000   0.000000
   28        7.452696      7.452696   0.000000   0.000000
   29        7.540184      7.540184   0.000000   0.000000
   30        7.991141      7.991141   0.000000   0.000000
   31        8.344628      8.344628   0.000000   0.000000
   32        8.703962      8.703962   0.000000   0.000000
 
  0.5000000E+00  0.3053113E-15  0.3330669E-15  0.8333333E-02
    1      -32.525336    -32.525336   1.000000   1.000000
    2      -28.360681    -28.360681   1.000000   1.000000
    3      -28.288382    -28.288382   1.000000   1.000000
    4      -28.158900    -28.158900   1.000000   1.000000
    5      -28.004162    -28.004162   1.000000   1.000000
    6      -27.706283    -27.706283   1.000000   1.000000
    7      -27.595535    -27.595535   1.000000   1.000000
    8      -15.211301    -15.211300   1.000000   1.000000
    9      -14.632359    -14.632359   1.000000   1.000000
   10      -14.543527    -14.543527   1.000000   1.000000
   11       -5.154619     -5.154619   1.000000   1.000000
   12       -3.170994     -3.170994   1.000000   1.000000
   13       -2.267158     -2.267158   1.000000   1.000000
   14       -1.946046     -1.946046   1.000000   1.000000
   15       -1.520236     -1.520236   1.000000   1.000000
   16       -1.029153     -1.029153   1.000000   1.000000
   17       -0.770091     -0.770091   1.000000   1.000000
   18       -0.101510     -0.101510   1.000000   1.000000
   19        1.207684      1.207684   1.000000   1.000000
   20        2.089724      2.089724   1.000000   1.000000
   21        2.281529      2.281530   1.000000   1.000000
   22        4.192840      4.192840   0.000000   0.000000
   23        4.632970      4.632970   0.000000   0.000000
   24        5.431247      5.431247   0.000000   0.000000
   25        5.813017      5.813017   0.000000   0.000000
   26        6.577184      6.577184   0.000000   0.000000
   27        6.914036      6.914036   0.000000   0.000000
   28        7.312695      7.312695   0.000000   0.000000
   29        7.539804      7.539804   0.000000   0.000000
   30        7.956327      7.956327   0.000000   0.000000
   31        8.614765      8.614764   0.000000   0.000000
   32        9.222321      9.222321   0.000000   0.000000
 
  0.3712308E-15  0.3333333E+00  0.3608225E-15  0.1666667E-01
    1      -32.608005    -32.608005   1.000000   1.000000
    2      -28.222617    -28.222617   1.000000   1.000000
    3      -28.177205    -28.177205   1.000000   1.000000
    4      -28.033850    -28.033850   1.000000   1.000000
    5      -27.924980    -27.924980   1.000000   1.000000
    6      -27.756152    -27.756152   1.000000   1.000000
    7      -27.621514    -27.621514   1.000000   1.000000
    8      -14.741084    -14.741084   1.000000   1.000000
    9      -14.547888    -14.547888   1.000000   1.000000
   10      -14.412400    -14.412400   1.000000   1.000000
   11       -6.511549     -6.511549   1.000000   1.000000
   12       -5.485671     -5.485671   1.000000   1.000000
   13       -3.023154     -3.023154   1.000000   1.000000
   14       -2.444387     -2.444387   1.000000   1.000000
   15       -1.558609     -1.558609   1.000000   1.000000
   16       -0.698922     -0.698922   1.000000   1.000000
   17       -0.107938     -0.107938   1.000000   1.000000
   18        0.971421      0.971421   1.000000   1.000000
   19        2.143730      2.143730   1.000000   1.000000
   20        3.432921      3.432921   1.000000   1.000000
   21        3.736263      3.736263   0.000000   0.000000
   22        4.136798      4.136798   0.000000   0.000000
   23        4.343816      4.343816   0.000000   0.000000
   24        4.704323      4.704323   0.000000   0.000000
   25        5.043812      5.043812   0.000000   0.000000
   26        5.713223      5.713223   0.000000   0.000000
   27        6.389839      6.389839   0.000000   0.000000
   28        7.110966      7.110967   0.000000   0.000000
   29        8.033549      8.033549   0.000000   0.000000
   30        8.107258      8.107258   0.000000   0.000000
   31        9.120314      9.120314   0.000000   0.000000
   32        9.260206      9.260206   0.000000   0.000000
 
  0.1250000E+00  0.3333333E+00  0.3608225E-15  0.1666667E-01
    1      -32.595853    -32.595853   1.000000   1.000000
    2      -28.231115    -28.231115   1.000000   1.000000
    3      -28.194504    -28.194504   1.000000   1.000000
    4      -28.068743    -28.068743   1.000000   1.000000
    5      -27.933277    -27.933277   1.000000   1.000000
    6      -27.745313    -27.745313   1.000000   1.000000
    7      -27.620336    -27.620336   1.000000   1.000000
    8      -14.716781    -14.716781   1.000000   1.000000
    9      -14.572474    -14.572474   1.000000   1.000000
   10      -14.535358    -14.535358   1.000000   1.000000
   11       -6.170856     -6.170856   1.000000   1.000000
   12       -5.300715     -5.300714   1.000000   1.000000
   13       -2.919647     -2.919647   1.000000   1.000000
   14       -2.221067     -2.221067   1.000000   1.000000
   15       -1.554534     -1.554534   1.000000   1.000000
   16       -0.949071     -0.949071   1.000000   1.000000
   17       -0.113223     -0.113223   1.000000   1.000000
   18        0.501928      0.501928   1.000000   1.000000
   19        2.163008      2.163008   1.000000   1.000000
   20        3.021996      3.021996   1.000000   1.000000
   21        3.965334      3.965334  -0.047499  -0.047499
   22        4.230715      4.230715   0.000000   0.000000
   23        4.419060      4.419060   0.000000   0.000000
   24        4.907148      4.907148   0.000000   0.000000
   25        5.186621      5.186621   0.000000   0.000000
   26        5.791015      5.791015   0.000000   0.000000
   27        6.514801      6.514801   0.000000   0.000000
   28        7.131889      7.131889   0.000000   0.000000
   29        7.447975      7.447975   0.000000   0.000000
   30        8.031136      8.031136   0.000000   0.000000
   31        8.642288      8.642288   0.000000   0.000000
   32        9.168349      9.168349   0.000000   0.000000
 
  0.2500000E+00  0.3333333E+00  0.4440892E-15  0.1666667E-01
    1      -32.566561    -32.566561   1.000000   1.000000
    2      -28.260873    -28.260873   1.000000   1.000000
    3      -28.231624    -28.231624   1.000000   1.000000
    4      -28.139439    -28.139439   1.000000   1.000000
    5      -27.961826    -27.961826   1.000000   1.000000
    6      -27.723758    -27.723758   1.000000   1.000000
    7      -27.610927    -27.610927   1.000000   1.000000
    8      -14.846637    -14.846637   1.000000   1.000000
    9      -14.645473    -14.645473   1.000000   1.000000
   10      -14.593762    -14.593762   1.000000   1.000000
   11       -5.687515     -5.687515   1.000000   1.000000
   12       -4.366888     -4.366888   1.000000   1.000000
   13       -2.622034     -2.622034   1.000000   1.000000
   14       -2.063198     -2.063198   1.000000   1.000000
   15       -1.508347     -1.508347   1.000000   1.000000
   16       -1.202879     -1.202879   1.000000   1.000000
   17       -0.673967     -0.673967   1.000000   1.000000
   18        0.230527      0.230527   1.000000   1.000000
   19        1.915823      1.915823   1.000000   1.000000
   20        2.244919      2.244919   1.000000   1.000000
   21        3.724030      3.724030   0.302897   0.302897
   22        4.307809      4.307809   0.000000   0.000000
   23        4.698953      4.698953   0.000000   0.000000
   24        5.223784      5.223784   0.000000   0.000000
   25        5.616648      5.616648   0.000000   0.000000
   26        6.128635      6.128635   0.000000   0.000000
   27        6.453097      6.453097   0.000000   0.000000
   28        6.972144      6.972144   0.000000   0.000000
   29        7.304731      7.304731   0.000000   0.000000
   30        8.006827      8.006827   0.000000   0.000000
   31        8.585053      8.585053   0.000000   0.000000
   32        9.143619      9.143619   0.000000   0.000000
 
  0.3750000E+00  0.3333333E+00  0.5551115E-15  0.1666667E-01
    1      -32.537385    -32.537385   1.000000   1.000000
    2      -28.329466    -28.329466   1.000000   1.000000
    3      -28.263478    -28.263478   1.000000   1.000000
    4      -28.166117    -28.166117   1.000000   1.000000
    5      -27.991838    -27.991838   1.000000   1.000000
    6      -27.710052    -27.710052   1.000000   1.000000
    7      -27.599354    -27.599354   1.000000   1.000000
    8      -15.108486    -15.108486   1.000000   1.000000
    9      -14.631948    -14.631948   1.000000   1.000000
   10      -14.565644    -14.565644   1.000000   1.000000
   11       -5.284113     -5.284113   1.000000   1.000000
   12       -3.424574     -3.424574   1.000000   1.000000
   13       -2.371012     -2.371012   1.000000   1.000000
   14       -1.965184     -1.965184   1.000000   1.000000
   15       -1.680132     -1.680132   1.000000   1.000000
   16       -1.191875     -1.191875   1.000000   1.000000
   17       -0.821276     -0.821276   1.000000   1.000000
   18        0.176016      0.176016   1.000000   1.000000
   19        1.468487      1.468487   1.000000   1.000000
   20        1.865574      1.865574   1.000000   1.000000
   21        2.860676      2.860676   1.031172   1.031172
   22        4.326161      4.326161   0.000000   0.000000
   23        4.691982      4.691982   0.000000   0.000000
   24        5.291252      5.291252   0.000000   0.000000
   25        5.683973      5.683973   0.000000   0.000000
   26        6.440882      6.440882   0.000000   0.000000
   27        6.961541      6.961541   0.000000   0.000000
   28        7.293453      7.293453   0.000000   0.000000
   29        7.532996      7.532996   0.000000   0.000000
   30        7.941153      7.941153   0.000000   0.000000
   31        8.538547      8.538547   0.000000   0.000000
   32        8.726113      8.726113   0.000000   0.000000
 
  0.5000000E+00  0.3333333E+00  0.5551115E-15  0.1666667E-01
    1      -32.525326    -32.525326   1.000000   1.000000
    2      -28.360665    -28.360666   1.000000   1.000000
    3      -28.288402    -28.288403   1.000000   1.000000
    4      -28.158939    -28.158939   1.000000   1.000000
    5      -28.004164    -28.004164   1.000000   1.000000
    6      -27.706261    -27.706261   1.000000   1.000000
    7      -27.595565    -27.595565   1.000000   1.000000
    8      -15.211335    -15.211335   1.000000   1.000000
    9      -14.632492    -14.632492   1.000000   1.000000
   10      -14.542623    -14.542623   1.000000   1.000000
   11       -5.168807     -5.168807   1.000000   1.000000
   12       -3.188681     -3.188681   1.000000   1.000000
   13       -2.170037     -2.170037   1.000000   1.000000
   14       -1.882645     -1.882645   1.000000   1.000000
   15       -1.563674     -1.563674   1.000000   1.000000
   16       -1.242691     -1.242691   1.000000   1.000000
   17       -0.787357     -0.787357   1.000000   1.000000
   18        0.152942      0.152942   1.000000   1.000000
   19        1.168072      1.168073   1.000000   1.000000
   20        2.026634      2.026633   1.000000   1.000000
   21        2.252742      2.252742   1.000000   1.000000
   22        4.224361      4.224360   0.000000   0.000000
   23        4.524686      4.524686   0.000000   0.000000
   24        5.469269      5.469269   0.000000   0.000000
   25        5.813189      5.813189   0.000000   0.000000
   26        6.579760      6.579760   0.000000   0.000000
   27        6.948914      6.948914   0.000000   0.000000
   28        7.229496      7.229496   0.000000   0.000000
   29        7.624571      7.624571   0.000000   0.000000
   30        8.154461      8.154461   0.000000   0.000000
   31        8.655492      8.655492   0.000000   0.000000
   32        9.029669      9.029669   0.000000   0.000000
 
 -0.3750000E+00  0.3333333E+00  0.3885781E-15  0.1666667E-01
    1      -32.537370    -32.537370   1.000000   1.000000
    2      -28.329523    -28.329523   1.000000   1.000000
    3      -28.263524    -28.263524   1.000000   1.000000
    4      -28.166173    -28.166173   1.000000   1.000000
    5      -27.991801    -27.991801   1.000000   1.000000
    6      -27.710039    -27.710039   1.000000   1.000000
    7      -27.599268    -27.599268   1.000000   1.000000
    8      -15.108473    -15.108473   1.000000   1.000000
    9      -14.632227    -14.632227   1.000000   1.000000
   10      -14.564870    -14.564870   1.000000   1.000000
   11       -5.298055     -5.298055   1.000000   1.000000
   12       -3.433489     -3.433489   1.000000   1.000000
   13       -2.273520     -2.273520   1.000000   1.000000
   14       -2.018918     -2.018918   1.000000   1.000000
   15       -1.691336     -1.691336   1.000000   1.000000
   16       -1.135455     -1.135455   1.000000   1.000000
   17       -0.836329     -0.836329   1.000000   1.000000
   18        0.122931      0.122931   1.000000   1.000000
   19        1.430648      1.430648   1.000000   1.000000
   20        1.908098      1.908098   1.000000   1.000000
   21        2.748656      2.748656   1.061113   1.061113
   22        4.355322      4.355322   0.000000   0.000000
   23        4.887379      4.887379   0.000000   0.000000
   24        5.198756      5.198756   0.000000   0.000000
   25        5.786801      5.786801   0.000000   0.000000
   26        6.337105      6.337105   0.000000   0.000000
   27        6.992971      6.992971   0.000000   0.000000
   28        7.183887      7.183887   0.000000   0.000000
   29        7.667640      7.667640   0.000000   0.000000
   30        7.843274      7.843274   0.000000   0.000000
   31        8.357292      8.357292   0.000000   0.000000
   32        8.796019      8.796019   0.000000   0.000000
 
 -0.2500000E+00  0.3333333E+00  0.4163336E-15  0.1666667E-01
    1      -32.566535    -32.566535   1.000000   1.000000
    2      -28.261001    -28.261001   1.000000   1.000000
    3      -28.231766    -28.231766   1.000000   1.000000
    4      -28.139459    -28.139459   1.000000   1.000000
    5      -27.961782    -27.961782   1.000000   1.000000
    6      -27.723718    -27.723718   1.000000   1.000000
    7      -27.610790    -27.610790   1.000000   1.000000
    8      -14.846735    -14.846735   1.000000   1.000000
    9      -14.644531    -14.644531   1.000000   1.000000
   10      -14.593085    -14.593085   1.000000   1.000000
   11       -5.756088     -5.756088   1.000000   1.000000
   12       -4.282985     -4.282985   1.000000   1.000000
   13       -2.547551     -2.547551   1.000000   1.000000
   14       -2.067901     -2.067901   1.000000   1.000000
   15       -1.511586     -1.511586   1.000000   1.000000
   16       -1.216459     -1.216459   1.000000   1.000000
   17       -0.811293     -0.811293   1.000000   1.000000
   18        0.322071      0.322071   1.000000   1.000000
   19        1.902561      1.902561   1.000000   1.000000
   20        2.241756      2.241756   1.000000   1.000000
   21        3.574896      3.574896   0.406441   0.406441
   22        4.314684      4.314684   0.000000   0.000000
   23        4.723494      4.723494   0.000000   0.000000
   24        5.032760      5.032760   0.000000   0.000000
   25        5.857026      5.857026   0.000000   0.000000
   26        6.111373      6.111373   0.000000   0.000000
   27        6.773481      6.773481   0.000000   0.000000
   28        6.968870      6.968870   0.000000   0.000000
   29        7.369540      7.369540   0.000000   0.000000
   30        7.990748      7.990748   0.000000   0.000000
   31        8.340896      8.340896   0.000000   0.000000
   32        8.807681      8.807681   0.000000   0.000000
 
 -0.1250000E+00  0.3333333E+00  0.3677614E-15  0.1666667E-01
    1      -32.595829    -32.595829   1.000000   1.000000
    2      -28.231308    -28.231308   1.000000   1.000000
    3      -28.194516    -28.194516   1.000000   1.000000
    4      -28.068722    -28.068723   1.000000   1.000000
    5      -27.933264    -27.933264   1.000000   1.000000
    6      -27.745355    -27.745355   1.000000   1.000000
    7      -27.620207    -27.620207   1.000000   1.000000
    8      -14.714413    -14.714413   1.000000   1.000000
    9      -14.572602    -14.572602   1.000000   1.000000
   10      -14.535261    -14.535261   1.000000   1.000000
   11       -6.362276     -6.362276   1.000000   1.000000
   12       -5.016498     -5.016498   1.000000   1.000000
   13       -2.837558     -2.837558   1.000000   1.000000
   14       -2.402479     -2.402479   1.000000   1.000000
   15       -1.427862     -1.427862   1.000000   1.000000
   16       -0.977812     -0.977812   1.000000   1.000000
   17       -0.435715     -0.435715   1.000000   1.000000
   18        0.703657      0.703657   1.000000   1.000000
   19        2.147388      2.147388   1.000000   1.000000
   20        2.926148      2.926147   1.000000   1.000000
   21        3.916289      3.916289  -0.051224  -0.051224
   22        4.061264      4.061264   0.000000   0.000000
   23        4.480981      4.480981   0.000000   0.000000
   24        5.106467      5.106467   0.000000   0.000000
   25        5.280137      5.280137   0.000000   0.000000
   26        5.857372      5.857372   0.000000   0.000000
   27        6.502219      6.502219   0.000000   0.000000
   28        7.571160      7.571160   0.000000   0.000000
   29        7.650568      7.650568   0.000000   0.000000
   30        8.180109      8.180109   0.000000   0.000000
   31        8.468352      8.468352   0.000000   0.000000
   32        8.768978      8.768978   0.000000   0.000000
 
  0.3747003E-15  0.3469447E-15  0.2000000E+00  0.1666667E-01
    1      -32.604540    -32.604540   1.000000   1.000000
    2      -28.255372    -28.255372   1.000000   1.000000
    3      -28.201915    -28.201915   1.000000   1.000000
    4      -28.033173    -28.033174   1.000000   1.000000
    5      -27.927814    -27.927814   1.000000   1.000000
    6      -27.730725    -27.730725   1.000000   1.000000
    7      -27.609439    -27.609439   1.000000   1.000000
    8      -14.729835    -14.729835   1.000000   1.000000
    9      -14.621392    -14.621392   1.000000   1.000000
   10      -14.408226    -14.408226   1.000000   1.000000
   11       -6.411334     -6.411334   1.000000   1.000000
   12       -4.965827     -4.965827   1.000000   1.000000
   13       -3.052408     -3.052408   1.000000   1.000000
   14       -2.133637     -2.133637   1.000000   1.000000
   15       -1.554066     -1.554066   1.000000   1.000000
   16       -1.136120     -1.136120   1.000000   1.000000
   17       -0.375089     -0.375089   1.000000   1.000000
   18        1.112835      1.112835   1.000000   1.000000
   19        2.017426      2.017426   1.000000   1.000000
   20        3.285385      3.285385   1.000000   1.000000
   21        3.585450      3.585450   0.260976   0.260976
   22        4.039792      4.039792   0.000000   0.000000
   23        4.516093      4.516093   0.000000   0.000000
   24        4.889735      4.889735   0.000000   0.000000
   25        5.062821      5.062821   0.000000   0.000000
   26        5.538633      5.538633   0.000000   0.000000
   27        5.959704      5.959704   0.000000   0.000000
   28        7.291738      7.291738   0.000000   0.000000
   29        8.043803      8.043803   0.000000   0.000000
   30        8.237777      8.237777   0.000000   0.000000
   31        8.801650      8.801650   0.000000   0.000000
   32        9.111511      9.111511   0.000000   0.000000
 
  0.1250000E+00  0.3330669E-15  0.2000000E+00  0.1666667E-01
    1      -32.590110    -32.590110   1.000000   1.000000
    2      -28.272516    -28.272516   1.000000   1.000000
    3      -28.243689    -28.243689   1.000000   1.000000
    4      -28.069610    -28.069611   1.000000   1.000000
    5      -27.938864    -27.938864   1.000000   1.000000
    6      -27.706324    -27.706324   1.000000   1.000000
    7      -27.598900    -27.598900   1.000000   1.000000
    8      -14.728064    -14.728064   1.000000   1.000000
    9      -14.658317    -14.658316   1.000000   1.000000
   10      -14.530169    -14.530169   1.000000   1.000000
   11       -5.824991     -5.824991   1.000000   1.000000
   12       -4.597421     -4.597421   1.000000   1.000000
   13       -3.175424     -3.175424   1.000000   1.000000
   14       -1.818338     -1.818338   1.000000   1.000000
   15       -1.486228     -1.486228   1.000000   1.000000
   16       -1.248284     -1.248284   1.000000   1.000000
   17       -0.438978     -0.438978   1.000000   1.000000
   18        0.760566      0.760566   1.000000   1.000000
   19        2.034692      2.034692   1.000000   1.000000
   20        2.838887      2.838887   1.000000   1.000000
   21        3.304766      3.304766   0.927957   0.927957
   22        4.214230      4.214230   0.000000   0.000000
   23        4.447523      4.447523   0.000000   0.000000
   24        4.718218      4.718218   0.000000   0.000000
   25        4.988256      4.988256   0.000000   0.000000
   26        5.714188      5.714188   0.000000   0.000000
   27        6.386360      6.386360   0.000000   0.000000
   28        6.889038      6.889038   0.000000   0.000000
   29        7.502459      7.502459   0.000000   0.000000
   30        7.965000      7.965000   0.000000   0.000000
   31        8.360081      8.360081   0.000000   0.000000
   32        9.211678      9.211677   0.000000   0.000000
 
  0.2500000E+00  0.3053113E-15  0.2000000E+00  0.1666667E-01
    1      -32.562109    -32.562109   1.000000   1.000000
    2      -28.300303    -28.300303   1.000000   1.000000
    3      -28.266396    -28.266396   1.000000   1.000000
    4      -28.122062    -28.122062   1.000000   1.000000
    5      -27.980776    -27.980776   1.000000   1.000000
    6      -27.697336    -27.697336   1.000000   1.000000
    7      -27.590622    -27.590622   1.000000   1.000000
    8      -14.834115    -14.834115   1.000000   1.000000
    9      -14.701284    -14.701284   1.000000   1.000000
   10      -14.611017    -14.611017   1.000000   1.000000
   11       -5.389970     -5.389970   1.000000   1.000000
   12       -3.690877     -3.690877   1.000000   1.000000
   13       -3.036408     -3.036408   1.000000   1.000000
   14       -2.107075     -2.107075   1.000000   1.000000
   15       -1.469212     -1.469212   1.000000   1.000000
   16       -0.950638     -0.950638   1.000000   1.000000