  14  14   1   0
  0.1122590E+02  0.5046896E-09  0.5287458E-09  0.6840741E-09  0.5000000E-15
  1.000000000000000E-004
  CAR 
 unknown system                          
     12.78075739    -35.61623149  301      2.33507396      1.00000000
    -35.616  0.0000E+00  0.0000E+00  0.0000E+00  0.0000E+00
    -35.455  0.0000E+00  0.0000E+00  0.0000E+00  0.0000E+00
    -35.294  0.0000E+00  0.0000E+00  0.0000E+00  0.0000E+00
    -35.132  0.0000E+00  0.0000E+00  0.0000E+00  0.0000E+00
    -34.971  0.0000E+00  0.0000E+00  0.0000E+00  0.0000E+00
    -34.810  0.0000E+00  0.0000E+00  0.0000E+00  0.0000E+00
    -34.648  0.0000E+00  0.0000E+00  0.0000E+00  0.0000E+00
    -34.487  0.0000E+00  0.0000E+00  0.0000E+00  0.0000E+00
    -34.326  0.0000E+00  0.0000E+00  0.0000E+00  0.0000E+00
    -34.164  0.0000E+00  0.0000E+00  0.0000E+00  0.0000E+00
    -34.003  0.0000E+00  0.0000E+00  0.0000E+00  0.0000E+00
    -33.842  0.0000E+00  0.0000E+00  0.0000E+00  0.0000E+00
    -33.680  0.0000E+00  0.0000E+00  0.0000E+00  0.0000E+00
    -33.519  0.0000E+00  0.0000E+00  0.0000E+00  0.0000E+00
    -33.358  0.0000E+00  0.0000E+00  0.2020E-01  0.2020E-01
    -33.196  0.0000E+00  0.0000E+00  0.2020E-01  0.2020E-01
    -33.035  0.0000E+00  0.0000E+00  0.2020E-01  0.2020E-01
    -32.874  0.0000E+00  0.0000E+00  0.2020E-01  0.2020E-01
    -32.712  0.0000E+00  0.0000E+00  0.3030E-01  0.3030E-01
    -32.551  0.0000E+00  0.0000E+00  0.3030E-01  0.3030E-01
    -32.390  0.0000E+00  0.0000E+00  0.3030E-01  0.3030E-01
    -32.228  0.0000E+00  0.0000E+00  0.3030E-01  0.3030E-01
    -32.067  0.0000E+00  0.0000E+00  0.3030E-01  0.3030E-01
    -31.906  0.0000E+00  0.0000E+00  0.3030E-01  0.3030E-01
    -31.744  0.0000E+00  0.0000E+00  0.3030E-01  0.3030E-01
    -31.583  0.0000E+00  0.0000E+00  0.3030E-01  0.3030E-01
    -31.422  0.0000E+00  0.0000E+00  0.3030E-01  0.3030E-01
    -31.261  0.0000E+00  0.0000E+00  0.3030E-01  0.3030E-01
    -31.099  0.0000E+00  0.0000E+00  0.3030E-01  0.3030E-01
    -30.938  0.0000E+00  0.0000E+00  0.3030E-01  0.3030E-01
    -30.777  0.0000E+00  0.0000E+00  0.3030E-01  0.3030E-01
    -30.615  0.0000E+00  0.0000E+00  0.3030E-01  0.3030E-01
    -30.454  0.0000E+00  0.0000E+00  0.3030E-01  0.3030E-01
    -30.293  0.0000E+00  0.0000E+00  0.3030E-01  0.3030E-01
    -30.131  0.0000E+00  0.0000E+00  0.3030E-01  0.3030E-01
    -29.970  0.0000E+00  0.0000E+00  0.3030E-01  0.3030E-01
    -29.809  0.0000E+00  0.0000E+00  0.3030E-01  0.3030E-01
    -29.647  0.0000E+00  0.0000E+00  0.3030E-01  0.3030E-01
    -29.486  0.0000E+00  0.0000E+00  0.3030E-01  0.3030E-01
    -29.325  0.0000E+00  0.0000E+00  0.3030E-01  0.3030E-01
    -29.163  0.0000E+00  0.0000E+00  0.3030E-01  0.3030E-01
    -29.002  0.0000E+00  0.0000E+00  0.3030E-01  0.3030E-01
    -28.841  0.0000E+00  0.0000E+00  0.5051E-01  0.3030E-01
    -28.679  0.0000E+00  0.0000E+00  0.6061E-01  0.3030E-01
    -28.518  0.0000E+00  0.0000E+00  0.6061E-01  0.4040E-01
    -28.357  0.0000E+00  0.0000E+00  0.6061E-01  0.4040E-01
    -28.195  0.0000E+00  0.0000E+00  0.6061E-01  0.6061E-01
    -28.034  0.0000E+00  0.0000E+00  0.6061E-01  0.6061E-01
    -27.873  0.0000E+00  0.0000E+00  0.6061E-01  0.6061E-01
    -27.711  0.0000E+00  0.0000E+00  0.6061E-01  0.6061E-01
    -27.550  0.0000E+00  0.0000E+00  0.6061E-01  0.6061E-01
    -27.389  0.0000E+00  0.0000E+00  0.6061E-01  0.6061E-01
    -27.227  0.0000E+00  0.0000E+00  0.6061E-01  0.6061E-01
    -27.066  0.0000E+00  0.0000E+00  0.6061E-01  0.6061E-01
    -26.905  0.0000E+00  0.0000E+00  0.6061E-01  0.6061E-01
    -26.743  0.0000E+00  0.0000E+00  0.6061E-01  0.6061E-01
    -26.582  0.0000E+00  0.0000E+00  0.6061E-01  0.6061E-01
    -26.421  0.0000E+00  0.0000E+00  0.6061E-01  0.6061E-01
    -26.259  0.0000E+00  0.0000E+00  0.6061E-01  0.6061E-01
    -26.098  0.0000E+00  0.0000E+00  0.6061E-01  0.6061E-01
    -25.937  0.0000E+00  0.0000E+00  0.6061E-01  0.6061E-01
    -25.776  0.0000E+00  0.0000E+00  0.6061E-01  0.6061E-01
    -25.614  0.0000E+00  0.0000E+00  0.6061E-01  0.6061E-01
    -25.453  0.0000E+00  0.0000E+00  0.6061E-01  0.6061E-01
    -25.292  0.0000E+00  0.0000E+00  0.6061E-01  0.6061E-01
    -25.130  0.0000E+00  0.0000E+00  0.6061E-01  0.6061E-01
    -24.969  0.0000E+00  0.0000E+00  0.6061E-01  0.6061E-01
    -24.808  0.0000E+00  0.0000E+00  0.6061E-01  0.6061E-01
    -24.646  0.0000E+00  0.0000E+00  0.6061E-01  0.6061E-01
    -24.485  0.0000E+00  0.0000E+00  0.6061E-01  0.6061E-01
    -24.324  0.0000E+00  0.0000E+00  0.6061E-01  0.6061E-01
    -24.162  0.0000E+00  0.0000E+00  0.6061E-01  0.6061E-01
    -24.001  0.0000E+00  0.0000E+00  0.6061E-01  0.6061E-01
    -23.840  0.0000E+00  0.0000E+00  0.6061E-01  0.6061E-01
    -23.678  0.0000E+00  0.0000E+00  0.6061E-01  0.6061E-01
    -23.517  0.0000E+00  0.0000E+00  0.6061E-01  0.6061E-01
    -23.356  0.0000E+00  0.0000E+00  0.6061E-01  0.6061E-01
    -23.194  0.0000E+00  0.0000E+00  0.6061E-01  0.6061E-01
    -23.033  0.0000E+00  0.0000E+00  0.6061E-01  0.6061E-01
    -22.872  0.0000E+00  0.0000E+00  0.6061E-01  0.6061E-01
    -22.710  0.0000E+00  0.0000E+00  0.6061E-01  0.6061E-01
    -22.549  0.0000E+00  0.0000E+00  0.6061E-01  0.6061E-01
    -22.388  0.0000E+00  0.0000E+00  0.6061E-01  0.6061E-01
    -22.226  0.0000E+00  0.0000E+00  0.6061E-01  0.6061E-01
    -22.065  0.0000E+00  0.0000E+00  0.6061E-01  0.6061E-01
    -21.904  0.0000E+00  0.0000E+00  0.6061E-01  0.6061E-01
    -21.742  0.0000E+00  0.0000E+00  0.6061E-01  0.6061E-01
    -21.581  0.0000E+00  0.0000E+00  0.6061E-01  0.6061E-01
    -21.420  0.0000E+00  0.0000E+00  0.6061E-01  0.6061E-01
    -21.258  0.0000E+00  0.0000E+00  0.6061E-01  0.6061E-01
    -21.097  0.0000E+00  0.0000E+00  0.6061E-01  0.6061E-01
    -20.936  0.0000E+00  0.0000E+00  0.6061E-01  0.6061E-01
    -20.774  0.0000E+00  0.0000E+00  0.6061E-01  0.6061E-01
    -20.613  0.0000E+00  0.0000E+00  0.6061E-01  0.6061E-01
    -20.452  0.0000E+00  0.0000E+00  0.6061E-01  0.6061E-01
    -20.291  0.0000E+00  0.0000E+00  0.6061E-01  0.6061E-01
    -20.129  0.0000E+00  0.0000E+00  0.6061E-01  0.6061E-01
    -19.968  0.0000E+00  0.0000E+00  0.6061E-01  0.6061E-01
    -19.807  0.0000E+00  0.0000E+00  0.6061E-01  0.6061E-01
    -19.645  0.0000E+00  0.0000E+00  0.6061E-01  0.6061E-01
    -19.484  0.0000E+00  0.0000E+00  0.6061E-01  0.6061E-01
    -19.323  0.0000E+00  0.0000E+00  0.6061E-01  0.6061E-01
    -19.161  0.0000E+00  0.0000E+00  0.6061E-01  0.6061E-01
    -19.000  0.0000E+00  0.0000E+00  0.6061E-01  0.6061E-01
    -18.839  0.0000E+00  0.0000E+00  0.6061E-01  0.6061E-01
    -18.677  0.0000E+00  0.0000E+00  0.6061E-01  0.6061E-01
    -18.516  0.0000E+00  0.0000E+00  0.6061E-01  0.6061E-01
    -18.355  0.0000E+00  0.0000E+00  0.6061E-01  0.6061E-01
    -18.193  0.0000E+00  0.0000E+00  0.6061E-01  0.6061E-01
    -18.032  0.0000E+00  0.0000E+00  0.6061E-01  0.6061E-01
    -17.871  0.0000E+00  0.0000E+00  0.6061E-01  0.6061E-01
    -17.709  0.0000E+00  0.0000E+00  0.6061E-01  0.6061E-01
    -17.548  0.0000E+00  0.0000E+00  0.6061E-01  0.6061E-01
    -17.387  0.0000E+00  0.0000E+00  0.6061E-01  0.6061E-01
    -17.225  0.0000E+00  0.0000E+00  0.6061E-01  0.6061E-01
    -17.064  0.0000E+00  0.0000E+00  0.6061E-01  0.6061E-01
    -16.903  0.0000E+00  0.0000E+00  0.6061E-01  0.6061E-01
    -16.741  0.0000E+00  0.0000E+00  0.6061E-01  0.6061E-01
    -16.580  0.0000E+00  0.0000E+00  0.6061E-01  0.6061E-01
    -16.419  0.0000E+00  0.0000E+00  0.6061E-01  0.6061E-01
    -16.257  0.0000E+00  0.0000E+00  0.6061E-01  0.6061E-01
    -16.096  0.0000E+00  0.0000E+00  0.6061E-01  0.6061E-01
    -15.935  0.0000E+00  0.0000E+00  0.6061E-01  0.6061E-01
    -15.773  0.0000E+00  0.0000E+00  0.6061E-01  0.6061E-01
    -15.612  0.1448E+00  0.1489E+00  0.6890E-01  0.6839E-01
    -15.451  0.3253E+00  0.2224E+00  0.8812E-01  0.8582E-01
    -15.289  0.1503E+00  0.1520E+00  0.1165E+00  0.1160E+00
    -15.128  0.0000E+00  0.0000E+00  0.1212E+00  0.1212E+00
    -14.967  0.0000E+00  0.0000E+00  0.1212E+00  0.1212E+00
    -14.806  0.0000E+00  0.0000E+00  0.1515E+00  0.1515E+00
    -14.644  0.0000E+00  0.0000E+00  0.1515E+00  0.1515E+00
    -14.483  0.0000E+00  0.0000E+00  0.1515E+00  0.1515E+00
    -14.322  0.0000E+00  0.0000E+00  0.1515E+00  0.1515E+00
    -14.160  0.0000E+00  0.0000E+00  0.1515E+00  0.1515E+00
    -13.999  0.0000E+00  0.0000E+00  0.1515E+00  0.1515E+00
    -13.838  0.0000E+00  0.0000E+00  0.1515E+00  0.1515E+00
    -13.676  0.0000E+00  0.0000E+00  0.1515E+00  0.1515E+00
    -13.515  0.0000E+00  0.0000E+00  0.1515E+00  0.1515E+00
    -13.354  0.0000E+00  0.0000E+00  0.1515E+00  0.1515E+00
    -13.192  0.0000E+00  0.0000E+00  0.1515E+00  0.1515E+00
    -13.031  0.0000E+00  0.0000E+00  0.1515E+00  0.1515E+00
    -12.870  0.0000E+00  0.0000E+00  0.1515E+00  0.1515E+00
    -12.708  0.0000E+00  0.0000E+00  0.1515E+00  0.1515E+00
    -12.547  0.0000E+00  0.0000E+00  0.1515E+00  0.1515E+00
    -12.386  0.0000E+00  0.0000E+00  0.1515E+00  0.1515E+00
    -12.224  0.0000E+00  0.0000E+00  0.1515E+00  0.1515E+00
    -12.063  0.0000E+00  0.0000E+00  0.1515E+00  0.1515E+00
    -11.902  0.0000E+00  0.0000E+00  0.1515E+00  0.1515E+00
    -11.740  0.0000E+00  0.0000E+00  0.1515E+00  0.1515E+00
    -11.579  0.0000E+00  0.0000E+00  0.1515E+00  0.1515E+00
    -11.418  0.0000E+00  0.0000E+00  0.1515E+00  0.1515E+00
    -11.256  0.0000E+00  0.0000E+00  0.1515E+00  0.1515E+00
    -11.095  0.0000E+00  0.0000E+00  0.1515E+00  0.1515E+00
    -10.934  0.0000E+00  0.0000E+00  0.1515E+00  0.1515E+00
    -10.772  0.0000E+00  0.0000E+00  0.1515E+00  0.1515E+00
    -10.611  0.0000E+00  0.0000E+00  0.1515E+00  0.1515E+00
    -10.450  0.0000E+00  0.0000E+00  0.1515E+00  0.1515E+00
    -10.288  0.0000E+00  0.0000E+00  0.1515E+00  0.1515E+00
    -10.127  0.0000E+00  0.0000E+00  0.1515E+00  0.1515E+00
     -9.966  0.0000E+00  0.0000E+00  0.1515E+00  0.1515E+00
     -9.805  0.0000E+00  0.0000E+00  0.1515E+00  0.1515E+00
     -9.643  0.0000E+00  0.0000E+00  0.1515E+00  0.1515E+00
     -9.482  0.0000E+00  0.0000E+00  0.1515E+00  0.1515E+00
     -9.321  0.0000E+00  0.0000E+00  0.1515E+00  0.1515E+00
     -9.159  0.0000E+00  0.0000E+00  0.1515E+00  0.1515E+00
     -8.998  0.0000E+00  0.0000E+00  0.1515E+00  0.1515E+00
     -8.837  0.0000E+00  0.0000E+00  0.1515E+00  0.1515E+00
     -8.675  0.0000E+00  0.0000E+00  0.1515E+00  0.1515E+00
     -8.514  0.0000E+00  0.0000E+00  0.1515E+00  0.1515E+00
     -8.353  0.0000E+00  0.0000E+00  0.1515E+00  0.1515E+00
     -8.191  0.0000E+00  0.0000E+00  0.1515E+00  0.1515E+00
     -8.030  0.0000E+00  0.0000E+00  0.1515E+00  0.1515E+00
     -7.869  0.0000E+00  0.0000E+00  0.1515E+00  0.1515E+00
     -7.707  0.0000E+00  0.0000E+00  0.1515E+00  0.1515E+00
     -7.546  0.0000E+00  0.0000E+00  0.1515E+00  0.1515E+00
     -7.385  0.0000E+00  0.0000E+00  0.1515E+00  0.1515E+00
     -7.223  0.0000E+00  0.0000E+00  0.1515E+00  0.1515E+00
     -7.062  0.0000E+00  0.0000E+00  0.1515E+00  0.1515E+00
     -6.901  0.0000E+00  0.0000E+00  0.1515E+00  0.1515E+00
     -6.739  0.0000E+00  0.0000E+00  0.1515E+00  0.1515E+00
     -6.578  0.0000E+00  0.0000E+00  0.1515E+00  0.1515E+00
     -6.417  0.0000E+00  0.0000E+00  0.1515E+00  0.1515E+00
     -6.255  0.0000E+00  0.0000E+00  0.1515E+00  0.1515E+00
     -6.094  0.0000E+00  0.0000E+00  0.1515E+00  0.1515E+00
     -5.933  0.0000E+00  0.0000E+00  0.1515E+00  0.1515E+00
     -5.771  0.0000E+00  0.0000E+00  0.1515E+00  0.1515E+00
     -5.610  0.0000E+00  0.0000E+00  0.1515E+00  0.1515E+00
     -5.449  0.0000E+00  0.0000E+00  0.1515E+00  0.1515E+00
     -5.287  0.0000E+00  0.0000E+00  0.1515E+00  0.1515E+00
     -5.126  0.3761E-03  0.3417E-04  0.1515E+00  0.1515E+00
     -4.965  0.1873E-02  0.8699E-03  0.1517E+00  0.1516E+00
     -4.803  0.4311E-02  0.2801E-02  0.1522E+00  0.1519E+00
     -4.642  0.6552E-02  0.5237E-02  0.1531E+00  0.1525E+00
     -4.481  0.8589E-02  0.7211E-02  0.1543E+00  0.1535E+00
     -4.320  0.1314E-01  0.9330E-02  0.1560E+00  0.1548E+00
     -4.158  0.1647E-01  0.1431E-01  0.1584E+00  0.1568E+00
     -3.997  0.1036E-01  0.1477E-01  0.1607E+00  0.1592E+00
     -3.836  0.0000E+00  0.8103E-02  0.1616E+00  0.1610E+00
     -3.674  0.0000E+00  0.0000E+00  0.1616E+00  0.1616E+00
     -3.513  0.0000E+00  0.0000E+00  0.1616E+00  0.1616E+00
     -3.352  0.0000E+00  0.0000E+00  0.1616E+00  0.1616E+00
     -3.190  0.0000E+00  0.0000E+00  0.1616E+00  0.1616E+00
     -3.029  0.1077E-02  0.4068E-05  0.1616E+00  0.1616E+00
     -2.868  0.1413E-01  0.1106E-01  0.1631E+00  0.1626E+00
     -2.706  0.2593E-01  0.3012E-01  0.1671E+00  0.1658E+00
     -2.545  0.9899E-02  0.1447E-01  0.1701E+00  0.1695E+00
     -2.384  0.2364E-01  0.1203E-01  0.1720E+00  0.1711E+00
     -2.222  0.3517E-01  0.4085E-01  0.1779E+00  0.1756E+00
     -2.061  0.1883E-01  0.1727E-01  0.1815E+00  0.1807E+00
     -1.900  0.3066E-01  0.4621E-01  0.1879E+00  0.1852E+00
     -1.738  0.7299E-01  0.2091E-01  0.1947E+00  0.1901E+00
     -1.577  0.1793E-01  0.2841E-01  0.2009E+00  0.1991E+00
     -1.416  0.8944E-01  0.1310E-01  0.2074E+00  0.2019E+00
     -1.254  0.4515E-01  0.3165E-01  0.2139E+00  0.2111E+00
     -1.093  0.1151E-01  0.8268E-01  0.2220E+00  0.2185E+00
     -0.932  0.2082E-01  0.2152E-02  0.2229E+00  0.2223E+00
     -0.770  0.2289E-01  0.7578E-01  0.2310E+00  0.2271E+00
     -0.609  0.1555E-01  0.4389E-02  0.2326E+00  0.2322E+00
     -0.448  0.5222E-01  0.2702E-01  0.2374E+00  0.2342E+00
     -0.286  0.1151E-01  0.2282E-01  0.2417E+00  0.2398E+00
     -0.125  0.1198E-01  0.8586E-02  0.2430E+00  0.2421E+00
      0.036  0.3902E-01  0.2681E-01  0.2475E+00  0.2440E+00
      0.198  0.1415E-01  0.3231E-01  0.2520E+00  0.2499E+00
      0.359  0.0000E+00  0.0000E+00  0.2525E+00  0.2525E+00
      0.520  0.0000E+00  0.0000E+00  0.2525E+00  0.2525E+00
      0.682  0.0000E+00  0.0000E+00  0.2525E+00  0.2525E+00
      0.843  0.0000E+00  0.0000E+00  0.2525E+00  0.2525E+00
      1.004  0.0000E+00  0.0000E+00  0.2525E+00  0.2525E+00
      1.165  0.0000E+00  0.0000E+00  0.2525E+00  0.2525E+00
      1.327  0.0000E+00  0.0000E+00  0.2525E+00  0.2525E+00
      1.488  0.0000E+00  0.0000E+00  0.2525E+00  0.2525E+00
      1.649  0.0000E+00  0.0000E+00  0.2525E+00  0.2525E+00
      1.811  0.1593E-01  0.0000E+00  0.2528E+00  0.2525E+00
      1.972  0.2586E-01  0.0000E+00  0.2575E+00  0.2525E+00
      2.133  0.1665E-01  0.0000E+00  0.2617E+00  0.2525E+00
      2.295  0.0000E+00  0.0000E+00  0.2626E+00  0.2525E+00
      2.456  0.0000E+00  0.0000E+00  0.2626E+00  0.2525E+00
      2.617  0.0000E+00  0.0000E+00  0.2626E+00  0.2525E+00
      2.779  0.0000E+00  0.3107E-02  0.2626E+00  0.2526E+00
      2.940  0.0000E+00  0.2598E-01  0.2626E+00  0.2557E+00
      3.101  0.0000E+00  0.2687E-01  0.2626E+00  0.2593E+00
      3.263  0.3431E-04  0.9423E-02  0.2626E+00  0.2624E+00
      3.424  0.1597E-01  0.0000E+00  0.2635E+00  0.2626E+00
      3.585  0.4091E-01  0.1223E-01  0.2682E+00  0.2631E+00
      3.747  0.1359E-01  0.3005E-01  0.2720E+00  0.2690E+00
      3.908  0.8093E-02  0.1519E-01  0.2737E+00  0.2724E+00
      4.069  0.2325E-01  0.8671E-02  0.2759E+00  0.2739E+00
      4.231  0.2768E-01  0.2664E-01  0.2803E+00  0.2768E+00
      4.392  0.3004E-01  0.2951E-01  0.2848E+00  0.2812E+00
      4.553  0.3023E-01  0.3538E-01  0.2898E+00  0.2864E+00
      4.715  0.7033E-02  0.2664E-01  0.2929E+00  0.2915E+00
      4.876  0.4980E-01  0.4502E-02  0.2965E+00  0.2930E+00
      5.037  0.2405E-01  0.4636E-01  0.3018E+00  0.2978E+00
      5.199  0.4249E-01  0.2097E-01  0.3049E+00  0.3025E+00
      5.360  0.2900E-01  0.4309E-01  0.3114E+00  0.3071E+00
      5.521  0.8377E-02  0.1729E-01  0.3136E+00  0.3122E+00
      5.683  0.2650E-01  0.4108E-01  0.3183E+00  0.3149E+00
      5.844  0.2855E-01  0.2522E-01  0.3236E+00  0.3197E+00
      6.005  0.3358E-01  0.4395E-01  0.3300E+00  0.3264E+00
      6.167  0.3591E-01  0.3328E-01  0.3348E+00  0.3319E+00
      6.328  0.2427E-01  0.3202E-01  0.3400E+00  0.3377E+00
      6.489  0.3617E-01  0.2706E-01  0.3447E+00  0.3415E+00
      6.650  0.3053E-01  0.4384E-01  0.3508E+00  0.3472E+00
      6.812  0.5322E-01  0.3596E-01  0.3577E+00  0.3531E+00
      6.973  0.2054E-01  0.2907E-01  0.3626E+00  0.3607E+00
      7.134  0.3778E-01  0.2798E-01  0.3677E+00  0.3640E+00
      7.296  0.2021E-01  0.3327E-01  0.3721E+00  0.3696E+00
      7.457  0.4481E-01  0.3477E-01  0.3783E+00  0.3742E+00
      7.618  0.1879E-01  0.2891E-01  0.3824E+00  0.3807E+00
      7.780  0.4438E-01  0.4255E-01  0.3891E+00  0.3849E+00
      7.941  0.4572E-01  0.2782E-01  0.3950E+00  0.3917E+00
      8.102  0.2424E-01  0.5003E-01  0.4021E+00  0.3992E+00
      8.264  0.5310E-01  0.5638E-01  0.4085E+00  0.4048E+00
      8.425  0.3296E-01  0.4339E-01  0.4157E+00  0.4135E+00
      8.586  0.2529E-01  0.4345E-01  0.4221E+00  0.4198E+00
      8.748  0.6772E-01  0.2206E-01  0.4270E+00  0.4239E+00
      8.909  0.1370E-01  0.3217E-01  0.4336E+00  0.4323E+00
      9.070  0.5683E-01  0.5314E-01  0.4395E+00  0.4364E+00
      9.232  0.2431E-01  0.2258E-01  0.4451E+00  0.4436E+00
      9.393  0.3399E-01  0.4737E-01  0.4511E+00  0.4478E+00
      9.554  0.4083E-01  0.4089E-01  0.4572E+00  0.4547E+00
      9.716  0.2492E-01  0.3544E-01  0.4636E+00  0.4619E+00
      9.877  0.3541E-01  0.2552E-01  0.4675E+00  0.4657E+00
     10.038  0.4031E-01  0.3675E-01  0.4733E+00  0.4712E+00
     10.200  0.3986E-01  0.2175E-01  0.4778E+00  0.4755E+00
     10.361  0.2181E-01  0.3396E-01  0.4835E+00  0.4812E+00
     10.522  0.0000E+00  0.1092E-01  0.4848E+00  0.4845E+00
     10.684  0.0000E+00  0.0000E+00  0.4848E+00  0.4848E+00
     10.845  0.0000E+00  0.0000E+00  0.4848E+00  0.4848E+00
     11.006  0.0000E+00  0.0000E+00  0.4848E+00  0.4848E+00
     11.168  0.0000E+00  0.0000E+00  0.4848E+00  0.4848E+00
     11.329  0.0000E+00  0.0000E+00  0.4848E+00  0.4848E+00
     11.490  0.0000E+00  0.0000E+00  0.4848E+00  0.4848E+00
     11.651  0.0000E+00  0.0000E+00  0.4848E+00  0.4848E+00
     11.813  0.0000E+00  0.0000E+00  0.4848E+00  0.4848E+00
     11.974  0.0000E+00  0.0000E+00  0.4848E+00  0.4848E+00
     12.135  0.0000E+00  0.0000E+00  0.4848E+00  0.4848E+00
     12.297  0.0000E+00  0.0000E+00  0.4848E+00  0.4848E+00
     12.458  0.0000E+00  0.0000E+00  0.4848E+00  0.4848E+00
     12.619  0.0000E+00  0.0000E+00  0.4848E+00  0.4848E+00
     12.781  0.0000E+00  0.0000E+00  0.4848E+00  0.4848E+00
     12.78075739    -35.61623149  301      2.33507396      1.00000000
    -35.616  0.0000E+00  0.0000E+00  0.0000E+00  0.0000E+00  0.0000E+00  0.0000E+00  0.0000E+00  0.0000E+00  0.0000E+00  0.0000E+00  0.0000E+00  0.0000E+00  0.0000E+00  0.0000E+00  0.0000E+00  0.0000E+00  0.0000E+00  0.0000E+00
    -35.455  0.0000E+00  0.0000E+00  0.0000E+00  0.0000E+00  0.0000E+00  0.0000E+00  0.0000E+00  0.0000E+00  0.0000E+00  0.0000E+00  0.0000E+00  0.0000E+00  0.0000E+00  0.0000E+00  0.0000E+00  0.0000E+00  0.0000E+00  0.0000E+00
    -35.294  0.0000E+00  0.0000E+00  0.0000E+00  0.0000E+00  0.0000E+00  0.0000E+00  0.0000E+00  0.0000E+00  0.0000E+00  0.0000E+00  0.0000E+00  0.0000E+00  0.0000E+00  0.0000E+00  0.0000E+00  0.0000E+00  0.0000E+00  0.0000E+00
    -35.132  0.0000E+00  0.0000E+00  0.0000E+00  0.0000E+00  0.0000E+00  0.0000E+00  0.0000E+00  0.0000E+00  0.0000E+00  0.0000E+00  0.0000E+00  0.0000E+00  0.0000E+00  0.0000E+00  0.0000E+00  0.0000E+00  0.0000E+00  0.0000E+00
    -34.971  0.0000E+00  0.0000E+00  0.0000E+00  0.0000E+00  0.0000E+00  0.0000E+00  0.0000E+00  0.0000E+00  0.0000E+00  0.0000E+00  0.0000E+00  0.0000E+00  0.0000E+00  0.0000E+00  0.0000E+00  0.0000E+00  0.0000E+00  0.0000E+00
    -34.810  0.0000E+00  0.0000E+00  0.0000E+00  0.0000E+00  0.0000E+00  0.0000E+00  0.0000E+00  0.0000E+00  0.0000E+00  0.0000E+00  0.0000E+00  0.0000E+00  0.0000E+00  0.0000E+00  0.0000E+00  0.0000E+00  0.0000E+00  0.0000E+00
    -34.648  0.0000E+00  0.0000E+00  0.0000E+00  0.0000E+00  0.0000E+00  0.0000E+00  0.0000E+00  0.0000E+00  0.0000E+00  0.0000E+00  0.0000E+00  0.0000E+00  0.0000E+00  0.0000E+00  0.0000E+00  0.0000E+00  0.0000E+00  0.0000E+00
    -34.487  0.0000E+00  0.0000E+00  0.0000E+00  0.0000E+00  0.0000E+00  0.0000E+00  0.0000E+00  0.0000E+00  0.0000E+00  0.0000E+00  0.0000E+00  0.0000E+00  0.0000E+00  0.0000E+00  0.0000E+00  0.0000E+00  0.0000E+00  0.0000E+00
    -34.326  0.0000E+00  0.0000E+00  0.0000E+00  0.0000E+00  0.0000E+00  0.0000E+00  0.0000E+00  0.0000E+00  0.0000E+00  0.0000E+00  0.0000E+00  0.0000E+00  0.0000E+00  0.0000E+00  0.0000E+00  0.0000E+00  0.0000E+00  0.0000E+00
    -34.164  0.0000E+00  0.0000E+00  0.0000E+00  0.0000E+00  0.0000E+00  0.0000E+00  0.0000E+00  0.0000E+00  0.0000E+00  0.0000E+00  0.0000E+00  0.0000E+00  0.0000E+00  0.0000E+00  0.0000E+00  0.0000E+00  0.0000E+00  0.0000E+00
    -34.003  0.0000E+00  0.0000E+00  0.0000E+00  0.0000E+00  0.0000E+00  0.0000E+00  0.0000E+00  0.0000E+00  0.0000E+00  0.0000E+00  0.0000E+00  0.0000E+00  0.0000E+00  0.0000E+00  0.0000E+00  0.0000E+00  0.0000E+00  0.0000E+00
    -33.842  0.0000E+00  0.0000E+00  0.0000E+00  0.0000E+00  0.0000E+00  0.0000E+00  0.0000E+00  0.0000E+00  0.0000E+00  0.0000E+00  0.0000E+00  0.0000E+00  0.0000E+00  0.0000E+00  0.0000E+00  0.0000E+00  0.0000E+00  0.0000E+00
    -33.680  0.0000E+00  0.0000E+00  0.0000E+00  0.0000E+00  0.0000E+00  0.0000E+00  0.0000E+00  0.0000E+00  0.0000E+00  0.0000E+00  0.0000E+00  0.0000E+00  0.0000E+00  0.0000E+00  0.0000E+00  0.0000E+00  0.0000E+00  0.0000E+00
    -33.519  0.0000E+00  0.0000E+00  0.0000E+00  0.0000E+00  0.0000E+00  0.0000E+00  0.0000E+00  0.0000E+00  0.0000E+00  0.0000E+00  0.0000E+00  0.0000E+00  0.0000E+00  0.0000E+00  0.0000E+00  0.0000E+00  0.0000E+00  0.0000E+00
    -33.358  0.0000E+00  0.0000E+00  0.0000E+00  0.0000E+00  0.0000E+00  0.0000E+00  0.0000E+00  0.0000E+00  0.0000E+00  0.0000E+00  0.0000E+00  0.0000E+00  0.0000E+00  0.0000E+00  0.0000E+00  0.0000E+00  0.0000E+00  0.0000E+00
    -33.196  0.0000E+00  0.0000E+00  0.0000E+00  0.0000E+00  0.0000E+00  0.0000E+00  0.0000E+00  0.0000E+00  0.0000E+00  0.0000E+00  0.0000E+00  0.0000E+00  0.0000E+00  0.0000E+00  0.0000E+00  0.0000E+00  0.0000E+00  0.0000E+00
    -33.035  0.0000E+00  0.0000E+00  0.0000E+00  0.0000E+00  0.0000E+00  0.0000E+00  0.0000E+00  0.0000E+00  0.0000E+00  0.0000E+00  0.0000E+00  0.0000E+00  0.0000E+00  0.0000E+00  0.0000E+00  0.0000E+00  0.0000E+00  0.0000E+00
    -32.874  0.0000E+00  0.0000E+00  0.0000E+00  0.0000E+00  0.0000E+00  0.0000E+00  0.0000E+00  0.0000E+00  0.0000E+00  0.0000E+00  0.0000E+00  0.0000E+00  0.0000E+00  0.0000E+00  0.0000E+00  0.0000E+00  0.0000E+00  0.0000E+00
    -32.712  0.0000E+00  0.0000E+00  0.0000E+00  0.0000E+00  0.0000E+00  0.0000E+00  0.0000E+00  0.0000E+00  0.0000E+00  0.0000E+00  0.0000E+00  0.0000E+00  0.0000E+00  0.0000E+00  0.0000E+00  0.0000E+00  0.0000E+00  0.0000E+00
    -32.551  0.0000E+00  0.0000E+00  0.0000E+00  0.0000E+00  0.0000E+00  0.0000E+00  0.0000E+00  0.0000E+00  0.0000E+00  0.0000E+00  0.0000E+00  0.0000E+00  0.0000E+00  0.0000E+00  0.0000E+00  0.0000E+00  0.0000E+00  0.0000E+00
    -32.390  0.0000E+00  0.0000E+00  0.0000E+00  0.0000E+00  0.0000E+00  0.0000E+00  0.0000E+00  0.0000E+00  0.0000E+00  0.0000E+00  0.0000E+00  0.0000E+00  0.0000E+00  0.0000E+00  0.0000E+00  0.0000E+00  0.0000E+00  0.0000E+00
    -32.228  0.0000E+00  0.0000E+00  0.0000E+00  0.0000E+00  0.0000E+00  0.0000E+00  0.0000E+00  0.0000E+00  0.0000E+00  0.0000E+00  0.0000E+00  0.0000E+00  0.0000E+00  0.0000E+00  0.0000E+00  0.0000E+00  0.0000E+00  0.0000E+00
    -32.067  0.0000E+00  0.0000E+00  0.0000E+00  0.0000E+00  0.0000E+00  0.0000E+00  0.0000E+00  0.0000E+00  0.0000E+00  0.0000E+00  0.0000E+00  0.0000E+00  0.0000E+00  0.0000E+00  0.0000E+00  0.0000E+00  0.0000E+00  0.0000E+00
    -31.906  0.0000E+00  0.0000E+00  0.0000E+00  0.0000E+00  0.0000E+00  0.0000E+00  0.0000E+00  0.0000E+00  0.0000E+00  0.0000E+00  0.0000E+00  0.0000E+00  0.0000E+00  0.0000E+00  0.0000E+00  0.0000E+00  0.0000E+00  0.0000E+00
    -31.744  0.0000E+00  0.0000E+00  0.0000E+00  0.0000E+00  0.0000E+00  0.0000E+00  0.0000E+00  0.0000E+00  0.0000E+00  0.0000E+00  0.0000E+00  0.0000E+00  0.0000E+00  0.0000E+00  0.0000E+00  0.0000E+00  0.0000E+00  0.0000E+00
    -31.583  0.0000E+00  0.0000E+00  0.0000E+00  0.0000E+00  0.0000E+00  0.0000E+00  0.0000E+00  0.0000E+00  0.0000E+00  0.0000E+00  0.0000E+00  0.0000E+00  0.0000E+00  0.0000E+00  0.0000E+00  0.0000E+00  0.0000E+00  0.0000E+00
    -31.422  0.0000E+00  0.0000E+00  0.0000E+00  0.0000E+00  0.0000E+00  0.0000E+00  0.0000E+00  0.0000E+00  0.0000E+00  0.0000E+00  0.0000E+00  0.0000E+00  0.0000E+00  0.0000E+00  0.0000E+00  0.0000E+00  0.0000E+00  0.0000E+00
    -31.261  0.0000E+00  0.0000E+00  0.0000E+00  0.0000E+00  0.0000E+00  0.0000E+00  0.0000E+00  0.0000E+00  0.0000E+00  0.0000E+00  0.0000E+00  0.0000E+00  0.0000E+00  0.0000E+00  0.0000E+00  0.0000E+00  0.0000E+00  0.0000E+00
    -31.099  0.0000E+00  0.0000E+00  0.0000E+00  0.0000E+00  0.0000E+00  0.0000E+00  0.0000E+00  0.0000E+00  0.0000E+00  0.0000E+00  0.0000E+00  0.0000E+00  0.0000E+00  0.0000E+00  0.0000E+00  0.0000E+00  0.0000E+00  0.0000E+00
    -30.938  0.0000E+00  0.0000E+00  0.0000E+00  0.0000E+00  0.0000E+00  0.0000E+00  0.0000E+00  0.0000E+00  0.0000E+00  0.0000E+00  0.0000E+00  0.0000E+00  0.0000E+00  0.0000E+00  0.0000E+00  0.0000E+00  0.0000E+00  0.0000E+00
    -30.777  0.0000E+00  0.0000E+00  0.0000E+00  0.0000E+00  0.0000E+00  0.0000E+00  0.0000E+00  0.0000E+00  0.0000E+00  0.0000E+00  0.0000E+00  0.0000E+00  0.0000E+00  0.0000E+00  0.0000E+00  0.0000E+00  0.0000E+00  0.0000E+00
    -30.615  0.0000E+00  0.0000E+00  0.0000E+00  0.0000E+00  0.0000E+00  0.0000E+00  0.0000E+00  0.0000E+00  0.0000E+00  0.0000E+00  0.0000E+00  0.0000E+00  0.0000E+00  0.0000E+00  0.0000E+00  0.0000E+00  0.0000E+00  0.0000E+00
    -30.454  0.0000E+00  0.0000E+00  0.0000E+00  0.0000E+00  0.0000E+00  0.0000E+00  0.0000E+00  0.0000E+00  0.0000E+00  0.0000E+00  0.0000E+00  0.0000E+00  0.0000E+00  0.0000E+00  0.0000E+00  0.0000E+00  0.0000E+00  0.0000E+00
    -30.293  0.0000E+00  0.0000E+00  0.0000E+00  0.0000E+00  0.0000E+00  0.0000E+00  0.0000E+00  0.0000E+00  0.0000E+00  0.0000E+00  0.0000E+00  0.0000E+00  0.0000E+00  0.0000E+00  0.0000E+00  0.0000E+00  0.0000E+00  0.0000E+00
    -30.131  0.0000E+00  0.0000E+00  0.0000E+00  0.0000E+00  0.0000E+00  0.0000E+00  0.0000E+00  0.0000E+00  0.0000E+00  0.0000E+00  0.0000E+00  0.0000E+00  0.0000E+00  0.0000E+00  0.0000E+00  0.0000E+00  0.0000E+00  0.0000E+00
    -29.970  0.0000E+00  0.0000E+00  0.0000E+00  0.0000E+00  0.0000E+00  0.0000E+00  0.0000E+00  0.0000E+00  0.0000E+00  0.0000E+00  0.0000E+00  0.0000E+00  0.0000E+00  0.0000E+00  0.0000E+00  0.0000E+00  0.0000E+00  0.0000E+00
    -29.809  0.0000E+00  0.0000E+00  0.0000E+00  0.0000E+00  0.0000E+00  0.0000E+00  0.0000E+00  0.0000E+00  0.0000E+00  0.0000E+00  0.0000E+00  0.0000E+00  0.0000E+00  0.0000E+00  0.0000E+00  0.0000E+00  0.0000E+00  0.0000E+00
    -29.647  0.0000E+00  0.0000E+00  0.0000E+00  0.0000E+00  0.0000E+00  0.0000E+00  0.0000E+00  0.0000E+00  0.0000E+00  0.0000E+00  0.0000E+00  0.0000E+00  0.0000E+00  0.0000E+00  0.0000E+00  0.0000E+00  0.0000E+00  0.0000E+00
    -29.486  0.0000E+00  0.0000E+00  0.0000E+00  0.0000E+00  0.0000E+00  0.0000E+00  0.0000E+00  0.0000E+00  0.0000E+00  0.0000E+00  0.0000E+00  0.0000E+00  0.0000E+00  0.0000E+00  0.0000E+00  0.0000E+00  0.0000E+00  0.0000E+00
    -29.325  0.0000E+00  0.0000E+00  0.0000E+00  0.0000E+00  0.0000E+00  0.0000E+00  0.0000E+00  0.0000E+00  0.0000E+00  0.0000E+00  0.0000E+00  0.0000E+00  0.0000E+00  0.0000E+00  0.0000E+00  0.0000E+00  0.0000E+00  0.0000E+00
    -29.163  0.0000E+00  0.0000E+00  0.0000E+00  0.0000E+00  0.0000E+00  0.0000E+00  0.0000E+00  0.0000E+00  0.0000E+00  0.0000E+00  0.0000E+00  0.0000E+00  0.0000E+00  0.0000E+00  0.0000E+00  0.0000E+00  0.0000E+00  0.0000E+00
    -29.002  0.0000E+00  0.0000E+00  0.0000E+00  0.0000E+00  0.0000E+00  0.0000E+00  0.0000E+00  0.0000E+00  0.0000E+00  0.0000E+00  0.0000E+00  0.0000E+00  0.0000E+00  0.0000E+00  0.0000E+00  0.0000E+00  0.0000E+00  0.0000E+00
    -28.841  0.0000E+00  0.0000E+00  0.0000E+00  0.0000E+00  0.0000E+00  0.0000E+00  0.0000E+00  0.0000E+00  0.0000E+00  0.0000E+00  0.0000E+00  0.0000E+00  0.0000E+00  0.0000E+00  0.0000E+00  0.0000E+00  0.0000E+00  0.0000E+00
    -28.679  0.0000E+00  0.0000E+00  0.0000E+00  0.0000E+00  0.0000E+00  0.0000E+00  0.0000E+00  0.0000E+00  0.0000E+00  0.0000E+00  0.0000E+00  0.0000E+00  0.0000E+00  0.0000E+00  0.0000E+00  0.0000E+00  0.0000E+00  0.0000E+00
    -28.518  0.0000E+00  0.0000E+00  0.0000E+00  0.0000E+00  0.0000E+00  0.0000E+00  0.0000E+00  0.0000E+00  0.0000E+00  0.0000E+00  0.0000E+00  0.0000E+00  0.0000E+00  0.0000E+00  0.0000E+00  0.0000E+00  0.0000E+00  0.0000E+00
    -28.357  0.0000E+00  0.0000E+00  0.0000E+00  0.0000E+00  0.0000E+00  0.0000E+00  0.0000E+00  0.0000E+00  0.0000E+00  0.0000E+00  0.0000E+00  0.0000E+00  0.0000E+00  0.0000E+00  0.0000E+00  0.0000E+00  0.0000E+00  0.0000E+00
    -28.195  0.0000E+00  0.0000E+00  0.0000E+00  0.0000E+00  0.0000E+00  0.0000E+00  0.0000E+00  0.0000E+00  0.0000E+00  0.0000E+00  0.0000E+00  0.0000E+00  0.0000E+00  0.0000E+00  0.0000E+00  0.0000E+00  0.0000E+00  0.0000E+00
    -28.034  0.0000E+00  0.0000E+00  0.0000E+00  0.0000E+00  0.0000E+00  0.0000E+00  0.0000E+00  0.0000E+00  0.0000E+00  0.0000E+00  0.0000E+00  0.0000E+00  0.0000E+00  0.0000E+00  0.0000E+00  0.0000E+00  0.0000E+00  0.0000E+00
    -27.873  0.0000E+00  0.0000E+00  0.0000E+00  0.0000E+00  0.0000E+00  0.0000E+00  0.0000E+00  0.0000E+00  0.0000E+00  0.0000E+00  0.0000E+00  0.0000E+00  0.0000E+00  0.0000E+00  0.0000E+00  0.0000E+00  0.0000E+00  0.0000E+00
    -27.711  0.0000E+00  0.0000E+00  0.0000E+00  0.0000E+00  0.0000E+00  0.0000E+00  0.0000E+00  0.0000E+00  0.0000E+00  0.0000E+00  0.0000E+00  0.0000E+00  0.0000E+00  0.0000E+00  0.0000E+00  0.0000E+00  0.0000E+00  0.0000E+00
    -27.550  0.0000E+00  0.0000E+00  0.0000E+00  0.0000E+00  0.0000E+00  0.0000E+00  0.0000E+00  0.0000E+00  0.0000E+00  0.0000E+00  0.0000E+00  0.0000E+00  0.0000E+00  0.0000E+00  0.0000E+00  0.0000E+00  0.0000E+00  0.0000E+00