   15   15   99    2
  0.5903622E+01  0.2868935E-09  0.4612059E-09  0.7131494E-09  0.5000000E-15
  1.000000000000000E-004
  CAR 
 unknown system                          
     15     61     32
 
  0.3742002E-15  0.3742002E-15  0.3742002E-15  0.8333333E-02
    1      -11.793702    -11.793616   1.000000   1.000000
    2      -10.396349    -10.396117   1.000000   1.000000
    3       -9.385869     -9.385423   1.000000   1.000000
    4       -9.120652     -9.120556   1.000000   1.000000
    5       -8.461900     -8.461892   1.000000   1.000000
    6       -8.135676     -8.135609   1.000000   1.000000
    7       -8.020205     -8.020165   1.000000   1.000000
    8        1.691613      1.694283   0.000000   0.000000
    9        2.175846      2.177107   0.000000   0.000000
   10        2.457331      2.468031   0.000000   0.000000
   11        3.163521      3.164179   0.000000   0.000000
   12        3.956119      3.964706   0.000000   0.000000
   13        4.295411      4.295973   0.000000   0.000000
   14        4.316501      4.316694   0.000000   0.000000
   15        4.620634      4.620936   0.000000   0.000000
   16        5.905644      5.905682   0.000000   0.000000
   17        6.736044      6.736592   0.000000   0.000000
   18        7.061459      7.074879   0.000000   0.000000
   19        8.310954      8.310224   0.000000   0.000000
   20        8.829058      8.829261   0.000000   0.000000
   21        9.131044      9.131693   0.000000   0.000000
   22        9.507268      9.507780   0.000000   0.000000
   23       10.145004     10.146427   0.000000   0.000000
   24       10.418290     10.420257   0.000000   0.000000
   25       10.883575     10.887210   0.000000   0.000000
   26       11.677756     11.677648   0.000000   0.000000
   27       12.027764     12.028723   0.000000   0.000000
   28       12.091735     12.091166   0.000000   0.000000
   29       13.456037     13.457786   0.000000   0.000000
   30       13.696598     13.697119   0.000000   0.000000
   31       14.255437     14.256511   0.000000   0.000000
   32       15.012519     15.012756   0.000000   0.000000
 
  0.1250000E+00  0.3634246E-15  0.3955170E-15  0.1666667E-01
    1      -11.548087    -11.548002   1.000000   1.000000
    2      -10.224151    -10.223935   1.000000   1.000000
    3       -9.251473     -9.251082   1.000000   1.000000
    4       -9.000378     -9.000272   1.000000   1.000000
    5       -8.385888     -8.385869   1.000000   1.000000
    6       -8.143979     -8.143910   1.000000   1.000000
    7       -7.906655     -7.906599   1.000000   1.000000
    8        0.603184      0.603215   0.000000   0.000000
    9        1.921196      1.923591   0.000000   0.000000
   10        2.335081      2.337236   0.000000   0.000000
   11        2.554409      2.564315   0.000000   0.000000
   12        3.404104      3.404427   0.000000   0.000000
   13        4.018344      4.024315   0.000000   0.000000
   14        4.564045      4.567764   0.000000   0.000000
   15        5.400092      5.401639   0.000000   0.000000
   16        6.181663      6.183896   0.000000   0.000000
   17        6.402525      6.408971   0.000000   0.000000
   18        6.882496      6.882271   0.000000   0.000000
   19        7.650344      7.652098   0.000000   0.000000
   20        8.317464      8.318555   0.000000   0.000000
   21        8.460701      8.460833   0.000000   0.000000
   22        8.929989      8.930095   0.000000   0.000000
   23        9.579113      9.580942   0.000000   0.000000
   24       10.400248     10.402121   0.000000   0.000000
   25       11.313469     11.312919   0.000000   0.000000
   26       11.667838     11.668415   0.000000   0.000000
   27       12.609795     12.613319   0.000000   0.000000
   28       13.206538     13.207010   0.000000   0.000000
   29       14.035113     14.039429   0.000000   0.000000
   30       14.454603     14.463372   0.000000   0.000000
   31       14.954590     14.956707   0.000000   0.000000
   32       15.325935     15.325621   0.000000   0.000000
 
  0.2500000E+00  0.3773024E-15  0.3885781E-15  0.1666667E-01
    1      -10.819833    -10.819749   1.000000   1.000000
    2       -9.735164     -9.735000   1.000000   1.000000
    3       -8.893864     -8.893617   1.000000   1.000000
    4       -8.682441     -8.682317   1.000000   1.000000
    5       -8.196582     -8.196540   1.000000   1.000000
    6       -8.073272     -8.073180   1.000000   1.000000
    7       -7.770787     -7.770716   1.000000   1.000000
    8       -2.605176     -2.605142   0.431686   0.431175
    9        2.204818      2.212625   0.000000   0.000000
   10        2.449651      2.451011   0.000000   0.000000
   11        2.831616      2.833360   0.000000   0.000000
   12        3.449705      3.450930   0.000000   0.000000
   13        3.685211      3.688054   0.000000   0.000000
   14        4.123196      4.126150   0.000000   0.000000
   15        4.655484      4.661702   0.000000   0.000000
   16        4.749518      4.751370   0.000000   0.000000
   17        5.444470      5.444673   0.000000   0.000000
   18        6.080521      6.082342   0.000000   0.000000
   19        6.798901      6.801886   0.000000   0.000000
   20        7.747388      7.747269   0.000000   0.000000
   21        8.257015      8.260558   0.000000   0.000000
   22        9.524000      9.523660   0.000000   0.000000
   23       10.829516     10.834932   0.000000   0.000000
   24       11.124720     11.128142   0.000000   0.000000
   25       11.440951     11.441419   0.000000   0.000000
   26       12.110563     12.117268   0.000000   0.000000
   27       12.597175     12.599555   0.000000   0.000000
   28       12.919663     12.921757   0.000000   0.000000
   29       12.967883     12.967970   0.000000   0.000000
   30       13.578769     13.579539   0.000000   0.000000
   31       14.126691     14.127993   0.000000   0.000000
   32       14.437712     14.441463   0.000000   0.000000
 
  0.3750000E+00  0.3217912E-15  0.3885781E-15  0.1666667E-01
    1       -9.670419     -9.670335   1.000000   1.000000
    2       -9.024706     -9.024636   1.000000   1.000000
    3       -8.438517     -8.438425   1.000000   1.000000
    4       -8.308257     -8.308134   1.000000   1.000000
    5       -8.011632     -8.011569   1.000000   1.000000
    6       -7.982925     -7.982838   1.000000   1.000000
    7       -7.828964     -7.828854   1.000000   1.000000
    8       -5.305157     -5.305119   1.064386   1.064984
    9        1.422305      1.430152   0.000000   0.000000
   10        2.062073      2.063532   0.000000   0.000000
   11        2.294374      2.294967   0.000000   0.000000
   12        2.761030      2.760859   0.000000   0.000000
   13        3.029086      3.029429   0.000000   0.000000
   14        3.863800      3.864346   0.000000   0.000000
   15        4.655436      4.659836   0.000000   0.000000
   16        4.956645      4.961490   0.000000   0.000000
   17        6.081810      6.082534   0.000000   0.000000
   18        6.490031      6.492644   0.000000   0.000000
   19        7.335060      7.334753   0.000000   0.000000
   20        7.799446      7.799739   0.000000   0.000000
   21        8.658515      8.667148   0.000000   0.000000
   22        9.199109      9.204364   0.000000   0.000000
   23        9.660525      9.664227   0.000000   0.000000
   24        9.764972      9.769365   0.000000   0.000000
   25       10.447753     10.448916   0.000000   0.000000
   26       11.119653     11.119789   0.000000   0.000000
   27       11.343864     11.349518   0.000000   0.000000
   28       12.132331     12.142446   0.000000   0.000000
   29       12.428439     12.428332   0.000000   0.000000
   30       13.086743     13.086883   0.000000   0.000000
   31       13.628510     13.634328   0.000000   0.000000
   32       14.077507     14.079002   0.000000   0.000000
 
  0.5000000E+00  0.4284767E-15  0.4163336E-15  0.8333333E-02
    1       -8.682300     -8.682310   1.000000   1.000000
    2       -8.507483     -8.507471   1.000000   1.000000
    3       -8.395732     -8.395611   1.000000   1.000000
    4       -8.078876     -8.078751   1.000000   1.000000
    5       -8.004526     -8.004406   1.000000   1.000000
    6       -7.943296     -7.943194   1.000000   1.000000
    7       -7.425647     -7.425627   1.000000   1.000000
    8       -7.279767     -7.279701   1.000000   1.000000
    9        1.015439      1.023442   0.000000   0.000000
   10        1.631210      1.632720   0.000000   0.000000
   11        1.942399      1.942660   0.000000   0.000000
   12        2.396096      2.396006   0.000000   0.000000
   13        2.601392      2.601415   0.000000   0.000000
   14        3.563092      3.563925   0.000000   0.000000
   15        5.725283      5.725486   0.000000   0.000000
   16        6.153369      6.156134   0.000000   0.000000
   17        6.601104      6.600268   0.000000   0.000000
   18        6.741667      6.749143   0.000000   0.000000
   19        7.249969      7.253380   0.000000   0.000000
   20        7.941490      7.943009   0.000000   0.000000
   21        8.261239      8.269484   0.000000   0.000000
   22        8.753557      8.755247   0.000000   0.000000
   23        9.108821      9.110764   0.000000   0.000000
   24        9.270991      9.272029   0.000000   0.000000
   25       10.138128     10.149850   0.000000   0.000000
   26       10.496366     10.495578   0.000000   0.000000
   27       10.805342     10.806545   0.000000   0.000000
   28       11.533318     11.544654   0.000000   0.000000
   29       11.735243     11.737702   0.000000   0.000000
   30       12.626116     12.632374   0.000000   0.000000
   31       13.321040     13.320865   0.000000   0.000000
   32       14.053826     14.058661   0.000000   0.000000
 
  0.3748290E-15  0.2000000E+00  0.3747003E-15  0.1666667E-01
    1      -11.749202    -11.749135   1.000000   1.000000
    2      -10.292669    -10.292421   1.000000   1.000000
    3       -9.306648     -9.306332   1.000000   1.000000
    4       -9.220451     -9.220252   1.000000   1.000000
    5       -8.700060     -8.700032   1.000000   1.000000
    6       -8.435165     -8.435062   1.000000   1.000000
    7       -7.709944     -7.709867   1.000000   1.000000
    8        1.934070      1.938578   0.000000   0.000000
    9        2.057517      2.059489   0.000000   0.000000
   10        2.672269      2.682556   0.000000   0.000000
   11        3.251784      3.252386   0.000000   0.000000
   12        4.015328      4.015822   0.000000   0.000000
   13        4.278995      4.280776   0.000000   0.000000
   14        4.292034      4.292410   0.000000   0.000000
   15        4.666200      4.671504   0.000000   0.000000
   16        6.118871      6.120283   0.000000   0.000000
   17        6.708292      6.715461   0.000000   0.000000
   18        6.933030      6.935311   0.000000   0.000000
   19        8.327440      8.327966   0.000000   0.000000
   20        8.632920      8.632869   0.000000   0.000000
   21        9.151676      9.151914   0.000000   0.000000
   22        9.725786      9.727529   0.000000   0.000000
   23       10.263822     10.265753   0.000000   0.000000
   24       10.633591     10.634943   0.000000   0.000000
   25       11.227567     11.230451   0.000000   0.000000
   26       11.669527     11.670966   0.000000   0.000000
   27       11.980118     11.980478   0.000000   0.000000
   28       12.261553     12.261491   0.000000   0.000000
   29       12.866928     12.870074   0.000000   0.000000
   30       13.577773     13.578414   0.000000   0.000000
   31       14.094620     14.094368   0.000000   0.000000
   32       14.245490     14.245905   0.000000   0.000000
 
  0.1250000E+00  0.2000000E+00  0.3885781E-15  0.1666667E-01
    1      -11.529608    -11.529530   1.000000   1.000000
    2      -10.177619    -10.177399   1.000000   1.000000
    3       -9.237646     -9.237281   1.000000   1.000000
    4       -9.021291     -9.021162   1.000000   1.000000
    5       -8.509935     -8.509908   1.000000   1.000000
    6       -8.270939     -8.270861   1.000000   1.000000
    7       -7.754980     -7.754915   1.000000   1.000000
    8        0.596014      0.596056  -0.033283  -0.032932
    9        2.035155      2.038490   0.000000   0.000000
   10        2.255256      2.256795   0.000000   0.000000
   11        2.761247      2.771842   0.000000   0.000000
   12        3.407103      3.409742   0.000000   0.000000
   13        3.885577      3.888619   0.000000   0.000000
   14        4.599100      4.602185   0.000000   0.000000
   15        5.590111      5.590420   0.000000   0.000000
   16        5.980891      5.983941   0.000000   0.000000
   17        6.140785      6.146113   0.000000   0.000000
   18        7.178187      7.178227   0.000000   0.000000
   19        7.854667      7.855131   0.000000   0.000000
   20        8.324798      8.326974   0.000000   0.000000
   21        8.498600      8.500095   0.000000   0.000000
   22        8.977960      8.978262   0.000000   0.000000
   23        9.685078      9.687890   0.000000   0.000000
   24       10.488415     10.489019   0.000000   0.000000
   25       11.058016     11.058013   0.000000   0.000000
   26       11.449501     11.450178   0.000000   0.000000
   27       12.837522     12.837947   0.000000   0.000000
   28       13.269970     13.273791   0.000000   0.000000
   29       13.938352     13.942251   0.000000   0.000000
   30       14.265067     14.269921   0.000000   0.000000
   31       14.732625     14.737082   0.000000   0.000000
   32       15.002627     15.005306   0.000000   0.000000
 
  0.2500000E+00  0.2000000E+00  0.4163336E-15  0.1666667E-01
    1      -10.833142    -10.833051   1.000000   1.000000
    2       -9.737737     -9.737579   1.000000   1.000000
    3       -8.929413     -8.929142   1.000000   1.000000
    4       -8.639022     -8.638910   1.000000   1.000000
    5       -8.216851     -8.216814   1.000000   1.000000
    6       -8.029251     -8.029170   1.000000   1.000000
    7       -7.769504     -7.769429   1.000000   1.000000
    8       -2.606124     -2.606100   0.449629   0.449287
    9        2.355956      2.360751   0.000000   0.000000
   10        2.403491      2.406127   0.000000   0.000000
   11        3.032665      3.036790   0.000000   0.000000
   12        3.426471      3.430141   0.000000   0.000000
   13        3.514811      3.517989   0.000000   0.000000
   14        4.123862      4.125926   0.000000   0.000000
   15        4.213986      4.215162   0.000000   0.000000
   16        4.921053      4.923586   0.000000   0.000000
   17        5.446868      5.447909   0.000000   0.000000
   18        5.766312      5.769193   0.000000   0.000000
   19        6.881073      6.883799   0.000000   0.000000
   20        7.672364      7.674275   0.000000   0.000000
   21        8.633440      8.635116   0.000000   0.000000
   22        9.712245      9.713951   0.000000   0.000000
   23       10.337236     10.339128   0.000000   0.000000
   24       10.820364     10.822934   0.000000   0.000000
   25       11.678026     11.679256   0.000000   0.000000
   26       12.257044     12.262570   0.000000   0.000000
   27       12.598610     12.601651   0.000000   0.000000
   28       12.965337     12.965374   0.000000   0.000000
   29       13.411916     13.415816   0.000000   0.000000
   30       13.571094     13.574771   0.000000   0.000000
   31       14.120431     14.122558   0.000000   0.000000
   32       14.555268     14.559028   0.000000   0.000000
 
  0.3750000E+00  0.2000000E+00  0.3053113E-15  0.1666667E-01
    1       -9.734515     -9.734416   1.000000   1.000000
    2       -9.045012     -9.044948   1.000000   1.000000
    3       -8.487350     -8.487245   1.000000   1.000000
    4       -8.220624     -8.220524   1.000000   1.000000
    5       -7.999029     -7.998962   1.000000   1.000000
    6       -7.912307     -7.912200   1.000000   1.000000
    7       -7.819205     -7.819102   1.000000   1.000000
    8       -5.315498     -5.315473   1.075093   1.075093
    9        1.487152      1.493621   0.000000   0.000000
   10        2.206824      2.208478   0.000000   0.000000
   11        2.352782      2.353589   0.000000   0.000000
   12        2.586540      2.587396   0.000000   0.000000
   13        3.187677      3.188213   0.000000   0.000000
   14        3.786142      3.786423   0.000000   0.000000
   15        4.342647      4.345922   0.000000   0.000000
   16        5.008158      5.013913   0.000000   0.000000
   17        5.620349      5.621422   0.000000   0.000000
   18        6.186157      6.189291   0.000000   0.000000
   19        7.109736      7.110969   0.000000   0.000000
   20        7.838201      7.843903   0.000000   0.000000
   21        8.708986      8.713046   0.000000   0.000000
   22        8.932704      8.933904   0.000000   0.000000
   23        9.643696      9.646707   0.000000   0.000000
   24       10.563042     10.567113   0.000000   0.000000
   25       10.728545     10.733859   0.000000   0.000000
   26       11.179404     11.181106   0.000000   0.000000
   27       11.654806     11.657107   0.000000   0.000000
   28       12.370899     12.372997   0.000000   0.000000
   29       12.609102     12.611692   0.000000   0.000000
   30       13.125645     13.128517   0.000000   0.000000
   31       13.786927     13.794134   0.000000   0.000000
   32       14.200829     14.204267   0.000000   0.000000
 
  0.5000000E+00  0.2000000E+00  0.4718448E-15  0.1666667E-01
    1       -8.697383     -8.697375   1.000000   1.000000
    2       -8.477716     -8.477717   1.000000   1.000000
    3       -8.302940     -8.302841   1.000000   1.000000
    4       -8.189849     -8.189732   1.000000   1.000000
    5       -7.990906     -7.990768   1.000000   1.000000
    6       -7.958673     -7.958559   1.000000   1.000000
    7       -7.431803     -7.431783   1.000000   1.000000
    8       -7.280110     -7.280050   1.000000   1.000000
    9        1.049571      1.057018   0.000000   0.000000
   10        1.674505      1.676777   0.000000   0.000000
   11        2.072184      2.072293   0.000000   0.000000
   12        2.202390      2.202716   0.000000   0.000000
   13        2.652852      2.652764   0.000000   0.000000
   14        3.551598      3.552076   0.000000   0.000000
   15        5.685339      5.686456   0.000000   0.000000
   16        5.905420      5.905717   0.000000   0.000000
   17        6.465778      6.473402   0.000000   0.000000
   18        7.049230      7.051331   0.000000   0.000000
   19        7.502364      7.504082   0.000000   0.000000
   20        7.758625      7.760240   0.000000   0.000000
   21        7.956794      7.962660   0.000000   0.000000
   22        8.710701      8.711314   0.000000   0.000000
   23        9.139817      9.146068   0.000000   0.000000
   24        9.675422      9.676838   0.000000   0.000000
   25        9.912012      9.913733   0.000000   0.000000
   26       10.667193     10.680017   0.000000   0.000000
   27       10.946350     10.949022   0.000000   0.000000
   28       11.715738     11.719146   0.000000   0.000000
   29       11.989145     11.990670   0.000000   0.000000
   30       12.764504     12.769607   0.000000   0.000000
   31       13.035044     13.037622   0.000000   0.000000
   32       13.805976     13.806248   0.000000   0.000000
 
 -0.3750000E+00  0.2000000E+00  0.3608225E-15  0.1666667E-01
    1       -9.520247     -9.520204   1.000000   1.000000
    2       -8.867220     -8.867114   1.000000   1.000000
    3       -8.600727     -8.600621   1.000000   1.000000
    4       -8.287598     -8.287502   1.000000   1.000000
    5       -8.197660     -8.197607   1.000000   1.000000
    6       -8.099973     -8.099871   1.000000   1.000000
    7       -7.801124     -7.801019   1.000000   1.000000
    8       -5.294832     -5.294777   1.000000   1.000000
    9        1.451249      1.459955   0.000000   0.000000
   10        1.993159      1.995309   0.000000   0.000000
   11        2.461695      2.462217   0.000000   0.000000
   12        2.618445      2.618749   0.000000   0.000000
   13        2.816800      2.817277   0.000000   0.000000
   14        3.799840      3.801184   0.000000   0.000000
   15        4.997083      5.000621   0.000000   0.000000
   16        5.749923      5.750462   0.000000   0.000000
   17        6.161566      6.163687   0.000000   0.000000
   18        6.943531      6.943989   0.000000   0.000000
   19        7.620649      7.620726   0.000000   0.000000
   20        8.163142      8.164271   0.000000   0.000000
   21        8.513848      8.516093   0.000000   0.000000
   22        8.885596      8.890855   0.000000   0.000000
   23        9.282438      9.289494   0.000000   0.000000
   24       10.066548     10.069088   0.000000   0.000000
   25       10.314451     10.316858   0.000000   0.000000
   26       10.772454     10.780410   0.000000   0.000000
   27       11.235875     11.238620   0.000000   0.000000
   28       11.649435     11.655660   0.000000   0.000000
   29       12.191890     12.195690   0.000000   0.000000
   30       12.700441     12.702456   0.000000   0.000000
   31       12.946353     12.951085   0.000000   0.000000
   32       13.553434     13.557652   0.000000   0.000000
 
 -0.2500000E+00  0.2000000E+00  0.3191891E-15  0.1666667E-01
    1      -10.725086    -10.725040   1.000000   1.000000
    2       -9.550540     -9.550344   1.000000   1.000000
    3       -8.958477     -8.958333   1.000000   1.000000
    4       -8.692478     -8.692274   1.000000   1.000000
    5       -8.499315     -8.499286   1.000000   1.000000
    6       -8.278515     -8.278367   1.000000   1.000000
    7       -7.612917     -7.612838   1.000000   1.000000
    8       -2.612780     -2.612713   0.520865   0.520070
    9        2.056040      2.064277   0.000000   0.000000
   10        2.618313      2.619949   0.000000   0.000000
   11        2.938173      2.941422   0.000000   0.000000
   12        3.388040      3.389827   0.000000   0.000000
   13        3.664239      3.665537   0.000000   0.000000
   14        4.017223      4.022437   0.000000   0.000000
   15        4.900934      4.901648   0.000000   0.000000
   16        5.298283      5.301483   0.000000   0.000000
   17        5.676805      5.677234   0.000000   0.000000
   18        6.599055      6.600239   0.000000   0.000000
   19        7.097263      7.097816   0.000000   0.000000
   20        7.991840      7.992376   0.000000   0.000000
   21        8.453574      8.453958   0.000000   0.000000
   22        9.745176      9.749161   0.000000   0.000000
   23       10.206164     10.206089   0.000000   0.000000
   24       10.802300     10.805521   0.000000   0.000000
   25       11.397345     11.404447   0.000000   0.000000
   26       11.578139     11.581803   0.000000   0.000000
   27       12.363323     12.368778   0.000000   0.000000
   28       12.857329     12.858340   0.000000   0.000000
   29       12.939615     12.940334   0.000000   0.000000
   30       13.108695     13.114760   0.000000   0.000000
   31       13.462191     13.465638   0.000000   0.000000
   32       13.704685     13.706160   0.000000   0.000000
 
 -0.1250000E+00  0.2000000E+00  0.1235123E-14  0.1666667E-01
    1      -11.479776    -11.479720   1.000000   1.000000
    2      -10.069096    -10.068855   1.000000   1.000000
    3       -9.206145     -9.206020   1.000000   1.000000
    4       -9.087771     -9.087436   1.000000   1.000000
    5       -8.696768     -8.696744   1.000000   1.000000
    6       -8.431610     -8.431468   1.000000   1.000000
    7       -7.629375     -7.629288   1.000000   1.000000
    8        0.589240      0.589345  -0.020035  -0.019434
    9        2.011760      2.017633   0.000000   0.000000
   10        2.398551      2.401007   0.000000   0.000000
   11        2.862367      2.869451   0.000000   0.000000
   12        3.324201      3.325508   0.000000   0.000000
   13        4.093701      4.095618   0.000000   0.000000
   14        4.855525      4.860343   0.000000   0.000000
   15        5.404267      5.410435   0.000000   0.000000
   16        6.268504      6.271129   0.000000   0.000000
   17        6.588060      6.589666   0.000000   0.000000
   18        7.107347      7.107753   0.000000   0.000000
   19        7.550958      7.550416   0.000000   0.000000
   20        8.097097      8.096847   0.000000   0.000000
   21        8.458116      8.458149   0.000000   0.000000
   22        9.446970      9.448945   0.000000   0.000000
   23        9.748097      9.749235   0.000000   0.000000
   24       10.539547     10.540789   0.000000   0.000000
   25       11.339181     11.341055   0.000000   0.000000
   26       11.544523     11.546342   0.000000   0.000000
   27       12.161513     12.161833   0.000000   0.000000
   28       12.985373     12.985471   0.000000   0.000000
   29       13.413585     13.418087   0.000000   0.000000
   30       13.918469     13.921941   0.000000   0.000000
   31       14.291147     14.298640   0.000000   0.000000
   32       14.828711     14.832791   0.000000   0.000000
 
  0.3713121E-15  0.4000000E+00  0.3747003E-15  0.1666667E-01
    1      -11.671548    -11.671516   1.000000   1.000000
    2      -10.001558    -10.001253   1.000000   1.000000
    3       -9.547817     -9.547677   1.000000   1.000000
    4       -9.110587     -9.110459   1.000000   1.000000
    5       -9.010317     -9.010203   1.000000   1.000000
    6       -8.696462     -8.696168   1.000000   1.000000
    7       -7.532977     -7.532857   1.000000   1.000000
    8        1.734319      1.740734   0.000000   0.000000
    9        2.580476      2.583734   0.000000   0.000000
   10        3.007746      3.009302   0.000000   0.000000
   11        3.577838      3.585615   0.000000   0.000000
   12        3.907613      3.911506   0.000000   0.000000
   13        4.251789      4.251909   0.000000   0.000000
   14        4.306456      4.306778   0.000000   0.000000
   15        4.963752      4.965444   0.000000   0.000000
   16        5.618303      5.623349   0.000000   0.000000
   17        6.579027      6.579794   0.000000   0.000000
   18        7.448142      7.449917   0.000000   0.000000
   19        8.025165      8.027270   0.000000   0.000000
   20        9.038790      9.038929   0.000000   0.000000
   21        9.362148      9.361954   0.000000   0.000000
   22        9.856735      9.858464   0.000000   0.000000
   23       10.443956     10.444159   0.000000   0.000000
   24       10.655901     10.659423   0.000000   0.000000
   25       10.964817     10.965029   0.000000   0.000000
   26       11.585074     11.585637   0.000000   0.000000
   27       11.935615     11.941482   0.000000   0.000000
   28       12.263982     12.265927   0.000000   0.000000
   29       12.420721     12.423694   0.000000   0.000000
   30       13.091838     13.091595   0.000000   0.000000
   31       13.567469     13.569966   0.000000   0.000000
   32       13.774960     13.773904   0.000000   0.000000
 
  0.1250000E+00  0.4000000E+00  0.3816392E-15  0.1666667E-01
    1      -11.446759    -11.446716   1.000000   1.000000
    2       -9.943231     -9.942973   1.000000   1.000000
    3       -9.292339     -9.292200   1.000000   1.000000
    4       -9.061825     -9.061566   1.000000   1.000000
    5       -8.862295     -8.862239   1.000000   1.000000
    6       -8.508653     -8.508469   1.000000   1.000000
    7       -7.550551     -7.550451   1.000000   1.000000
    8        0.580299      0.580412  -0.075083  -0.075083
    9        1.909398      1.914501   0.000000   0.000000
   10        2.638672      2.642637   0.000000   0.000000
   11        3.190617      3.197183   0.000000   0.000000
   12        3.431761      3.434894   0.000000   0.000000
   13        3.843231      3.847346   0.000000   0.000000
   14        5.020256      5.021832   0.000000   0.000000
   15        5.334628      5.338214   0.000000   0.000000
   16        5.801729      5.803588   0.000000   0.000000
   17        6.460575      6.461226   0.000000   0.000000
   18        7.354727      7.354992   0.000000   0.000000
   19        8.104095      8.104408   0.000000   0.000000
   20        8.426861      8.427378   0.000000   0.000000
   21        8.573805      8.575244   0.000000   0.000000
   22        9.020815      9.021024   0.000000   0.000000
   23        9.919426      9.922883   0.000000   0.000000
   24       10.628312     10.629345   0.000000   0.000000
   25       11.110651     11.112209   0.000000   0.000000
   26       11.484348     11.484785   0.000000   0.000000
   27       12.059569     12.060264   0.000000   0.000000
   28       12.673546     12.677080   0.000000   0.000000
   29       13.514001     13.520001   0.000000   0.000000
   30       13.723191     13.725847   0.000000   0.000000
   31       14.040550     14.042004   0.000000   0.000000
   32       14.450040     14.449732   0.000000   0.000000
 
  0.2500000E+00  0.4000000E+00  0.4024558E-15  0.1666667E-01
    1      -10.748938    -10.748878   1.000000   1.000000
    2       -9.569723     -9.569541   1.000000   1.000000
    3       -8.891984     -8.891803   1.000000   1.000000
    4       -8.753678     -8.753500   1.000000   1.000000
    5       -8.521846     -8.521796   1.000000   1.000000
    6       -8.200642     -8.200533   1.000000   1.000000
    7       -7.602089     -7.602010   1.000000   1.000000
    8       -2.614093     -2.614044   0.536896   0.536487
    9        2.300192      2.304239   0.000000   0.000000
   10        2.604118      2.608830   0.000000   0.000000
   11        2.980577      2.989441   0.000000   0.000000
   12        3.186798      3.188826   0.000000   0.000000
   13        3.661638      3.662111   0.000000   0.000000
   14        4.395878      4.395846   0.000000   0.000000
   15        4.451571      4.451350   0.000000   0.000000
   16        4.927893      4.933744   0.000000   0.000000