unknown system                          
           1
     4.783939    0.070398   -0.272105
    -0.166130    4.832208   -0.145890
    -0.447811   -0.986861    6.034180
   H    Nb   H    Sr
  11   1   5   1
Direct configuration=     1
   0.14000895  0.85173420  0.95220025
   0.20383105  0.77452759  0.04232393
   0.80090414  0.15806957  0.26717160
   0.98089916  0.25374421  0.93267153
   0.04699254  0.36347981  0.03266657
   0.31232812  0.92705843  0.40764919
   0.38909393  0.04854664  0.33578333
   0.71086214  0.22850227  0.59209943
   0.65145047  0.64070286  0.04277746
   0.67709501  0.70385243  0.94025225
   0.93845119  0.06237769  0.27539353
   0.70884506  0.86320701  0.45155413
   0.46114354  0.55228801  0.32354469
   0.02119325  0.94582925  0.66369939
   0.74445222  0.58045023  0.60434319
   0.96963611  0.61664564  0.34178922
   0.55906998  0.92537417  0.71319803
   0.24935213  0.45261498  0.64599827
unknown system                          
           1
     4.781894    0.070673   -0.273814
    -0.165743    4.832009   -0.146183
    -0.449823   -0.987291    6.034210
   H    Nb   H    Sr
  11   1   5   1
Direct configuration=     2
   0.13969698  0.85178064  0.95217699
   0.20383272  0.77466836  0.04234608
   0.80092759  0.15756323  0.26695973
   0.98131339  0.25393610  0.93290016
   0.04739684  0.36348788  0.03280377
   0.31257078  0.92745774  0.40750415
   0.38890893  0.04831597  0.33596286
   0.71098237  0.22874920  0.59212227
   0.65113323  0.64013648  0.04281267
   0.67711376  0.70343924  0.93986094
   0.93802264  0.06241757  0.27531414
   0.70889690  0.86323059  0.45213712
   0.46090943  0.55236715  0.32358490
   0.02110649  0.94591451  0.66353849
   0.74451238  0.58065024  0.60425954
   0.96953880  0.61667843  0.34181268
   0.55930780  0.92549195  0.71302864
   0.24943796  0.45271973  0.64599088
unknown system                          
           1
     4.781041    0.070787   -0.274526
    -0.165581    4.831926   -0.146306
    -0.450662   -0.987471    6.034222
   H    Nb   H    Sr
  11   1   5   1
Direct configuration=     3
   0.13956680  0.85180001  0.95216724
   0.20383342  0.77472707  0.04235532
   0.80093736  0.15735204  0.26687136
   0.98148626  0.25401614  0.93299557
   0.04756556  0.36349125  0.03286104
   0.31267199  0.92762427  0.40744370
   0.38883177  0.04821977  0.33603771
   0.71103253  0.22885219  0.59213182
   0.65100088  0.63990025  0.04282730
   0.67712153  0.70326689  0.93969773
   0.93784381  0.06243420  0.27528098
   0.70891863  0.86324044  0.45238027
   0.46081176  0.55240016  0.32360164
   0.02107026  0.94595007  0.66347137
   0.74453746  0.58073366  0.60422466
   0.96949820  0.61669210  0.34182245
   0.55940700  0.92554107  0.71295803
   0.24947377  0.45276341  0.64598781
unknown system                          
           1
     4.780281    0.070842   -0.275741
    -0.165479    4.832174   -0.146533
    -0.452095   -0.987845    6.034840
   H    Nb   H    Sr
  11   1   5   1
Direct configuration=     4
   0.13933856  0.85182159  0.95216483
   0.20382522  0.77484645  0.04235555
   0.80076924  0.15711320  0.26670394
   0.98174296  0.25406627  0.93308335
   0.04793536  0.36359503  0.03305340
   0.31269659  0.92785244  0.40737953
   0.38873828  0.04813250  0.33611228
   0.71112282  0.22901308  0.59215685
   0.65082110  0.63962997  0.04261666
   0.67707019  0.70279479  0.93964237
   0.93771527  0.06231215  0.27521378
   0.70897343  0.86327324  0.45246771
   0.46063939  0.55248032  0.32364222
   0.02113920  0.94603604  0.66345423
   0.74459914  0.58082283  0.60422143
   0.96942247  0.61672475  0.34186364
   0.55951982  0.92564125  0.71296558
   0.24953997  0.45284909  0.64601865
unknown system                          
           1
     4.778001    0.071006   -0.279387
    -0.165174    4.832917   -0.147215
    -0.456392   -0.988968    6.036693
   H    Nb   H    Sr
  11   1   5   1
Direct configuration=     5
   0.13865370  0.85188633  0.95215744
   0.20380063  0.77520455  0.04235622
   0.80026467  0.15639666  0.26620159
   0.98251328  0.25421671  0.93334684
   0.04904510  0.36390641  0.03363068
   0.31277035  0.92853688  0.40718708
   0.38845781  0.04787072  0.33633591
   0.71139375  0.22949573  0.59223200
   0.65028150  0.63881913  0.04198466
   0.67691613  0.70137854  0.93947622
   0.93732954  0.06194602  0.27501210
   0.70913790  0.86337165  0.45273007
   0.46012221  0.55272079  0.32376383
   0.02134604  0.94629396  0.66340286
   0.74478419  0.58109031  0.60421176
   0.96919526  0.61682267  0.34198717
   0.55985835  0.92594180  0.71298832
   0.24973860  0.45310614  0.64611122
unknown system                          
           1
     4.778983    0.070795   -0.280261
    -0.165461    4.833864   -0.148114
    -0.457413   -0.990233    6.038646
   H    Nb   H    Sr
  11   1   5   1
Direct configuration=     6
   0.13851866  0.85189006  0.95216573
   0.20378355  0.77528594  0.04233945
   0.79991379  0.15643129  0.26608031
   0.98276241  0.25438669  0.93353007
   0.04921654  0.36384059  0.03363390
   0.31243210  0.92845232  0.40727488
   0.38851911  0.04809338  0.33620056
   0.71146870  0.22945736  0.59221213
   0.65014443  0.63858741  0.04193869
   0.67691090  0.70112071  0.93935429
   0.93750468  0.06167681  0.27495254
   0.70906197  0.86351086  0.45236050
   0.46004876  0.55282281  0.32380727
   0.02164861  0.94638278  0.66357746
   0.74486188  0.58105920  0.60430479
   0.96918912  0.61682560  0.34203740
   0.55985254  0.92600819  0.71315946
   0.24977126  0.45317300  0.64618658
unknown system                          
           1
     4.780005    0.070575   -0.281171
    -0.165759    4.834850   -0.149050
    -0.458476   -0.991550    6.040678
   H    Nb   H    Sr
  11   1   5   1
Direct configuration=     7
   0.13837817  0.85189393  0.95217433
   0.20376578  0.77537061  0.04232201
   0.79954871  0.15646726  0.26595409
   0.98302166  0.25456360  0.93372076
   0.04939490  0.36377213  0.03363726
   0.31208019  0.92836433  0.40736616
   0.38858289  0.04832503  0.33605979
   0.71154667  0.22941744  0.59219146
   0.65000180  0.63834630  0.04189080
   0.67690543  0.70085243  0.93922739
   0.93768686  0.06139671  0.27489056
   0.70898290  0.86365562  0.45197605
   0.45997235  0.55292896  0.32385247
   0.02196345  0.94647525  0.66375915
   0.74494272  0.58102686  0.60440158
   0.96918274  0.61682866  0.34208965
   0.55984654  0.92607730  0.71333751
   0.24980525  0.45324258  0.64626499
unknown system                          
           1
     4.780288    0.070482   -0.282196
    -0.165873    4.835327   -0.149635
    -0.459700   -0.992375    6.041825
   H    Nb   H    Sr
  11   1   5   1
Direct configuration=     8
   0.13814250  0.85187796  0.95220474
   0.20372143  0.77553978  0.04227380
   0.79937036  0.15615414  0.26575443
   0.98328242  0.25454684  0.93375332
   0.04990777  0.36397614  0.03394124
   0.31178332  0.92838219  0.40742456
   0.38856879  0.04856192  0.33594208
   0.71168406  0.22941866  0.59214178
   0.64979146  0.63800963  0.04165010
   0.67686227  0.70028568  0.93916532
   0.93748938  0.06126681  0.27479403
   0.70893448  0.86369832  0.45203101
   0.45982858  0.55310886  0.32392107
   0.02223609  0.94660944  0.66385712
   0.74503383  0.58116823  0.60440995
   0.96912104  0.61686599  0.34214546
   0.55998077  0.92619114  0.71336224
   0.24987044  0.45334326  0.64634375
unknown system                          
           1
     4.781137    0.070201   -0.285272
    -0.166216    4.836760   -0.151392
    -0.463372   -0.994851    6.045265
   H    Nb   H    Sr
  11   1   5   1
Direct configuration=     9
   0.13743556  0.85183004  0.95229582
   0.20358836  0.77604721  0.04212924
   0.79883517  0.15521476  0.26515540
   0.98406470  0.25449661  0.93385112
   0.05144655  0.36458835  0.03485333
   0.31089279  0.92843572  0.40759958
   0.38852642  0.04927249  0.33558906
   0.71209619  0.22942231  0.59199284
   0.64916029  0.63699960  0.04092794
   0.67673271  0.69858555  0.93897896
   0.93689688  0.06087706  0.27450433
   0.70878927  0.86382644  0.45219583
   0.45939735  0.55364850  0.32412681
   0.02305408  0.94701207  0.66415117
   0.74530714  0.58159231  0.60443512
   0.96893601  0.61697799  0.34231287
   0.56038349  0.92653267  0.71343653
   0.25006604  0.45364532  0.64658003
unknown system                          
           1
     4.781054    0.070157   -0.285726
    -0.166260    4.836854   -0.151660
    -0.463904   -0.995210    6.045588
   H    Nb   H    Sr
  11   1   5   1
Direct configuration=    10
   0.13731550  0.85184146  0.95228629
   0.20358584  0.77610227  0.04213136
   0.79876099  0.15507147  0.26506793
   0.98422775  0.25456808  0.93393687
   0.05162305  0.36459826  0.03491417
   0.31081209  0.92848381  0.40760283
   0.38850464  0.04932657  0.33556841
   0.71215371  0.22943280  0.59197311
   0.64905789  0.63682699  0.04086043
   0.67672626  0.69836002  0.93891460
   0.93680304  0.06082275  0.27446089
   0.70878047  0.86385234  0.45225305
   0.45932792  0.55372378  0.32415559
   0.02314333  0.94706529  0.66417383
   0.74534157  0.58165989  0.60443375
   0.96890074  0.61699760  0.34233637
   0.56044895  0.92658303  0.71343741
   0.25009526  0.45368859  0.64660912
unknown system                          
           1
     4.780803    0.070025   -0.287089
    -0.166394    4.837135   -0.152466
    -0.465502   -0.996287    6.046557
   H    Nb   H    Sr
  11   1   5   1
Direct configuration=    11
   0.13695529  0.85187571  0.95225766
   0.20357828  0.77626742  0.04213772
   0.79853840  0.15464158  0.26480549
   0.98471694  0.25478251  0.93419416
   0.05215261  0.36462804  0.03509672
   0.31056999  0.92862808  0.40761256
   0.38843931  0.04948878  0.33550644
   0.71232628  0.22946426  0.59191393
   0.64875065  0.63630916  0.04065786
   0.67670689  0.69768342  0.93872148
   0.93652148  0.06065982  0.27433054
   0.70875408  0.86393005  0.45242471
   0.45911964  0.55394965  0.32424192
   0.02341110  0.94722494  0.66424183
   0.74544487  0.58186262  0.60442966
   0.96879496  0.61705642  0.34240689
   0.56064534  0.92673413  0.71344004
   0.25018292  0.45381839  0.64669639
unknown system                          
           1
     4.780515    0.070018   -0.287175
    -0.166388    4.837025   -0.152493
    -0.465590   -0.996306    6.046410
   H    Nb   H    Sr
  11   1   5   1
Direct configuration=    12
   0.13692191  0.85189616  0.95223147
   0.20359562  0.77625498  0.04216256
   0.79852082  0.15462555  0.26479349
   0.98479374  0.25487880  0.93428467
   0.05212420  0.36454265  0.03502570
   0.31063471  0.92869994  0.40757678
   0.38841340  0.04941356  0.33555350
   0.71232910  0.22948434  0.59191732
   0.64872403  0.63625369  0.04069672
   0.67672188  0.69768074  0.93866611
   0.93651391  0.06064588  0.27432179
   0.70877560  0.86394879  0.45246281
   0.45909908  0.55395388  0.32424316
   0.02337821  0.94722322  0.66421655
   0.74544120  0.58187378  0.60442632
   0.96877745  0.61706369  0.34241027
   0.56065854  0.92674314  0.71343617
   0.25018560  0.45382222  0.64669064
unknown system                          
           1
     4.779653    0.069998   -0.287433
    -0.166370    4.836693   -0.152575
    -0.465853   -0.996365    6.045971
   H    Nb   H    Sr
  11   1   5   1
Direct configuration=    13
   0.13682178  0.85195751  0.95215292
   0.20364765  0.77621763  0.04223709
   0.79846808  0.15457746  0.26475746
   0.98502415  0.25516765  0.93455619
   0.05203898  0.36428650  0.03481266
   0.31082888  0.92891551  0.40746944
   0.38833567  0.04918789  0.33569465
   0.71233759  0.22954458  0.59192749
   0.64864419  0.63608728  0.04081331
   0.67676683  0.69767270  0.93850000
   0.93649122  0.06060406  0.27429552
   0.70884017  0.86400501  0.45257710
   0.45903741  0.55396658  0.32424685
   0.02327954  0.94721804  0.66414070
   0.74543021  0.58190724  0.60441629
   0.96872492  0.61708548  0.34242039
   0.56069811  0.92677018  0.71342455
   0.25019363  0.45383369  0.64667338
