Automatically generated mesh
      50
Reciprocal lattice
    0.00000000000000    0.00000000000000    0.00000000000000             1
    0.12500000000000    0.00000000000000    0.00000000000000             2
    0.25000000000000    0.00000000000000    0.00000000000000             2
    0.37500000000000    0.00000000000000    0.00000000000000             2
    0.50000000000000    0.00000000000000    0.00000000000000             1
    0.00000000000000    0.25000000000000    0.00000000000000             2
    0.12500000000000    0.25000000000000    0.00000000000000             2
    0.25000000000000    0.25000000000000    0.00000000000000             2
    0.37500000000000    0.25000000000000    0.00000000000000             2
    0.50000000000000    0.25000000000000    0.00000000000000             2
   -0.37500000000000    0.25000000000000    0.00000000000000             2
   -0.25000000000000    0.25000000000000    0.00000000000000             2
   -0.12500000000000    0.25000000000000    0.00000000000000             2
    0.00000000000000    0.50000000000000    0.00000000000000             1
    0.12500000000000    0.50000000000000    0.00000000000000             2
    0.25000000000000    0.50000000000000    0.00000000000000             2
    0.37500000000000    0.50000000000000    0.00000000000000             2
    0.50000000000000    0.50000000000000    0.00000000000000             1
    0.00000000000000    0.00000000000000    0.33333333333333             2
    0.12500000000000    0.00000000000000    0.33333333333333             2
    0.25000000000000    0.00000000000000    0.33333333333333             2
    0.37500000000000    0.00000000000000    0.33333333333333             2
    0.50000000000000    0.00000000000000    0.33333333333333             2
   -0.37500000000000    0.00000000000000    0.33333333333333             2
   -0.25000000000000    0.00000000000000    0.33333333333333             2
   -0.12500000000000    0.00000000000000    0.33333333333333             2
    0.00000000000000    0.25000000000000    0.33333333333333             2
    0.12500000000000    0.25000000000000    0.33333333333333             2
    0.25000000000000    0.25000000000000    0.33333333333333             2
    0.37500000000000    0.25000000000000    0.33333333333333             2
    0.50000000000000    0.25000000000000    0.33333333333333             2
   -0.37500000000000    0.25000000000000    0.33333333333333             2
   -0.25000000000000    0.25000000000000    0.33333333333333             2
   -0.12500000000000    0.25000000000000    0.33333333333333             2
    0.00000000000000    0.50000000000000    0.33333333333333             2
    0.12500000000000    0.50000000000000    0.33333333333333             2
    0.25000000000000    0.50000000000000    0.33333333333333             2
    0.37500000000000    0.50000000000000    0.33333333333333             2
    0.50000000000000    0.50000000000000    0.33333333333333             2
   -0.37500000000000    0.50000000000000    0.33333333333333             2
   -0.25000000000000    0.50000000000000    0.33333333333333             2
   -0.12500000000000    0.50000000000000    0.33333333333333             2
    0.00000000000000   -0.25000000000000    0.33333333333333             2
    0.12500000000000   -0.25000000000000    0.33333333333333             2
    0.25000000000000   -0.25000000000000    0.33333333333333             2
    0.37500000000000   -0.25000000000000    0.33333333333333             2
    0.50000000000000   -0.25000000000000    0.33333333333333             2
   -0.37500000000000   -0.25000000000000    0.33333333333333             2
   -0.25000000000000   -0.25000000000000    0.33333333333333             2
   -0.12500000000000   -0.25000000000000    0.33333333333333             2
Tetrahedra
       288    0.00173611111111
         2         1         6         7        28
         2         1         2         7        28
         2         1         2        20        28
         2         1         6        27        28
         2         1        19        27        28
         2         1        19        20        28
         2         2         7         8        29
         2         2         3         8        29
         2         2         3        21        29
         2         2         7        28        29
         2         2        20        28        29
         2         2        20        21        29
         2         3         8         9        30
         2         3         4         9        30
         2         3         4        22        30
         2         3         8        29        30
         2         3        21        29        30
         2         3        21        22        30
         2         4         9        10        31
         2         4         5        10        31
         2         4         5        23        31
         2         4         9        30        31
         2         4        22        30        31
         2         4        22        23        31
         2         5        10        11        32
         2         4         5        11        32
         2         4         5        24        32
         2         5        10        31        32
         2         5        23        31        32
         2         5        23        24        32
         2         4        11        12        33
         2         3         4        12        33
         2         3         4        25        33
         2         4        11        32        33
         2         4        24        32        33
         2         4        24        25        33
         2         3        12        13        34
         2         2         3        13        34
         2         2         3        26        34
         2         3        12        33        34
         2         3        25        33        34
         2         3        25        26        34
         2         2         6        13        27
         2         1         2         6        27
         2         1         2        19        27
         2         2        13        27        34
         2         2        26        27        34
         2         2        19        26        27
         2         6        14        15        36
         2         6         7        15        36
         2         6         7        28        36
         2         6        14        35        36
         2         6        27        35        36
         2         6        27        28        36
         2         7        15        16        37
         2         7         8        16        37
         2         7         8        29        37
         2         7        15        36        37
         2         7        28        36        37
         2         7        28        29        37
         2         8        16        17        38
         2         8         9        17        38
         2         8         9        30        38
         2         8        16        37        38
         2         8        29        37        38
         2         8        29        30        38
         2         9        17        18        39
         2         9        10        18        39
         2         9        10        31        39
         2         9        17        38        39
         2         9        30        38        39
         2         9        30        31        39
         2        10        17        18        40
         2        10        11        17        40
         2        10        11        32        40
         2        10        18        39        40
         2        10        31        39        40
         2        10        31        32        40
         2        11        16        17        41
         2        11        12        16        41
         2        11        12        33        41
         2        11        17        40        41
         2        11        32        40        41
         2        11        32        33        41
         2        12        15        16        42
         2        12        13        15        42
         2        12        13        34        42
         2        12        16        41        42
         2        12        33        41        42
         2        12        33        34        42
         2        13        14        15        35
         2         6        13        14        35
         2         6        13        27        35
         2        13        15        35        42
         2        13        34        35        42
         2        13        27        34        35
         2         6        13        14        44
         2        13        14        15        44
         2        14        15        36        44
         2         6        14        43        44
         2        14        35        43        44
         2        14        35        36        44
         2        12        13        15        45
         2        12        15        16        45
         2        15        16        37        45
         2        13        15        44        45
         2        15        36        44        45
         2        15        36        37        45
         2        11        12        16        46
         2        11        16        17        46
         2        16        17        38        46
         2        12        16        45        46
         2        16        37        45        46
         2        16        37        38        46
         2        10        11        17        47
         2        10        17        18        47
         2        17        18        39        47
         2        11        17        46        47
         2        17        38        46        47
         2        17        38        39        47
         2         9        10        18        48
         2         9        17        18        48
         2        17        18        40        48
         2        10        18        47        48
         2        18        39        47        48
         2        18        39        40        48
         2         8         9        17        49
         2         8        16        17        49
         2        16        17        41        49
         2         9        17        48        49
         2        17        40        48        49
         2        17        40        41        49
         2         7         8        16        50
         2         7        15        16        50
         2        15        16        42        50
         2         8        16        49        50
         2        16        41        49        50
         2        16        41        42        50
         2         6         7        15        43
         2         6        14        15        43
         2        14        15        35        43
         2         7        15        43        50
         2        15        42        43        50
         2        15        35        42        43
         2         1         2         6        20
         2         2         6        13        20
         2         6        13        20        44
         2         1         6        19        20
         2         6        19        20        43
         2         6        20        43        44
         2         2         3        13        21
         2         3        12        13        21
         2        12        13        21        45
         2         2        13        20        21
         2        13        20        21        44
         2        13        21        44        45
         2         3         4        12        22
         2         4        11        12        22
         2        11        12        22        46
         2         3        12        21        22
         2        12        21        22        45
         2        12        22        45        46
         2         4         5        11        23
         2         5        10        11        23
         2        10        11        23        47
         2         4        11        22        23
         2        11        22        23        46
         2        11        23        46        47
         2         4         5        10        24
         2         4         9        10        24
         2         9        10        24        48
         2         5        10        23        24
         2        10        23        24        47
         2        10        24        47        48
         2         3         4         9        25
         2         3         8         9        25
         2         8         9        25        49
         2         4         9        24        25
         2         9        24        25        48
         2         9        25        48        49
         2         2         3         8        26
         2         2         7         8        26
         2         7         8        26        50
         2         3         8        25        26
         2         8        25        26        49
         2         8        26        49        50
         2         1         2         7        19
         2         1         6         7        19
         2         6         7        19        43
         2         2         7        19        26
         2         7        19        26        50
         2         7        19        43        50
         2        19        27        28        50
         2        19        20        28        50
         2        19        20        26        50
         2        19        27        43        50
         2        19        19        43        50
         2        19        19        26        50
         2        20        28        29        49
         2        20        21        29        49
         2        20        21        25        49
         2        20        28        49        50
         2        20        26        49        50
         2        20        25        26        49
         2        21        29        30        48
         2        21        22        30        48
         2        21        22        24        48
         2        21        29        48        49
         2        21        25        48        49
         2        21        24        25        48
         2        22        30        31        47
         2        22        23        31        47
         2        22        23        23        47
         2        22        30        47        48
         2        22        24        47        48
         2        22        23        24        47
         2        23        31        32        46
         2        23        24        32        46
         2        22        23        24        46
         2        23        31        46        47
         2        23        23        46        47
         2        22        23        23        46
         2        24        32        33        45
         2        24        25        33        45
         2        21        24        25        45
         2        24        32        45        46
         2        22        24        45        46
         2        21        22        24        45
         2        25        33        34        44
         2        25        26        34        44
         2        20        25        26        44
         2        25        33        44        45
         2        21        25        44        45
         2        20        21        25        44
         2        26        27        34        43
         2        19        26        27        43
         2        19        19        26        43
         2        26        34        43        44
         2        20        26        43        44
         2        19        20        26        43
         2        27        35        36        42
         2        27        28        36        42
         2        27        28        42        50
         2        27        35        35        42
         2        27        35        42        43
         2        27        42        43        50
         2        28        36        37        41
         2        28        29        37        41
         2        28        29        41        49
         2        28        36        41        42
         2        28        41        42        50
         2        28        41        49        50
         2        29        37        38        40
         2        29        30        38        40
         2        29        30        40        48
         2        29        37        40        41
         2        29        40        41        49
         2        29        40        48        49
         2        30        38        39        39
         2        30        31        39        39
         2        30        31        39        47
         2        30        38        39        40
         2        30        39        40        48
         2        30        39        47        48
         2        31        38        39        40
         2        31        32        38        40
         2        31        32        38        46
         2        31        38        39        39
         2        31        38        39        47
         2        31        38        46        47
         2        32        37        40        41
         2        32        33        37        41
         2        32        33        37        45
         2        32        37        38        40
         2        32        37        38        46
         2        32        37        45        46
         2        33        36        41        42
         2        33        34        36        42
         2        33        34        36        44
         2        33        36        37        41
         2        33        36        37        45
         2        33        36        44        45
         2        34        35        35        42
         2        27        34        35        35
         2        27        34        35        43
         2        34        35        36        42
         2        34        35        36        44
         2        34        35        43        44
