  14  14   1   0
  0.1002562E+02  0.5039129E-09  0.5069622E-09  0.6004755E-09  0.5000000E-15
  1.000000000000000E-004
  CAR 
 unknown system                          
     17.24859999    -36.61035602  301      0.10349899      1.00000000
    -36.610  0.0000E+00  0.0000E+00  0.0000E+00  0.0000E+00
    -36.431  0.0000E+00  0.0000E+00  0.0000E+00  0.0000E+00
    -36.251  0.0000E+00  0.0000E+00  0.0000E+00  0.0000E+00
    -36.072  0.0000E+00  0.0000E+00  0.0000E+00  0.0000E+00
    -35.892  0.0000E+00  0.0000E+00  0.0000E+00  0.0000E+00
    -35.713  0.0000E+00  0.0000E+00  0.0000E+00  0.0000E+00
    -35.533  0.0000E+00  0.0000E+00  0.0000E+00  0.0000E+00
    -35.354  0.0000E+00  0.0000E+00  0.0000E+00  0.0000E+00
    -35.174  0.0000E+00  0.0000E+00  0.0000E+00  0.0000E+00
    -34.995  0.0000E+00  0.0000E+00  0.0000E+00  0.0000E+00
    -34.815  0.0000E+00  0.0000E+00  0.0000E+00  0.0000E+00
    -34.636  0.0000E+00  0.0000E+00  0.0000E+00  0.0000E+00
    -34.456  0.0000E+00  0.0000E+00  0.0000E+00  0.0000E+00
    -34.276  0.0000E+00  0.0000E+00  0.0000E+00  0.0000E+00
    -34.097  0.0000E+00  0.0000E+00  0.1010E-01  0.1010E-01
    -33.917  0.0000E+00  0.0000E+00  0.1010E-01  0.1010E-01
    -33.738  0.0000E+00  0.0000E+00  0.1010E-01  0.1010E-01
    -33.558  0.0000E+00  0.0000E+00  0.2020E-01  0.2020E-01
    -33.379  0.0000E+00  0.0000E+00  0.2020E-01  0.2020E-01
    -33.199  0.0000E+00  0.0000E+00  0.2020E-01  0.2020E-01
    -33.020  0.0000E+00  0.0000E+00  0.2020E-01  0.2020E-01
    -32.840  0.0000E+00  0.0000E+00  0.2020E-01  0.2020E-01
    -32.661  0.0000E+00  0.0000E+00  0.2020E-01  0.2020E-01
    -32.481  0.0000E+00  0.0000E+00  0.2020E-01  0.2020E-01
    -32.302  0.0000E+00  0.0000E+00  0.2020E-01  0.2020E-01
    -32.122  0.0000E+00  0.0000E+00  0.2020E-01  0.2020E-01
    -31.943  0.0000E+00  0.0000E+00  0.2020E-01  0.2020E-01
    -31.763  0.0000E+00  0.0000E+00  0.2020E-01  0.2020E-01
    -31.584  0.0000E+00  0.0000E+00  0.2020E-01  0.2020E-01
    -31.404  0.0000E+00  0.0000E+00  0.2020E-01  0.2020E-01
    -31.224  0.0000E+00  0.0000E+00  0.2020E-01  0.2020E-01
    -31.045  0.0000E+00  0.0000E+00  0.2020E-01  0.2020E-01
    -30.865  0.0000E+00  0.0000E+00  0.2020E-01  0.2020E-01
    -30.686  0.0000E+00  0.0000E+00  0.2020E-01  0.2020E-01
    -30.506  0.0000E+00  0.0000E+00  0.2020E-01  0.2020E-01
    -30.327  0.0000E+00  0.0000E+00  0.2020E-01  0.2020E-01
    -30.147  0.0000E+00  0.0000E+00  0.2020E-01  0.2020E-01
    -29.968  0.0000E+00  0.0000E+00  0.2020E-01  0.2020E-01
    -29.788  0.0000E+00  0.0000E+00  0.2020E-01  0.2020E-01
    -29.609  0.0000E+00  0.0000E+00  0.2020E-01  0.2020E-01
    -29.429  0.0000E+00  0.0000E+00  0.2020E-01  0.2020E-01
    -29.250  0.0000E+00  0.0000E+00  0.2020E-01  0.2020E-01
    -29.070  0.0000E+00  0.0000E+00  0.2020E-01  0.2020E-01
    -28.891  0.0000E+00  0.0000E+00  0.5051E-01  0.5051E-01
    -28.711  0.0000E+00  0.0000E+00  0.5051E-01  0.5051E-01
    -28.532  0.0000E+00  0.0000E+00  0.5051E-01  0.5051E-01
    -28.352  0.0000E+00  0.0000E+00  0.5051E-01  0.5051E-01
    -28.172  0.0000E+00  0.0000E+00  0.5051E-01  0.5051E-01
    -27.993  0.0000E+00  0.0000E+00  0.5051E-01  0.5051E-01
    -27.813  0.0000E+00  0.0000E+00  0.5051E-01  0.5051E-01
    -27.634  0.0000E+00  0.0000E+00  0.5051E-01  0.5051E-01
    -27.454  0.0000E+00  0.0000E+00  0.5051E-01  0.5051E-01
    -27.275  0.0000E+00  0.0000E+00  0.5051E-01  0.5051E-01
    -27.095  0.0000E+00  0.0000E+00  0.5051E-01  0.5051E-01
    -26.916  0.0000E+00  0.0000E+00  0.5051E-01  0.5051E-01
    -26.736  0.0000E+00  0.0000E+00  0.5051E-01  0.5051E-01
    -26.557  0.0000E+00  0.0000E+00  0.5051E-01  0.5051E-01
    -26.377  0.0000E+00  0.0000E+00  0.5051E-01  0.5051E-01
    -26.198  0.0000E+00  0.0000E+00  0.5051E-01  0.5051E-01
    -26.018  0.0000E+00  0.0000E+00  0.5051E-01  0.5051E-01
    -25.839  0.0000E+00  0.0000E+00  0.5051E-01  0.5051E-01
    -25.659  0.0000E+00  0.0000E+00  0.5051E-01  0.5051E-01
    -25.480  0.0000E+00  0.0000E+00  0.5051E-01  0.5051E-01
    -25.300  0.0000E+00  0.0000E+00  0.5051E-01  0.5051E-01
    -25.120  0.0000E+00  0.0000E+00  0.5051E-01  0.5051E-01
    -24.941  0.0000E+00  0.0000E+00  0.5051E-01  0.5051E-01
    -24.761  0.0000E+00  0.0000E+00  0.5051E-01  0.5051E-01
    -24.582  0.0000E+00  0.0000E+00  0.5051E-01  0.5051E-01
    -24.402  0.0000E+00  0.0000E+00  0.5051E-01  0.5051E-01
    -24.223  0.0000E+00  0.0000E+00  0.5051E-01  0.5051E-01
    -24.043  0.0000E+00  0.0000E+00  0.5051E-01  0.5051E-01
    -23.864  0.0000E+00  0.0000E+00  0.5051E-01  0.5051E-01
    -23.684  0.0000E+00  0.0000E+00  0.5051E-01  0.5051E-01
    -23.505  0.0000E+00  0.0000E+00  0.5051E-01  0.5051E-01
    -23.325  0.0000E+00  0.0000E+00  0.5051E-01  0.5051E-01
    -23.146  0.0000E+00  0.0000E+00  0.5051E-01  0.5051E-01
    -22.966  0.0000E+00  0.0000E+00  0.5051E-01  0.5051E-01
    -22.787  0.0000E+00  0.0000E+00  0.5051E-01  0.5051E-01
    -22.607  0.0000E+00  0.0000E+00  0.5051E-01  0.5051E-01
    -22.427  0.0000E+00  0.0000E+00  0.5051E-01  0.5051E-01
    -22.248  0.0000E+00  0.0000E+00  0.5051E-01  0.5051E-01
    -22.068  0.0000E+00  0.0000E+00  0.5051E-01  0.5051E-01
    -21.889  0.0000E+00  0.0000E+00  0.5051E-01  0.5051E-01
    -21.709  0.0000E+00  0.0000E+00  0.5051E-01  0.5051E-01
    -21.530  0.0000E+00  0.0000E+00  0.5051E-01  0.5051E-01
    -21.350  0.0000E+00  0.0000E+00  0.5051E-01  0.5051E-01
    -21.171  0.0000E+00  0.0000E+00  0.5051E-01  0.5051E-01
    -20.991  0.0000E+00  0.0000E+00  0.5051E-01  0.5051E-01
    -20.812  0.0000E+00  0.0000E+00  0.5051E-01  0.5051E-01
    -20.632  0.0000E+00  0.0000E+00  0.5051E-01  0.5051E-01
    -20.453  0.0000E+00  0.0000E+00  0.5051E-01  0.5051E-01
    -20.273  0.0000E+00  0.0000E+00  0.5051E-01  0.5051E-01
    -20.094  0.0000E+00  0.0000E+00  0.5051E-01  0.5051E-01
    -19.914  0.0000E+00  0.0000E+00  0.5051E-01  0.5051E-01
    -19.735  0.0000E+00  0.0000E+00  0.5051E-01  0.5051E-01
    -19.555  0.0000E+00  0.0000E+00  0.5051E-01  0.5051E-01
    -19.375  0.0000E+00  0.0000E+00  0.5051E-01  0.5051E-01
    -19.196  0.0000E+00  0.0000E+00  0.5051E-01  0.5051E-01
    -19.016  0.0000E+00  0.0000E+00  0.5051E-01  0.5051E-01
    -18.837  0.0000E+00  0.0000E+00  0.5051E-01  0.5051E-01
    -18.657  0.0000E+00  0.0000E+00  0.5051E-01  0.5051E-01
    -18.478  0.0000E+00  0.0000E+00  0.5051E-01  0.5051E-01
    -18.298  0.0000E+00  0.0000E+00  0.5051E-01  0.5051E-01
    -18.119  0.0000E+00  0.0000E+00  0.5051E-01  0.5051E-01
    -17.939  0.0000E+00  0.0000E+00  0.5051E-01  0.5051E-01
    -17.760  0.0000E+00  0.0000E+00  0.5051E-01  0.5051E-01
    -17.580  0.0000E+00  0.0000E+00  0.5051E-01  0.5051E-01
    -17.401  0.0000E+00  0.0000E+00  0.5051E-01  0.5051E-01
    -17.221  0.0000E+00  0.0000E+00  0.5051E-01  0.5051E-01
    -17.042  0.0000E+00  0.0000E+00  0.5051E-01  0.5051E-01
    -16.862  0.0000E+00  0.0000E+00  0.5051E-01  0.5051E-01
    -16.683  0.0000E+00  0.0000E+00  0.5051E-01  0.5051E-01
    -16.503  0.0000E+00  0.0000E+00  0.5051E-01  0.5051E-01
    -16.323  0.0000E+00  0.0000E+00  0.6061E-01  0.6061E-01
    -16.144  0.9505E-02  0.9505E-02  0.6061E-01  0.6061E-01
    -15.964  0.6447E-01  0.6447E-01  0.8099E-01  0.8099E-01
    -15.785  0.2388E+00  0.2388E+00  0.9343E-01  0.9343E-01
    -15.605  0.0000E+00  0.0000E+00  0.1111E+00  0.1111E+00
    -15.426  0.0000E+00  0.0000E+00  0.1111E+00  0.1111E+00
    -15.246  0.0000E+00  0.0000E+00  0.1111E+00  0.1111E+00
    -15.067  0.0000E+00  0.0000E+00  0.1111E+00  0.1111E+00
    -14.887  0.0000E+00  0.0000E+00  0.1111E+00  0.1111E+00
    -14.708  0.0000E+00  0.0000E+00  0.1111E+00  0.1111E+00
    -14.528  0.0000E+00  0.0000E+00  0.1111E+00  0.1111E+00
    -14.349  0.0000E+00  0.0000E+00  0.1111E+00  0.1111E+00
    -14.169  0.0000E+00  0.0000E+00  0.1111E+00  0.1111E+00
    -13.990  0.0000E+00  0.0000E+00  0.1111E+00  0.1111E+00
    -13.810  0.0000E+00  0.0000E+00  0.1111E+00  0.1111E+00
    -13.631  0.0000E+00  0.0000E+00  0.1111E+00  0.1111E+00
    -13.451  0.0000E+00  0.0000E+00  0.1111E+00  0.1111E+00
    -13.271  0.0000E+00  0.0000E+00  0.1111E+00  0.1111E+00
    -13.092  0.0000E+00  0.0000E+00  0.1111E+00  0.1111E+00
    -12.912  0.0000E+00  0.0000E+00  0.1111E+00  0.1111E+00
    -12.733  0.0000E+00  0.0000E+00  0.1111E+00  0.1111E+00
    -12.553  0.0000E+00  0.0000E+00  0.1111E+00  0.1111E+00
    -12.374  0.0000E+00  0.0000E+00  0.1111E+00  0.1111E+00
    -12.194  0.0000E+00  0.0000E+00  0.1111E+00  0.1111E+00
    -12.015  0.0000E+00  0.0000E+00  0.1111E+00  0.1111E+00
    -11.835  0.0000E+00  0.0000E+00  0.1111E+00  0.1111E+00
    -11.656  0.0000E+00  0.0000E+00  0.1111E+00  0.1111E+00
    -11.476  0.0000E+00  0.0000E+00  0.1111E+00  0.1111E+00
    -11.297  0.0000E+00  0.0000E+00  0.1111E+00  0.1111E+00
    -11.117  0.0000E+00  0.0000E+00  0.1111E+00  0.1111E+00
    -10.938  0.0000E+00  0.0000E+00  0.1111E+00  0.1111E+00
    -10.758  0.0000E+00  0.0000E+00  0.1111E+00  0.1111E+00
    -10.579  0.0000E+00  0.0000E+00  0.1111E+00  0.1111E+00
    -10.399  0.0000E+00  0.0000E+00  0.1111E+00  0.1111E+00
    -10.219  0.0000E+00  0.0000E+00  0.1111E+00  0.1111E+00
    -10.040  0.0000E+00  0.0000E+00  0.1111E+00  0.1111E+00
     -9.860  0.0000E+00  0.0000E+00  0.1111E+00  0.1111E+00
     -9.681  0.0000E+00  0.0000E+00  0.1111E+00  0.1111E+00
     -9.501  0.0000E+00  0.0000E+00  0.1111E+00  0.1111E+00
     -9.322  0.0000E+00  0.0000E+00  0.1111E+00  0.1111E+00
     -9.142  0.0000E+00  0.0000E+00  0.1111E+00  0.1111E+00
     -8.963  0.0000E+00  0.0000E+00  0.1111E+00  0.1111E+00
     -8.783  0.0000E+00  0.0000E+00  0.1111E+00  0.1111E+00
     -8.604  0.0000E+00  0.0000E+00  0.1111E+00  0.1111E+00
     -8.424  0.0000E+00  0.0000E+00  0.1111E+00  0.1111E+00
     -8.245  0.0000E+00  0.0000E+00  0.1111E+00  0.1111E+00
     -8.065  0.0000E+00  0.0000E+00  0.1111E+00  0.1111E+00
     -7.886  0.0000E+00  0.0000E+00  0.1111E+00  0.1111E+00
     -7.706  0.0000E+00  0.0000E+00  0.1111E+00  0.1111E+00
     -7.527  0.1674E-02  0.1674E-02  0.1111E+00  0.1111E+00
     -7.347  0.3316E-01  0.3316E-01  0.1135E+00  0.1135E+00
     -7.167  0.3141E-01  0.3141E-01  0.1202E+00  0.1202E+00
     -6.988  0.0000E+00  0.0000E+00  0.1212E+00  0.1212E+00
     -6.808  0.0000E+00  0.0000E+00  0.1212E+00  0.1212E+00
     -6.629  0.0000E+00  0.0000E+00  0.1212E+00  0.1212E+00
     -6.449  0.0000E+00  0.0000E+00  0.1212E+00  0.1212E+00
     -6.270  0.0000E+00  0.0000E+00  0.1212E+00  0.1212E+00
     -6.090  0.0000E+00  0.0000E+00  0.1212E+00  0.1212E+00
     -5.911  0.0000E+00  0.0000E+00  0.1212E+00  0.1212E+00
     -5.731  0.0000E+00  0.0000E+00  0.1212E+00  0.1212E+00
     -5.552  0.0000E+00  0.0000E+00  0.1212E+00  0.1212E+00
     -5.372  0.0000E+00  0.0000E+00  0.1212E+00  0.1212E+00
     -5.193  0.1290E-02  0.1290E-02  0.1212E+00  0.1212E+00
     -5.013  0.1195E-01  0.1195E-01  0.1226E+00  0.1226E+00
     -4.834  0.1241E-01  0.1241E-01  0.1248E+00  0.1248E+00
     -4.654  0.1467E-01  0.1467E-01  0.1271E+00  0.1271E+00
     -4.475  0.1370E-01  0.1370E-01  0.1298E+00  0.1298E+00
     -4.295  0.6594E-03  0.6594E-03  0.1313E+00  0.1313E+00
     -4.115  0.0000E+00  0.0000E+00  0.1313E+00  0.1313E+00
     -3.936  0.0000E+00  0.0000E+00  0.1313E+00  0.1313E+00
     -3.756  0.0000E+00  0.0000E+00  0.1313E+00  0.1313E+00
     -3.577  0.0000E+00  0.0000E+00  0.1313E+00  0.1313E+00
     -3.397  0.0000E+00  0.0000E+00  0.1313E+00  0.1313E+00
     -3.218  0.5489E-03  0.5489E-03  0.1313E+00  0.1313E+00
     -3.038  0.1997E-01  0.1997E-01  0.1327E+00  0.1327E+00
     -2.859  0.3088E-01  0.3088E-01  0.1374E+00  0.1374E+00
     -2.679  0.2235E-01  0.2235E-01  0.1411E+00  0.1411E+00
     -2.500  0.1701E-01  0.1701E-01  0.1443E+00  0.1443E+00
     -2.320  0.2874E-01  0.2874E-01  0.1486E+00  0.1486E+00
     -2.141  0.4356E-01  0.4356E-01  0.1544E+00  0.1544E+00
     -1.961  0.4594E-01  0.4594E-01  0.1627E+00  0.1627E+00
     -1.782  0.4146E-01  0.4146E-01  0.1711E+00  0.1711E+00
     -1.602  0.4631E-01  0.4631E-01  0.1804E+00  0.1804E+00
     -1.423  0.3052E-01  0.3052E-01  0.1887E+00  0.1887E+00
     -1.243  0.1222E-01  0.1222E-01  0.1920E+00  0.1920E+00
     -1.063  0.2350E-01  0.2350E-01  0.1950E+00  0.1950E+00
     -0.884  0.2347E-01  0.2347E-01  0.1997E+00  0.1997E+00
     -0.704  0.1685E-01  0.1685E-01  0.2032E+00  0.2032E+00
     -0.525  0.1234E-01  0.1234E-01  0.2056E+00  0.2056E+00
     -0.345  0.1223E-01  0.1223E-01  0.2080E+00  0.2080E+00
     -0.166  0.9616E-02  0.9616E-02  0.2100E+00  0.2100E+00
      0.014  0.6319E-02  0.6319E-02  0.2114E+00  0.2114E+00
      0.193  0.0000E+00  0.0000E+00  0.2121E+00  0.2121E+00
      0.373  0.0000E+00  0.0000E+00  0.2121E+00  0.2121E+00
      0.552  0.0000E+00  0.0000E+00  0.2121E+00  0.2121E+00
      0.732  0.0000E+00  0.0000E+00  0.2121E+00  0.2121E+00
      0.911  0.0000E+00  0.0000E+00  0.2121E+00  0.2121E+00
      1.091  0.0000E+00  0.0000E+00  0.2121E+00  0.2121E+00
      1.270  0.0000E+00  0.0000E+00  0.2121E+00  0.2121E+00
      1.450  0.0000E+00  0.0000E+00  0.2121E+00  0.2121E+00
      1.630  0.0000E+00  0.0000E+00  0.2121E+00  0.2121E+00
      1.809  0.0000E+00  0.0000E+00  0.2121E+00  0.2121E+00
      1.989  0.0000E+00  0.0000E+00  0.2121E+00  0.2121E+00
      2.168  0.0000E+00  0.0000E+00  0.2121E+00  0.2121E+00
      2.348  0.0000E+00  0.0000E+00  0.2121E+00  0.2121E+00
      2.527  0.0000E+00  0.0000E+00  0.2121E+00  0.2121E+00
      2.707  0.0000E+00  0.0000E+00  0.2121E+00  0.2121E+00
      2.886  0.0000E+00  0.0000E+00  0.2121E+00  0.2121E+00
      3.066  0.7673E-03  0.7673E-03  0.2121E+00  0.2121E+00
      3.245  0.4218E-01  0.4218E-01  0.2172E+00  0.2172E+00
      3.425  0.2031E-01  0.2031E-01  0.2233E+00  0.2233E+00
      3.604  0.3059E-01  0.3059E-01  0.2272E+00  0.2272E+00
      3.784  0.3344E-01  0.3344E-01  0.2346E+00  0.2346E+00
      3.963  0.1474E-01  0.1474E-01  0.2387E+00  0.2387E+00
      4.143  0.9365E-02  0.9365E-02  0.2406E+00  0.2406E+00
      4.322  0.9298E-02  0.9298E-02  0.2425E+00  0.2425E+00
      4.502  0.1303E-01  0.1303E-01  0.2444E+00  0.2444E+00
      4.682  0.3241E-01  0.3241E-01  0.2490E+00  0.2490E+00
      4.861  0.8634E-02  0.8634E-02  0.2529E+00  0.2529E+00
      5.041  0.4679E-01  0.4679E-01  0.2575E+00  0.2575E+00
      5.220  0.1369E-01  0.1369E-01  0.2631E+00  0.2631E+00
      5.400  0.3521E-01  0.3521E-01  0.2686E+00  0.2686E+00
      5.579  0.1294E-01  0.1294E-01  0.2729E+00  0.2729E+00
      5.759  0.3903E-01  0.3903E-01  0.2774E+00  0.2774E+00
      5.938  0.2970E-01  0.2970E-01  0.2835E+00  0.2835E+00
      6.118  0.3588E-01  0.3588E-01  0.2910E+00  0.2910E+00
      6.297  0.2154E-01  0.2154E-01  0.2955E+00  0.2955E+00
      6.477  0.2635E-01  0.2635E-01  0.3004E+00  0.3004E+00
      6.656  0.3450E-01  0.3450E-01  0.3050E+00  0.3050E+00
      6.836  0.2245E-01  0.2245E-01  0.3126E+00  0.3126E+00
      7.015  0.4905E-01  0.4905E-01  0.3173E+00  0.3173E+00
      7.195  0.3873E-01  0.3873E-01  0.3245E+00  0.3245E+00
      7.374  0.1859E-01  0.1859E-01  0.3315E+00  0.3315E+00
      7.554  0.3390E-01  0.3390E-01  0.3361E+00  0.3361E+00
      7.734  0.2976E-01  0.2976E-01  0.3431E+00  0.3431E+00
      7.913  0.4213E-01  0.4213E-01  0.3492E+00  0.3492E+00
      8.093  0.2402E-01  0.2402E-01  0.3540E+00  0.3540E+00
      8.272  0.3789E-01  0.3789E-01  0.3604E+00  0.3604E+00
      8.452  0.2466E-01  0.2466E-01  0.3654E+00  0.3654E+00
      8.631  0.3905E-01  0.3905E-01  0.3712E+00  0.3712E+00
      8.811  0.3179E-01  0.3179E-01  0.3773E+00  0.3773E+00
      8.990  0.3621E-01  0.3621E-01  0.3840E+00  0.3840E+00
      9.170  0.2092E-01  0.2092E-01  0.3871E+00  0.3871E+00
      9.349  0.1748E-01  0.1748E-01  0.3914E+00  0.3914E+00
      9.529  0.4258E-02  0.4258E-02  0.3937E+00  0.3937E+00
      9.708  0.1654E-01  0.1654E-01  0.3960E+00  0.3960E+00
      9.888  0.2060E-01  0.2060E-01  0.3990E+00  0.3990E+00
     10.067  0.2096E-01  0.2096E-01  0.4030E+00  0.4030E+00
     10.247  0.2144E-01  0.2144E-01  0.4068E+00  0.4068E+00
     10.426  0.2265E-01  0.2265E-01  0.4108E+00  0.4108E+00
     10.606  0.1767E-01  0.1767E-01  0.4147E+00  0.4147E+00
     10.786  0.2894E-01  0.2894E-01  0.4189E+00  0.4189E+00
     10.965  0.2122E-01  0.2122E-01  0.4230E+00  0.4230E+00
     11.145  0.1624E-01  0.1624E-01  0.4265E+00  0.4265E+00
     11.324  0.2149E-01  0.2149E-01  0.4293E+00  0.4293E+00
     11.504  0.2304E-01  0.2304E-01  0.4346E+00  0.4346E+00
     11.683  0.2165E-01  0.2165E-01  0.4384E+00  0.4384E+00
     11.863  0.2167E-01  0.2167E-01  0.4430E+00  0.4430E+00
     12.042  0.9077E-02  0.9077E-02  0.4452E+00  0.4452E+00
     12.222  0.2300E-01  0.2300E-01  0.4478E+00  0.4478E+00
     12.401  0.2380E-01  0.2380E-01  0.4533E+00  0.4533E+00
     12.581  0.7166E-02  0.7166E-02  0.4549E+00  0.4549E+00
     12.760  0.1824E-01  0.1824E-01  0.4570E+00  0.4570E+00
     12.940  0.2729E-01  0.2729E-01  0.4614E+00  0.4614E+00
     13.119  0.1150E-01  0.1150E-01  0.4643E+00  0.4643E+00
     13.299  0.1711E-01  0.1711E-01  0.4667E+00  0.4667E+00
     13.478  0.1553E-01  0.1553E-01  0.4719E+00  0.4719E+00
     13.658  0.1228E-01  0.1228E-01  0.4740E+00  0.4740E+00
     13.838  0.1951E-01  0.1951E-01  0.4768E+00  0.4768E+00
     14.017  0.1825E-01  0.1825E-01  0.4803E+00  0.4803E+00
     14.197  0.1130E-01  0.1130E-01  0.4834E+00  0.4834E+00
     14.376  0.2761E-02  0.2762E-02  0.4845E+00  0.4845E+00
     14.556  0.8376E-03  0.8376E-03  0.4848E+00  0.4848E+00
     14.735  0.5957E-04  0.5951E-04  0.4848E+00  0.4848E+00
     14.915  0.0000E+00  0.0000E+00  0.4848E+00  0.4848E+00
     15.094  0.0000E+00  0.0000E+00  0.4848E+00  0.4848E+00
     15.274  0.0000E+00  0.0000E+00  0.4848E+00  0.4848E+00
     15.453  0.0000E+00  0.0000E+00  0.4848E+00  0.4848E+00
     15.633  0.0000E+00  0.0000E+00  0.4848E+00  0.4848E+00
     15.812  0.0000E+00  0.0000E+00  0.4848E+00  0.4848E+00
     15.992  0.0000E+00  0.0000E+00  0.4848E+00  0.4848E+00
     16.171  0.0000E+00  0.0000E+00  0.4848E+00  0.4848E+00
     16.351  0.0000E+00  0.0000E+00  0.4848E+00  0.4848E+00
     16.530  0.0000E+00  0.0000E+00  0.4848E+00  0.4848E+00
     16.710  0.0000E+00  0.0000E+00  0.4848E+00  0.4848E+00
     16.890  0.0000E+00  0.0000E+00  0.4848E+00  0.4848E+00
     17.069  0.0000E+00  0.0000E+00  0.4848E+00  0.4848E+00
     17.249  0.0000E+00  0.0000E+00  0.4848E+00  0.4848E+00
     17.24859999    -36.61035602  301      0.10349899      1.00000000
    -36.610  0.0000E+00  0.0000E+00  0.0000E+00  0.0000E+00  0.0000E+00  0.0000E+00  0.0000E+00  0.0000E+00  0.0000E+00  0.0000E+00  0.0000E+00  0.0000E+00  0.0000E+00  0.0000E+00  0.0000E+00  0.0000E+00  0.0000E+00  0.0000E+00
    -36.431  0.0000E+00  0.0000E+00  0.0000E+00  0.0000E+00  0.0000E+00  0.0000E+00  0.0000E+00  0.0000E+00  0.0000E+00  0.0000E+00  0.0000E+00  0.0000E+00  0.0000E+00  0.0000E+00  0.0000E+00  0.0000E+00  0.0000E+00  0.0000E+00
    -36.251  0.0000E+00  0.0000E+00  0.0000E+00  0.0000E+00  0.0000E+00  0.0000E+00  0.0000E+00  0.0000E+00  0.0000E+00  0.0000E+00  0.0000E+00  0.0000E+00  0.0000E+00  0.0000E+00  0.0000E+00  0.0000E+00  0.0000E+00  0.0000E+00
    -36.072  0.0000E+00  0.0000E+00  0.0000E+00  0.0000E+00  0.0000E+00  0.0000E+00  0.0000E+00  0.0000E+00  0.0000E+00  0.0000E+00  0.0000E+00  0.0000E+00  0.0000E+00  0.0000E+00  0.0000E+00  0.0000E+00  0.0000E+00  0.0000E+00
    -35.892  0.0000E+00  0.0000E+00  0.0000E+00  0.0000E+00  0.0000E+00  0.0000E+00  0.0000E+00  0.0000E+00  0.0000E+00  0.0000E+00  0.0000E+00  0.0000E+00  0.0000E+00  0.0000E+00  0.0000E+00  0.0000E+00  0.0000E+00  0.0000E+00
    -35.713  0.0000E+00  0.0000E+00  0.0000E+00  0.0000E+00  0.0000E+00  0.0000E+00  0.0000E+00  0.0000E+00  0.0000E+00  0.0000E+00  0.0000E+00  0.0000E+00  0.0000E+00  0.0000E+00  0.0000E+00  0.0000E+00  0.0000E+00  0.0000E+00
    -35.533  0.0000E+00  0.0000E+00  0.0000E+00  0.0000E+00  0.0000E+00  0.0000E+00  0.0000E+00  0.0000E+00  0.0000E+00  0.0000E+00  0.0000E+00  0.0000E+00  0.0000E+00  0.0000E+00  0.0000E+00  0.0000E+00  0.0000E+00  0.0000E+00
    -35.354  0.0000E+00  0.0000E+00  0.0000E+00  0.0000E+00  0.0000E+00  0.0000E+00  0.0000E+00  0.0000E+00  0.0000E+00  0.0000E+00  0.0000E+00  0.0000E+00  0.0000E+00  0.0000E+00  0.0000E+00  0.0000E+00  0.0000E+00  0.0000E+00
    -35.174  0.0000E+00  0.0000E+00  0.0000E+00  0.0000E+00  0.0000E+00  0.0000E+00  0.0000E+00  0.0000E+00  0.0000E+00  0.0000E+00  0.0000E+00  0.0000E+00  0.0000E+00  0.0000E+00  0.0000E+00  0.0000E+00  0.0000E+00  0.0000E+00
    -34.995  0.0000E+00  0.0000E+00  0.0000E+00  0.0000E+00  0.0000E+00  0.0000E+00  0.0000E+00  0.0000E+00  0.0000E+00  0.0000E+00  0.0000E+00  0.0000E+00  0.0000E+00  0.0000E+00  0.0000E+00  0.0000E+00  0.0000E+00  0.0000E+00
    -34.815  0.0000E+00  0.0000E+00  0.0000E+00  0.0000E+00  0.0000E+00  0.0000E+00  0.0000E+00  0.0000E+00  0.0000E+00  0.0000E+00  0.0000E+00  0.0000E+00  0.0000E+00  0.0000E+00  0.0000E+00  0.0000E+00  0.0000E+00  0.0000E+00
    -34.636  0.0000E+00  0.0000E+00  0.0000E+00  0.0000E+00  0.0000E+00  0.0000E+00  0.0000E+00  0.0000E+00  0.0000E+00  0.0000E+00  0.0000E+00  0.0000E+00  0.0000E+00  0.0000E+00  0.0000E+00  0.0000E+00  0.0000E+00  0.0000E+00
    -34.456  0.0000E+00  0.0000E+00  0.0000E+00  0.0000E+00  0.0000E+00  0.0000E+00  0.0000E+00  0.0000E+00  0.0000E+00  0.0000E+00  0.0000E+00  0.0000E+00  0.0000E+00  0.0000E+00  0.0000E+00  0.0000E+00  0.0000E+00  0.0000E+00
    -34.276  0.0000E+00  0.0000E+00  0.0000E+00  0.0000E+00  0.0000E+00  0.0000E+00  0.0000E+00  0.0000E+00  0.0000E+00  0.0000E+00  0.0000E+00  0.0000E+00  0.0000E+00  0.0000E+00  0.0000E+00  0.0000E+00  0.0000E+00  0.0000E+00
    -34.097  0.0000E+00  0.0000E+00  0.0000E+00  0.0000E+00  0.0000E+00  0.0000E+00  0.0000E+00  0.0000E+00  0.0000E+00  0.0000E+00  0.0000E+00  0.0000E+00  0.0000E+00  0.0000E+00  0.0000E+00  0.0000E+00  0.0000E+00  0.0000E+00
    -33.917  0.0000E+00  0.0000E+00  0.0000E+00  0.0000E+00  0.0000E+00  0.0000E+00  0.0000E+00  0.0000E+00  0.0000E+00  0.0000E+00  0.0000E+00  0.0000E+00  0.0000E+00  0.0000E+00  0.0000E+00  0.0000E+00  0.0000E+00  0.0000E+00
    -33.738  0.0000E+00  0.0000E+00  0.0000E+00  0.0000E+00  0.0000E+00  0.0000E+00  0.0000E+00  0.0000E+00  0.0000E+00  0.0000E+00  0.0000E+00  0.0000E+00  0.0000E+00  0.0000E+00  0.0000E+00  0.0000E+00  0.0000E+00  0.0000E+00
    -33.558  0.0000E+00  0.0000E+00  0.0000E+00  0.0000E+00  0.0000E+00  0.0000E+00  0.0000E+00  0.0000E+00  0.0000E+00  0.0000E+00  0.0000E+00  0.0000E+00  0.0000E+00  0.0000E+00  0.0000E+00  0.0000E+00  0.0000E+00  0.0000E+00
    -33.379  0.0000E+00  0.0000E+00  0.0000E+00  0.0000E+00  0.0000E+00  0.0000E+00  0.0000E+00  0.0000E+00  0.0000E+00  0.0000E+00  0.0000E+00  0.0000E+00  0.0000E+00  0.0000E+00  0.0000E+00  0.0000E+00  0.0000E+00  0.0000E+00
    -33.199  0.0000E+00  0.0000E+00  0.0000E+00  0.0000E+00  0.0000E+00  0.0000E+00  0.0000E+00  0.0000E+00  0.0000E+00  0.0000E+00  0.0000E+00  0.0000E+00  0.0000E+00  0.0000E+00  0.0000E+00  0.0000E+00  0.0000E+00  0.0000E+00
    -33.020  0.0000E+00  0.0000E+00  0.0000E+00  0.0000E+00  0.0000E+00  0.0000E+00  0.0000E+00  0.0000E+00  0.0000E+00  0.0000E+00  0.0000E+00  0.0000E+00  0.0000E+00  0.0000E+00  0.0000E+00  0.0000E+00  0.0000E+00  0.0000E+00
    -32.840  0.0000E+00  0.0000E+00  0.0000E+00  0.0000E+00  0.0000E+00  0.0000E+00  0.0000E+00  0.0000E+00  0.0000E+00  0.0000E+00  0.0000E+00  0.0000E+00  0.0000E+00  0.0000E+00  0.0000E+00  0.0000E+00  0.0000E+00  0.0000E+00
    -32.661  0.0000E+00  0.0000E+00  0.0000E+00  0.0000E+00  0.0000E+00  0.0000E+00  0.0000E+00  0.0000E+00  0.0000E+00  0.0000E+00  0.0000E+00  0.0000E+00  0.0000E+00  0.0000E+00  0.0000E+00  0.0000E+00  0.0000E+00  0.0000E+00
    -32.481  0.0000E+00  0.0000E+00  0.0000E+00  0.0000E+00  0.0000E+00  0.0000E+00  0.0000E+00  0.0000E+00  0.0000E+00  0.0000E+00  0.0000E+00  0.0000E+00  0.0000E+00  0.0000E+00  0.0000E+00  0.0000E+00  0.0000E+00  0.0000E+00
    -32.302  0.0000E+00  0.0000E+00  0.0000E+00  0.0000E+00  0.0000E+00  0.0000E+00  0.0000E+00  0.0000E+00  0.0000E+00  0.0000E+00  0.0000E+00  0.0000E+00  0.0000E+00  0.0000E+00  0.0000E+00  0.0000E+00  0.0000E+00  0.0000E+00
    -32.122  0.0000E+00  0.0000E+00  0.0000E+00  0.0000E+00  0.0000E+00  0.0000E+00  0.0000E+00  0.0000E+00  0.0000E+00  0.0000E+00  0.0000E+00  0.0000E+00  0.0000E+00  0.0000E+00  0.0000E+00  0.0000E+00  0.0000E+00  0.0000E+00
    -31.943  0.0000E+00  0.0000E+00  0.0000E+00  0.0000E+00  0.0000E+00  0.0000E+00  0.0000E+00  0.0000E+00  0.0000E+00  0.0000E+00  0.0000E+00  0.0000E+00  0.0000E+00  0.0000E+00  0.0000E+00  0.0000E+00  0.0000E+00  0.0000E+00
    -31.763  0.0000E+00  0.0000E+00  0.0000E+00  0.0000E+00  0.0000E+00  0.0000E+00  0.0000E+00  0.0000E+00  0.0000E+00  0.0000E+00  0.0000E+00  0.0000E+00  0.0000E+00  0.0000E+00  0.0000E+00  0.0000E+00  0.0000E+00  0.0000E+00
    -31.584  0.0000E+00  0.0000E+00  0.0000E+00  0.0000E+00  0.0000E+00  0.0000E+00  0.0000E+00  0.0000E+00  0.0000E+00  0.0000E+00  0.0000E+00  0.0000E+00  0.0000E+00  0.0000E+00  0.0000E+00  0.0000E+00  0.0000E+00  0.0000E+00
    -31.404  0.0000E+00  0.0000E+00  0.0000E+00  0.0000E+00  0.0000E+00  0.0000E+00  0.0000E+00  0.0000E+00  0.0000E+00  0.0000E+00  0.0000E+00  0.0000E+00  0.0000E+00  0.0000E+00  0.0000E+00  0.0000E+00  0.0000E+00  0.0000E+00
    -31.224  0.0000E+00  0.0000E+00  0.0000E+00  0.0000E+00  0.0000E+00  0.0000E+00  0.0000E+00  0.0000E+00  0.0000E+00  0.0000E+00  0.0000E+00  0.0000E+00  0.0000E+00  0.0000E+00  0.0000E+00  0.0000E+00  0.0000E+00  0.0000E+00
    -31.045  0.0000E+00  0.0000E+00  0.0000E+00  0.0000E+00  0.0000E+00  0.0000E+00  0.0000E+00  0.0000E+00  0.0000E+00  0.0000E+00  0.0000E+00  0.0000E+00  0.0000E+00  0.0000E+00  0.0000E+00  0.0000E+00  0.0000E+00  0.0000E+00
    -30.865  0.0000E+00  0.0000E+00  0.0000E+00  0.0000E+00  0.0000E+00  0.0000E+00  0.0000E+00  0.0000E+00  0.0000E+00  0.0000E+00  0.0000E+00  0.0000E+00  0.0000E+00  0.0000E+00  0.0000E+00  0.0000E+00  0.0000E+00  0.0000E+00
    -30.686  0.0000E+00  0.0000E+00  0.0000E+00  0.0000E+00  0.0000E+00  0.0000E+00  0.0000E+00  0.0000E+00  0.0000E+00  0.0000E+00  0.0000E+00  0.0000E+00  0.0000E+00  0.0000E+00  0.0000E+00  0.0000E+00  0.0000E+00  0.0000E+00
    -30.506  0.0000E+00  0.0000E+00  0.0000E+00  0.0000E+00  0.0000E+00  0.0000E+00  0.0000E+00  0.0000E+00  0.0000E+00  0.0000E+00  0.0000E+00  0.0000E+00  0.0000E+00  0.0000E+00  0.0000E+00  0.0000E+00  0.0000E+00  0.0000E+00
    -30.327  0.0000E+00  0.0000E+00  0.0000E+00  0.0000E+00  0.0000E+00  0.0000E+00  0.0000E+00  0.0000E+00  0.0000E+00  0.0000E+00  0.0000E+00  0.0000E+00  0.0000E+00  0.0000E+00  0.0000E+00  0.0000E+00  0.0000E+00  0.0000E+00
    -30.147  0.0000E+00  0.0000E+00  0.0000E+00  0.0000E+00  0.0000E+00  0.0000E+00  0.0000E+00  0.0000E+00  0.0000E+00  0.0000E+00  0.0000E+00  0.0000E+00  0.0000E+00  0.0000E+00  0.0000E+00  0.0000E+00  0.0000E+00  0.0000E+00
    -29.968  0.0000E+00  0.0000E+00  0.0000E+00  0.0000E+00  0.0000E+00  0.0000E+00  0.0000E+00  0.0000E+00  0.0000E+00  0.0000E+00  0.0000E+00  0.0000E+00  0.0000E+00  0.0000E+00  0.0000E+00  0.0000E+00  0.0000E+00  0.0000E+00
    -29.788  0.0000E+00  0.0000E+00  0.0000E+00  0.0000E+00  0.0000E+00  0.0000E+00  0.0000E+00  0.0000E+00  0.0000E+00  0.0000E+00  0.0000E+00  0.0000E+00  0.0000E+00  0.0000E+00  0.0000E+00  0.0000E+00  0.0000E+00  0.0000E+00
    -29.609  0.0000E+00  0.0000E+00  0.0000E+00  0.0000E+00  0.0000E+00  0.0000E+00  0.0000E+00  0.0000E+00  0.0000E+00  0.0000E+00  0.0000E+00  0.0000E+00  0.0000E+00  0.0000E+00  0.0000E+00  0.0000E+00  0.0000E+00  0.0000E+00
    -29.429  0.0000E+00  0.0000E+00  0.0000E+00  0.0000E+00  0.0000E+00  0.0000E+00  0.0000E+00  0.0000E+00  0.0000E+00  0.0000E+00  0.0000E+00  0.0000E+00  0.0000E+00  0.0000E+00  0.0000E+00  0.0000E+00  0.0000E+00  0.0000E+00
    -29.250  0.0000E+00  0.0000E+00  0.0000E+00  0.0000E+00  0.0000E+00  0.0000E+00  0.0000E+00  0.0000E+00  0.0000E+00  0.0000E+00  0.0000E+00  0.0000E+00  0.0000E+00  0.0000E+00  0.0000E+00  0.0000E+00  0.0000E+00  0.0000E+00
    -29.070  0.0000E+00  0.0000E+00  0.0000E+00  0.0000E+00  0.0000E+00  0.0000E+00  0.0000E+00  0.0000E+00  0.0000E+00  0.0000E+00  0.0000E+00  0.0000E+00  0.0000E+00  0.0000E+00  0.0000E+00  0.0000E+00  0.0000E+00  0.0000E+00
    -28.891  0.0000E+00  0.0000E+00  0.0000E+00  0.0000E+00  0.0000E+00  0.0000E+00  0.0000E+00  0.0000E+00  0.0000E+00  0.0000E+00  0.0000E+00  0.0000E+00  0.0000E+00  0.0000E+00  0.0000E+00  0.0000E+00  0.0000E+00  0.0000E+00
    -28.711  0.0000E+00  0.0000E+00  0.0000E+00  0.0000E+00  0.0000E+00  0.0000E+00  0.0000E+00  0.0000E+00  0.0000E+00  0.0000E+00  0.0000E+00  0.0000E+00  0.0000E+00  0.0000E+00  0.0000E+00  0.0000E+00  0.0000E+00  0.0000E+00
    -28.532  0.0000E+00  0.0000E+00  0.0000E+00  0.0000E+00  0.0000E+00  0.0000E+00  0.0000E+00  0.0000E+00  0.0000E+00  0.0000E+00  0.0000E+00  0.0000E+00  0.0000E+00  0.0000E+00  0.0000E+00  0.0000E+00  0.0000E+00  0.0000E+00
    -28.352  0.0000E+00  0.0000E+00  0.0000E+00  0.0000E+00  0.0000E+00  0.0000E+00  0.0000E+00  0.0000E+00  0.0000E+00  0.0000E+00  0.0000E+00  0.0000E+00  0.0000E+00  0.0000E+00  0.0000E+00  0.0000E+00  0.0000E+00  0.0000E+00
    -28.172  0.0000E+00  0.0000E+00  0.0000E+00  0.0000E+00  0.0000E+00  0.0000E+00  0.0000E+00  0.0000E+00  0.0000E+00  0.0000E+00  0.0000E+00  0.0000E+00  0.0000E+00  0.0000E+00  0.0000E+00  0.0000E+00  0.0000E+00  0.0000E+00
    -27.993  0.0000E+00  0.0000E+00  0.0000E+00  0.0000E+00  0.0000E+00  0.0000E+00  0.0000E+00  0.0000E+00  0.0000E+00  0.0000E+00  0.0000E+00  0.0000E+00  0.0000E+00  0.0000E+00  0.0000E+00  0.0000E+00  0.0000E+00  0.0000E+00
    -27.813  0.0000E+00  0.0000E+00  0.0000E+00  0.0000E+00  0.0000E+00  0.0000E+00  0.0000E+00  0.0000E+00  0.0000E+00  0.0000E+00  0.0000E+00  0.0000E+00  0.0000E+00  0.0000E+00  0.0000E+00  0.0000E+00  0.0000E+00  0.0000E+00
    -27.634  0.0000E+00  0.0000E+00  0.0000E+00  0.0000E+00  0.0000E+00  0.0000E+00  0.0000E+00  0.0000E+00  0.0000E+00  0.0000E+00  0.0000E+00  0.0000E+00  0.0000E+00  0.0000E+00  0.0000E+00  0.0000E+00  0.0000E+00  0.0000E+00