unknown system                          
           1
     4.996896    0.457781   -0.462911
    -0.386238    5.054046    0.092214
    -1.873793   -0.411487    5.690049
   Sr   Nb   H 
   2   1  11
Direct configuration=     1
   0.11852700  0.74605400  0.97162100
   0.39489800  0.25563800  0.53988800
   0.69576400  0.25605800  0.13322800
   0.31370300  0.76628100  0.63432000
   0.17406500  0.75515800  0.51518400
   0.52715700  0.99786900  0.25576100
   0.86468200  0.26342000  0.47264700
   0.98790000  0.50940500  0.25322700
   0.50860500  0.50344900  0.26038400
   0.58464100  0.54395700  0.92997500
   0.30474300  0.24155700  0.92949000
   0.88339900  0.26595200  0.92574700
   0.00308500  0.01828100  0.24517200
   0.61085800  0.96575000  0.91900900
unknown system                          
           1
     5.042661    0.461495   -0.467303
    -0.390376    5.101558    0.093035
    -1.891091   -0.415170    5.742222
   Sr   Nb   H 
   2   1  11
Direct configuration=     2
   0.11866944  0.74624625  0.97204411
   0.39479956  0.25561045  0.53966500
   0.69596583  0.25629134  0.13318523
   0.31369189  0.76610873  0.63426752
   0.17421941  0.75522915  0.51524558
   0.52711381  0.99824550  0.25566243
   0.86450838  0.26326240  0.47216484
   0.98775626  0.50894968  0.25302128
   0.50883735  0.50329777  0.26024532
   0.58481620  0.54342430  0.93014795
   0.30536442  0.24184158  0.92972722
   0.88297245  0.26575030  0.92601841
   0.00264527  0.01843850  0.24502779
   0.61066672  0.96613306  0.91923030
unknown system                          
           1
     5.137317    0.469177   -0.476387
    -0.398936    5.199826    0.094734
    -1.926869   -0.422788    5.850131
   Sr   Nb   H 
   2   1  11
Direct configuration=     3
   0.11896143  0.74664018  0.97291129
   0.39459779  0.25555399  0.53920797
   0.69637953  0.25676949  0.13309761
   0.31366909  0.76575574  0.63415996
   0.17453590  0.75537495  0.51537179
   0.52702538  0.99901693  0.25546043
   0.86415248  0.26293945  0.47117665
   0.98746156  0.50801671  0.25259963
   0.50931354  0.50298795  0.25996112
   0.58517518  0.54233284  0.93050241
   0.30663812  0.24242480  0.93021344
   0.88209820  0.26533693  0.92657463
   0.00174404  0.01876115  0.24473221
   0.61027477  0.96691789  0.91968384
unknown system                          
           1
     5.089107    0.465265   -0.471761
    -0.394576    5.149776    0.093869
    -1.908646   -0.418908    5.795171
   Sr   Nb   H 
   2   1  11
Direct configuration=     4
   0.11881538  0.74644333  0.97247775
   0.39469868  0.25558221  0.53943646
   0.69617265  0.25653052  0.13314140
   0.31368053  0.76593212  0.63421374
   0.17437765  0.75530207  0.51530868
   0.52706951  0.99863146  0.25556141
   0.86433047  0.26310084  0.47167069
   0.98760901  0.50848293  0.25281045
   0.50907551  0.50314271  0.26010319
   0.58499582  0.54287821  0.93032522
   0.30600126  0.24213326  0.92997032
   0.88253532  0.26554358  0.92629659
   0.00219458  0.01860001  0.24488000
   0.61047063  0.96652576  0.91945710
unknown system                          
           1
     5.072493    0.463646   -0.472522
    -0.394379    5.143568    0.093808
    -1.905254   -0.417889    5.773469
   Sr   Nb   H 
   2   1  11
Direct configuration=     5
   0.11996319  0.74653294  0.97473674
   0.39436927  0.25554072  0.53868315
   0.69533159  0.25584053  0.13251771
   0.31003825  0.76552617  0.63123604
   0.17815687  0.75560062  0.51847239
   0.52757682  0.00088208  0.25467078
   0.86319473  0.26295864  0.46910617
   0.98645120  0.50669892  0.25193728
   0.50989323  0.50140728  0.25921596
   0.58563327  0.54073214  0.93136585
   0.30909950  0.24255569  0.93124859
   0.88096079  0.26544635  0.92757159
   0.00055281  0.02025434  0.24412176
   0.61080545  0.96885259  0.92076897
unknown system                          
           1
     5.079064    0.464286   -0.472221
    -0.394457    5.146023    0.093832
    -1.906596   -0.418292    5.782052
   Sr   Nb   H 
   2   1  11
Direct configuration=     6
   0.11950699  0.74649740  0.97383972
   0.39450023  0.25555717  0.53898227
   0.69566557  0.25611377  0.13276545
   0.31148462  0.76568702  0.63241880
   0.17665611  0.75548229  0.51721577
   0.52737572 -0.00000909  0.25502429
   0.86364624  0.26301500  0.47012449
   0.98691098  0.50740536  0.25228412
   0.50956902  0.50209446  0.25956806
   0.58538002  0.54158189  0.93095261
   0.30786956  0.24238835  0.93074060
   0.88158526  0.26548485  0.92706567
   0.00120455  0.01959931  0.24442306
   0.61067213  0.96793121  0.92024810
unknown system                          
           1
     5.075899    0.463924   -0.469832
    -0.395166    5.154065    0.094930
    -1.903117   -0.417114    5.778275
   Sr   Nb   H 
   2   1  11
Direct configuration=     7
   0.12107663  0.74662715  0.97697403
   0.39410703  0.25553514  0.53795726
   0.69514346  0.25570425  0.13234474
   0.31295868  0.76562117  0.63382654
   0.17540177  0.75544854  0.51613024
   0.52775170  0.00262960  0.25398647
   0.86234908  0.26279821  0.46713641
   0.98556700  0.50513293  0.25115744
   0.51046149  0.50001276  0.25852385
   0.58607164  0.53908288  0.93206636
   0.31107186  0.24292943  0.93197133
   0.87979755  0.26531683  0.92841351
  -0.00064130  0.02148833  0.24351738
   0.61091041  0.97050177  0.92164744
unknown system                          
           1
     5.075520    0.463881   -0.469546
    -0.395251    5.155027    0.095061
    -1.902701   -0.416973    5.777823
   Sr   Nb   H 
   2   1  11
Direct configuration=     8
   0.12126424  0.74664259  0.97734899
   0.39406004  0.25553253  0.53783463
   0.69508102  0.25565536  0.13229443
   0.31313496  0.76561329  0.63399492
   0.17525177  0.75544453  0.51600041
   0.52779673  0.00294466  0.25386222
   0.86219406  0.26277237  0.46677894
   0.98540628  0.50486163  0.25102273
   0.51056833  0.49976424  0.25839891
   0.58615433  0.53878450  0.93219965
   0.31145491  0.24299401  0.93211843
   0.87958359  0.26529675  0.92857487
  -0.00086210  0.02171388  0.24340905
   0.61093883  0.97080866  0.92181482
unknown system                          
           1
     5.085126    0.464411   -0.470715
    -0.397422    5.177839    0.096639
    -1.906401   -0.416790    5.791781
   Sr   Nb   H 
   2   1  11
Direct configuration=     9
   0.12248389  0.74671334  0.97969899
   0.39376098  0.25551953  0.53736222
   0.69632138  0.25691661  0.13315655
   0.31254612  0.76536526  0.63359811
   0.17601838  0.75552397  0.51671889
   0.52731767  0.00425129  0.25330477
   0.86150461  0.26248228  0.46523645
   0.98492705  0.50334437  0.25033033
   0.51071874  0.49854488  0.25781939
   0.58631194  0.53754566  0.93242670
   0.31218339  0.24336355  0.93216562
   0.87882083  0.26505431  0.92875436
  -0.00151735  0.02251912  0.24297757
   0.61062937  0.97168482  0.92210306
unknown system                          
           1
     5.101485    0.465312   -0.472705
    -0.401119    5.216686    0.099325
    -1.912703   -0.416478    5.815551
   Sr   Nb   H 
   2   1  11
Direct configuration=    10
   0.12455621  0.74683257  0.98369129
   0.39325279  0.25549763  0.53655966
   0.69842942  0.25905477  0.13462082
   0.31154537  0.76494484  0.63292404
   0.17732121  0.75565850  0.51793947
   0.52650360  0.00646671  0.25235727
   0.86033321  0.26199095  0.46261609
   0.98411269  0.50077218  0.24915454
   0.51097458  0.49647779  0.25683533
   0.58657975  0.53544527  0.93281285
   0.31342162  0.24399014  0.93224572
   0.87752424  0.26464311  0.92905929
  -0.00263096  0.02388442  0.24224422
   0.61010328  0.97317014  0.92259242
unknown system                          
           1
     5.092939    0.464841   -0.471665
    -0.399188    5.196392    0.097922
    -1.909411   -0.416641    5.803134
   Sr   Nb   H 
   2   1  11
Direct configuration=    11
   0.12347776  0.74677137  0.98161422
   0.39351729  0.25550886  0.53697721
   0.69733191  0.25794630  0.13385931
   0.31206639  0.76516276  0.63327470
   0.17664298  0.75558890  0.51730443
   0.52692734  0.00531790  0.25285063
   0.86094275  0.26224528  0.46397930
   0.98453658  0.50210567  0.24976583
   0.51084119  0.49754936  0.25734692
   0.58644037  0.53653436  0.93261158
   0.31277683  0.24366520  0.93220410
   0.87819948  0.26485645  0.92890063
  -0.00205119  0.02317645  0.24262603
   0.61037731  0.97240014  0.92233811
unknown system                          
           1
     5.094154    0.465060   -0.471022
    -0.399529    5.201608    0.097861
    -1.908421   -0.417066    5.810606
   Sr   Nb   H 
   2   1  11
Direct configuration=    12
   0.12405884  0.74684394  0.98249900
   0.39374869  0.25549471  0.53737351
   0.69316197  0.25442333  0.13020437
   0.31346450  0.76516162  0.63448270
   0.17531026  0.75550459  0.51634154
   0.52684316  0.00604312  0.25287296
   0.86157821  0.26231141  0.46491697
   0.98593933  0.50268728  0.25021149
   0.51062124  0.49776570  0.25765147
   0.58650758  0.53694096  0.93241395
   0.31319170  0.24407618  0.93235957
   0.87859958  0.26500347  0.92861231
  -0.00151382  0.02336590  0.24289071
   0.61051577  0.97320681  0.92282245
unknown system                          
           1
     5.093514    0.464945   -0.471361
    -0.399349    5.198858    0.097893
    -1.908943   -0.416842    5.806666
   Sr   Nb   H 
   2   1  11
Direct configuration=    13
   0.12375285  0.74680570  0.98203312
   0.39362685  0.25550216  0.53716484
   0.69535881  0.25627915  0.13212880
   0.31272793  0.76516222  0.63384667
   0.17601245  0.75554900  0.51684850
   0.52688755  0.00566109  0.25286118
   0.86124357  0.26227657  0.46442324
   0.98520003  0.50238091  0.24997690
   0.51073730  0.49765173  0.25749108
   0.58647208  0.53672678  0.93251802
   0.31297306  0.24385968  0.93227772
   0.87838857  0.26492603  0.92876416
  -0.00179700  0.02326611  0.24275137
   0.61044296  0.97278187  0.92256740
