Automatically generated mesh
      58
Reciprocal lattice
    0.00000000000000    0.00000000000000    0.00000000000000             1
    0.14285714285714    0.00000000000000    0.00000000000000             2
    0.28571428571429    0.00000000000000    0.00000000000000             2
    0.42857142857143    0.00000000000000    0.00000000000000             2
    0.00000000000000    0.25000000000000    0.00000000000000             2
    0.14285714285714    0.25000000000000    0.00000000000000             2
    0.28571428571429    0.25000000000000    0.00000000000000             2
    0.42857142857143    0.25000000000000    0.00000000000000             2
   -0.42857142857143    0.25000000000000    0.00000000000000             2
   -0.28571428571429    0.25000000000000    0.00000000000000             2
   -0.14285714285714    0.25000000000000    0.00000000000000             2
    0.00000000000000    0.50000000000000    0.00000000000000             1
    0.14285714285714    0.50000000000000    0.00000000000000             2
    0.28571428571429    0.50000000000000    0.00000000000000             2
    0.42857142857143    0.50000000000000    0.00000000000000             2
    0.00000000000000    0.00000000000000    0.25000000000000             2
    0.14285714285714    0.00000000000000    0.25000000000000             2
    0.28571428571429    0.00000000000000    0.25000000000000             2
    0.42857142857143    0.00000000000000    0.25000000000000             2
   -0.42857142857143    0.00000000000000    0.25000000000000             2
   -0.28571428571429    0.00000000000000    0.25000000000000             2
   -0.14285714285714    0.00000000000000    0.25000000000000             2
    0.00000000000000    0.25000000000000    0.25000000000000             2
    0.14285714285714    0.25000000000000    0.25000000000000             2
    0.28571428571429    0.25000000000000    0.25000000000000             2
    0.42857142857143    0.25000000000000    0.25000000000000             2
   -0.42857142857143    0.25000000000000    0.25000000000000             2
   -0.28571428571429    0.25000000000000    0.25000000000000             2
   -0.14285714285714    0.25000000000000    0.25000000000000             2
    0.00000000000000    0.50000000000000    0.25000000000000             2
    0.14285714285714    0.50000000000000    0.25000000000000             2
    0.28571428571429    0.50000000000000    0.25000000000000             2
    0.42857142857143    0.50000000000000    0.25000000000000             2
   -0.42857142857143    0.50000000000000    0.25000000000000             2
   -0.28571428571429    0.50000000000000    0.25000000000000             2
   -0.14285714285714    0.50000000000000    0.25000000000000             2
    0.00000000000000   -0.25000000000000    0.25000000000000             2
    0.14285714285714   -0.25000000000000    0.25000000000000             2
    0.28571428571429   -0.25000000000000    0.25000000000000             2
    0.42857142857143   -0.25000000000000    0.25000000000000             2
   -0.42857142857143   -0.25000000000000    0.25000000000000             2
   -0.28571428571429   -0.25000000000000    0.25000000000000             2
   -0.14285714285714   -0.25000000000000    0.25000000000000             2
    0.00000000000000    0.00000000000000    0.50000000000000             1
    0.14285714285714    0.00000000000000    0.50000000000000             2
    0.28571428571429    0.00000000000000    0.50000000000000             2
    0.42857142857143    0.00000000000000    0.50000000000000             2
    0.00000000000000    0.25000000000000    0.50000000000000             2
    0.14285714285714    0.25000000000000    0.50000000000000             2
    0.28571428571429    0.25000000000000    0.50000000000000             2
    0.42857142857143    0.25000000000000    0.50000000000000             2
   -0.42857142857143    0.25000000000000    0.50000000000000             2
   -0.28571428571429    0.25000000000000    0.50000000000000             2
   -0.14285714285714    0.25000000000000    0.50000000000000             2
    0.00000000000000    0.50000000000000    0.50000000000000             1
    0.14285714285714    0.50000000000000    0.50000000000000             2
    0.28571428571429    0.50000000000000    0.50000000000000             2
    0.42857142857143    0.50000000000000    0.50000000000000             2
Tetrahedra
       336    0.00148809523810
         2         1         2         5        17
         2         2         5         6        17
         2         5         6        17        24
         2         1         5        16        17
         2         5        16        17        23
         2         5        17        23        24
         2         2         3         6        18
         2         3         6         7        18
         2         6         7        18        25
         2         2         6        17        18
         2         6        17        18        24
         2         6        18        24        25
         2         3         4         7        19
         2         4         7         8        19
         2         7         8        19        26
         2         3         7        18        19
         2         7        18        19        25
         2         7        19        25        26
         2         4         4         8        20
         2         4         8         9        20
         2         8         9        20        27
         2         4         8        19        20
         2         8        19        20        26
         2         8        20        26        27
         2         3         4         9        21
         2         3         9        10        21
         2         9        10        21        28
         2         4         9        20        21
         2         9        20        21        27
         2         9        21        27        28
         2         2         3        10        22
         2         2        10        11        22
         2        10        11        22        29
         2         3        10        21        22
         2        10        21        22        28
         2        10        22        28        29
         2         1         2        11        16
         2         1         5        11        16
         2         5        11        16        23
         2         2        11        16        22
         2        11        16        22        29
         2        11        16        23        29
         2         5         6        12        24
         2         6        12        13        24
         2        12        13        24        31
         2         5        12        23        24
         2        12        23        24        30
         2        12        24        30        31
         2         6         7        13        25
         2         7        13        14        25
         2        13        14        25        32
         2         6        13        24        25
         2        13        24        25        31
         2        13        25        31        32
         2         7         8        14        26
         2         8        14        15        26
         2        14        15        26        33
         2         7        14        25        26
         2        14        25        26        32
         2        14        26        32        33
         2         8         9        15        27
         2         9        15        15        27
         2        15        15        27        34
         2         8        15        26        27
         2        15        26        27        33
         2        15        27        33        34
         2         9        10        15        28
         2        10        14        15        28
         2        14        15        28        35
         2         9        15        27        28
         2        15        27        28        34
         2        15        28        34        35
         2        10        11        14        29
         2        11        13        14        29
         2        13        14        29        36
         2        10        14        28        29
         2        14        28        29        35
         2        14        29        35        36
         2         5        11        13        23
         2         5        12        13        23
         2        12        13        23        30
         2        11        13        23        29
         2        13        23        29        36
         2        13        23        30        36
         2         5        12        13        31
         2         5        11        13        31
         2         5        11        31        38
         2         5        12        30        31
         2         5        30        31        37
         2         5        31        37        38
         2        11        13        14        32
         2        10        11        14        32
         2        10        11        32        39
         2        11        13        31        32
         2        11        31        32        38
         2        11        32        38        39
         2        10        14        15        33
         2         9        10        15        33
         2         9        10        33        40
         2        10        14        32        33
         2        10        32        33        39
         2        10        33        39        40
         2         9        15        15        34
         2         8         9        15        34
         2         8         9        34        41
         2         9        15        33        34
         2         9        33        34        40
         2         9        34        40        41
         2         8        14        15        35
         2         7         8        14        35
         2         7         8        35        42
         2         8        15        34        35
         2         8        34        35        41
         2         8        35        41        42
         2         7        13        14        36
         2         6         7        13        36
         2         6         7        36        43
         2         7        14        35        36
         2         7        35        36        42
         2         7        36        42        43
         2         6        12        13        30
         2         5         6        12        30
         2         5         6        30        37
         2         6        13        30        36
         2         6        30        36        43
         2         6        30        37        43
         2         1         5        11        38
         2         1         2        11        38
         2         1         2        17        38
         2         1         5        37        38
         2         1        16        37        38
         2         1        16        17        38
         2         2        10        11        39
         2         2         3        10        39
         2         2         3        18        39
         2         2        11        38        39
         2         2        17        38        39
         2         2        17        18        39
         2         3         9        10        40
         2         3         4         9        40
         2         3         4        19        40
         2         3        10        39        40
         2         3        18        39        40
         2         3        18        19        40
         2         4         8         9        41
         2         4         4         8        41
         2         4         4        20        41
         2         4         9        40        41
         2         4        19        40        41
         2         4        19        20        41
         2         4         7         8        42
         2         3         4         7        42
         2         3         4        21        42
         2         4         8        41        42
         2         4        20        41        42
         2         4        20        21        42
         2         3         6         7        43
         2         2         3         6        43
         2         2         3        22        43
         2         3         7        42        43
         2         3        21        42        43
         2         3        21        22        43
         2         2         5         6        37
         2         1         2         5        37
         2         1         2        16        37
         2         2         6        37        43
         2         2        22        37        43
         2         2        16        22        37
         2        16        17        23        45
         2        17        23        24        45
         2        23        24        45        49
         2        16        23        44        45
         2        23        44        45        48
         2        23        45        48        49
         2        17        18        24        46
         2        18        24        25        46
         2        24        25        46        50
         2        17        24        45        46
         2        24        45        46        49
         2        24        46        49        50
         2        18        19        25        47
         2        19        25        26        47
         2        25        26        47        51
         2        18        25        46        47
         2        25        46        47        50
         2        25        47        50        51
         2        19        20        26        47
         2        20        26        27        47
         2        26        27        47        52
         2        19        26        47        47
         2        26        47        47        51
         2        26        47        51        52
         2        20        21        27        46
         2        21        27        28        46
         2        27        28        46        53
         2        20        27        46        47
         2        27        46        47        52
         2        27        46        52        53
         2        21        22        28        45
         2        22        28        29        45
         2        28        29        45        54
         2        21        28        45        46
         2        28        45        46        53
         2        28        45        53        54
         2        16        22        29        44
         2        16        23        29        44
         2        23        29        44        48
         2        22        29        44        45
         2        29        44        45        54
         2        29        44        48        54
         2        23        24        30        49
         2        24        30        31        49
         2        30        31        49        56
         2        23        30        48        49
         2        30        48        49        55
         2        30        49        55        56
         2        24        25        31        50
         2        25        31        32        50
         2        31        32        50        57
         2        24        31        49        50
         2        31        49        50        56
         2        31        50        56        57
         2        25        26        32        51
         2        26        32        33        51
         2        32        33        51        58
         2        25        32        50        51
         2        32        50        51        57
         2        32        51        57        58
         2        26        27        33        52
         2        27        33        34        52
         2        33        34        52        58
         2        26        33        51        52
         2        33        51        52        58
         2        33        52        58        58
         2        27        28        34        53
         2        28        34        35        53
         2        34        35        53        57
         2        27        34        52        53
         2        34        52        53        58
         2        34        53        57        58
         2        28        29        35        54
         2        29        35        36        54
         2        35        36        54        56
         2        28        35        53        54
         2        35        53        54        57
         2        35        54        56        57
         2        23        29        36        48
         2        23        30        36        48
         2        30        36        48        55
         2        29        36        48        54
         2        36        48        54        56
         2        36        48        55        56
         2        30        31        37        56
         2        31        37        38        56
         2        37        38        54        56
         2        30        37        55        56
         2        37        48        55        56
         2        37        48        54        56
         2        31        32        38        57
         2        32        38        39        57
         2        38        39        53        57
         2        31        38        56        57
         2        38        54        56        57
         2        38        53        54        57
         2        32        33        39        58
         2        33        39        40        58
         2        39        40        52        58
         2        32        39        57        58
         2        39        53        57        58
         2        39        52        53        58
         2        33        34        40        58
         2        34        40        41        58
         2        40        41        51        58
         2        33        40        58        58
         2        40        52        58        58
         2        40        51        52        58
         2        34        35        41        57
         2        35        41        42        57
         2        41        42        50        57
         2        34        41        57        58
         2        41        51        57        58
         2        41        50        51        57
         2        35        36        42        56
         2        36        42        43        56
         2        42        43        49        56
         2        35        42        56        57
         2        42        50        56        57
         2        42        49        50        56
         2        30        36        43        55
         2        30        37        43        55
         2        37        43        48        55
         2        36        43        55        56
         2        43        49        55        56
         2        43        48        49        55
         2        16        37        38        54
         2        16        17        38        54
         2        16        17        45        54
         2        16        37        48        54
         2        16        44        48        54
         2        16        44        45        54
         2        17        38        39        53
         2        17        18        39        53
         2        17        18        46        53
         2        17        38        53        54
         2        17        45        53        54
         2        17        45        46        53
         2        18        39        40        52
         2        18        19        40        52
         2        18        19        47        52
         2        18        39        52        53
         2        18        46        52        53
         2        18        46        47        52
         2        19        40        41        51
         2        19        20        41        51
         2        19        20        47        51
         2        19        40        51        52
         2        19        47        51        52
         2        19        47        47        51
         2        20        41        42        50
         2        20        21        42        50
         2        20        21        46        50
         2        20        41        50        51
         2        20        47        50        51
         2        20        46        47        50
         2        21        42        43        49
         2        21        22        43        49
         2        21        22        45        49
         2        21        42        49        50
         2        21        46        49        50
         2        21        45        46        49
         2        22        37        43        48
         2        16        22        37        48
         2        16        22        44        48
         2        22        43        48        49
         2        22        45        48        49
         2        22        44        45        48
