       N       E                     dE             d eps       ncg     rms          rms(c)
DAV:   1     0.211602977788E+03    0.21160E+03   -0.18500E+04  7424   0.110E+03
DAV:   2    -0.261004415562E+02   -0.23770E+03   -0.23143E+03  8816   0.296E+02
DAV:   3    -0.404058413384E+02   -0.14305E+02   -0.14225E+02 14672   0.596E+01
DAV:   4    -0.406444700556E+02   -0.23863E+00   -0.23860E+00  8112   0.684E+00
DAV:   5    -0.406548698211E+02   -0.10400E-01   -0.10396E-01 12912   0.116E+00    0.364E+01
RMM:   6    -0.402662127264E+02    0.38866E+00   -0.86458E+00  8309   0.112E+01    0.177E+01
RMM:   7    -0.396246045689E+02    0.64161E+00   -0.20388E+00  8613   0.633E+00    0.955E+00
RMM:   8    -0.395947512697E+02    0.29853E-01   -0.40300E-01  8402   0.390E+00    0.423E+00
RMM:   9    -0.396179398459E+02   -0.23189E-01   -0.10771E-01  8909   0.186E+00    0.165E+00
RMM:  10    -0.396151654669E+02    0.27744E-02   -0.18520E-02  8567   0.808E-01    0.722E-01
RMM:  11    -0.396135714396E+02    0.15940E-02   -0.89727E-03  7892   0.515E-01    0.262E-01
RMM:  12    -0.396134460314E+02    0.12541E-03   -0.22167E-03  6790   0.290E-01
   1 F= -.39613446E+02 E0= -.39613446E+02  d E =-.396134E+02  mag=     1.1721
       N       E                     dE             d eps       ncg     rms          rms(c)
DAV:   1    -0.398683576495E+02   -0.25479E+00   -0.52810E+00 11104   0.147E+01    0.449E+00
RMM:   2    -0.397002440065E+02    0.16811E+00   -0.60708E-01  8307   0.442E+00    0.132E+00
RMM:   3    -0.396689765201E+02    0.31267E-01   -0.79283E-02  8813   0.233E+00    0.119E+00
RMM:   4    -0.396609664326E+02    0.80101E-02   -0.21696E-02  8634   0.848E-01    0.117E+00
RMM:   5    -0.396605662972E+02    0.40014E-03   -0.74374E-03  8028   0.925E-01    0.725E-01
RMM:   6    -0.396601200368E+02    0.44626E-03   -0.92161E-03  9039   0.400E-01    0.165E-01
RMM:   7    -0.396602463076E+02   -0.12627E-03   -0.20170E-03  6845   0.343E-01
   2 F= -.39660246E+02 E0= -.39660246E+02  d E =-.468003E-01  mag=     1.3130
       N       E                     dE             d eps       ncg     rms          rms(c)
DAV:   1    -0.397858946070E+02   -0.12577E+00   -0.31006E+00  7488   0.112E+01    0.333E+00
RMM:   2    -0.396882702707E+02    0.97624E-01   -0.33617E-01  8386   0.334E+00    0.984E-01
RMM:   3    -0.396711119720E+02    0.17158E-01   -0.45537E-02  8715   0.169E+00    0.852E-01
RMM:   4    -0.396670626800E+02    0.40493E-02   -0.11084E-02  7988   0.628E-01    0.831E-01
RMM:   5    -0.396668656510E+02    0.19703E-03   -0.38690E-03  7143   0.712E-01
   3 F= -.39666866E+02 E0= -.39666866E+02  d E =-.534196E-01  mag=     1.3747
       N       E                     dE             d eps       ncg     rms          rms(c)
DAV:   1    -0.396961929065E+02   -0.29130E-01   -0.25166E+00  9280   0.118E+01    0.133E+00
RMM:   2    -0.396832466685E+02    0.12946E-01   -0.18515E-01  8341   0.216E+00    0.553E-01
RMM:   3    -0.396777794476E+02    0.54672E-02   -0.13790E-02  9055   0.984E-01    0.413E-01
RMM:   4    -0.396769967944E+02    0.78265E-03   -0.79833E-03  8749   0.381E-01    0.373E-01
RMM:   5    -0.396770834911E+02   -0.86697E-04   -0.14228E-03  6394   0.395E-01
   4 F= -.39677083E+02 E0= -.39677083E+02  d E =-.102178E-01  mag=     1.4216
       N       E                     dE             d eps       ncg     rms          rms(c)
DAV:   1    -0.396771381693E+02   -0.14137E-03   -0.99678E-02 12912   0.234E+00    0.284E-01
RMM:   2    -0.396763280837E+02    0.81009E-03   -0.66621E-03  7154   0.426E-01    0.122E-01
RMM:   3    -0.396759546570E+02    0.37343E-03   -0.55191E-04  4763   0.240E-01
   5 F= -.39675955E+02 E0= -.39675955E+02  d E =-.908901E-02  mag=     1.4349
       N       E                     dE             d eps       ncg     rms          rms(c)
DAV:   1    -0.396950398715E+02   -0.18712E-01   -0.10246E+00  9088   0.624E+00    0.766E-01
RMM:   2    -0.396903629016E+02    0.46770E-02   -0.34495E-02  7588   0.967E-01    0.479E-01
RMM:   3    -0.396866008300E+02    0.37621E-02   -0.52358E-03  7316   0.727E-01    0.181E-01
RMM:   4    -0.396863325623E+02    0.26827E-03   -0.15321E-03  5984   0.242E-01
   6 F= -.39686333E+02 E0= -.39686333E+02  d E =-.103779E-01  mag=     1.4410
       N       E                     dE             d eps       ncg     rms          rms(c)
DAV:   1    -0.396926962456E+02   -0.60954E-02   -0.57229E-01 10272   0.470E+00    0.536E-01
RMM:   2    -0.396902470383E+02    0.24492E-02   -0.19192E-02  7543   0.729E-01    0.339E-01
RMM:   3    -0.396882614075E+02    0.19856E-02   -0.25563E-03  6521   0.549E-01    0.187E-01
RMM:   4    -0.396881081276E+02    0.15328E-03   -0.10122E-03  5513   0.215E-01
   7 F= -.39688108E+02 E0= -.39688108E+02  d E =-.121535E-01  mag=     1.4579
       N       E                     dE             d eps       ncg     rms          rms(c)
DAV:   1    -0.397014835925E+02   -0.13222E-01   -0.78947E-01  9264   0.597E+00    0.678E-01
RMM:   2    -0.397003214253E+02    0.11622E-02   -0.37790E-02  8397   0.100E+00    0.291E-01
RMM:   3    -0.396990247537E+02    0.12967E-02   -0.22773E-03  6496   0.462E-01    0.213E-01
RMM:   4    -0.396988772360E+02    0.14752E-03   -0.10890E-03  5587   0.251E-01
   8 F= -.39698877E+02 E0= -.39698877E+02  d E =-.107691E-01  mag=     1.4517
       N       E                     dE             d eps       ncg     rms          rms(c)
DAV:   1    -0.397182655107E+02   -0.19241E-01   -0.45334E+00  9040   0.144E+01    0.167E+00
RMM:   2    -0.397128506643E+02    0.54148E-02   -0.22633E-01  8423   0.246E+00    0.703E-01
RMM:   3    -0.397068439822E+02    0.60067E-02   -0.16482E-02  8728   0.116E+00    0.482E-01
RMM:   4    -0.397064742702E+02    0.36971E-03   -0.70672E-03  8608   0.407E-01    0.312E-01
RMM:   5    -0.397065947547E+02   -0.12048E-03   -0.13241E-03  5895   0.429E-01
   9 F= -.39706595E+02 E0= -.39706595E+02  d E =-.184866E-01  mag=     1.3869
       N       E                     dE             d eps       ncg     rms          rms(c)
DAV:   1    -0.396908090752E+02    0.15665E-01   -0.46157E+00  9280   0.165E+01    0.815E-01
RMM:   2    -0.397149021035E+02   -0.24093E-01   -0.29120E-01  7606   0.252E+00    0.934E-01
RMM:   3    -0.397124967552E+02    0.24053E-02   -0.23793E-02  6624   0.167E+00    0.472E-01
RMM:   4    -0.397120981863E+02    0.39857E-03   -0.38980E-03  7244   0.311E-01
  10 F= -.39712098E+02 E0= -.39712098E+02  d E =-.550343E-02  mag=     1.3996
       N       E                     dE             d eps       ncg     rms          rms(c)
DAV:   1    -0.397128980978E+02   -0.40134E-03   -0.65212E-01  9376   0.620E+00    0.485E-01
RMM:   2    -0.397161721384E+02   -0.32740E-02   -0.40837E-02  7510   0.949E-01    0.521E-01
RMM:   3    -0.397157411403E+02    0.43100E-03   -0.30034E-03  6336   0.618E-01
  11 F= -.39715741E+02 E0= -.39715741E+02  d E =-.914639E-02  mag=     1.3937
