  19  19   0   0
  0.6224541E+01  0.4671314E-09  0.4658112E-09  0.5963344E-09  0.5000000E-15
  1.000000000000000E-004
  CAR 
 unknown system                          
     10.09480256    -13.53524418  301     -1.63700204      1.00000000
    -13.535  0.0000E+00  0.0000E+00
    -13.456  0.0000E+00  0.0000E+00
    -13.378  0.0000E+00  0.0000E+00
    -13.299  0.1934E-31  0.1524E-32
    -13.220  0.4134E-26  0.3256E-27
    -13.141  0.2463E-21  0.1940E-22
    -13.063  0.4061E-17  0.3199E-18
    -12.984  0.1836E-13  0.1446E-14
    -12.905  0.2230E-10  0.1758E-11
    -12.826  0.7124E-08  0.5629E-09
    -12.748  0.5736E-06  0.4574E-07
    -12.669  0.1026E-04  0.8536E-06
    -12.590  0.8491E-05  0.1522E-05
    -12.511 -0.1789E-03 -0.1257E-04
    -12.433  0.1393E-02  0.9716E-04
    -12.354  0.7169E-02  0.6618E-03
    -12.275  0.1226E-01  0.1627E-02
    -12.196  0.1497E-01  0.2806E-02
    -12.117  0.2018E-01  0.4395E-02
    -12.039  0.2780E-01  0.6585E-02
    -11.960  0.2443E-01  0.8509E-02
    -11.881  0.2680E-01  0.1062E-01
    -11.802  0.3324E-01  0.1324E-01
    -11.724  0.2874E-01  0.1550E-01
    -11.645  0.2201E-01  0.1723E-01
    -11.566  0.2100E-01  0.1889E-01
    -11.487  0.2299E-01  0.2070E-01
    -11.409  0.1585E-01  0.2195E-01
    -11.330  0.1157E-01  0.2286E-01
    -11.251  0.1169E-01  0.2378E-01
    -11.172  0.1901E-01  0.2528E-01
    -11.093  0.1940E-01  0.2681E-01
    -11.015  0.1584E-01  0.2805E-01
    -10.936  0.9420E-02  0.2880E-01
    -10.857  0.1218E-01  0.2976E-01
    -10.778  0.1139E-01  0.3065E-01
    -10.700  0.7742E-02  0.3126E-01
    -10.621  0.1226E-01  0.3223E-01
    -10.542  0.1180E-01  0.3316E-01
    -10.463  0.1394E-01  0.3426E-01
    -10.385  0.1646E-01  0.3555E-01
    -10.306  0.1724E-01  0.3691E-01
    -10.227  0.2369E-01  0.3878E-01
    -10.148  0.2719E-01  0.4092E-01
    -10.070  0.2197E-01  0.4265E-01
     -9.991  0.2666E-01  0.4475E-01
     -9.912  0.2972E-01  0.4709E-01
     -9.833  0.4402E-01  0.5056E-01
     -9.754  0.5122E-01  0.5459E-01
     -9.676  0.4481E-01  0.5812E-01
     -9.597  0.3352E-01  0.6076E-01
     -9.518  0.3441E-01  0.6347E-01
     -9.439  0.2886E-01  0.6574E-01
     -9.361  0.1427E-01  0.6687E-01
     -9.282  0.3284E-01  0.6946E-01
     -9.203  0.4610E-01  0.7309E-01
     -9.124  0.4155E-01  0.7636E-01
     -9.046  0.3152E-01  0.7884E-01
     -8.967  0.3356E-01  0.8148E-01
     -8.888  0.3887E-01  0.8455E-01
     -8.809  0.2352E-01  0.8640E-01
     -8.730  0.2533E-01  0.8839E-01
     -8.652  0.3789E-01  0.9138E-01
     -8.573  0.3660E-01  0.9426E-01
     -8.494  0.3810E-01  0.9726E-01
     -8.415  0.6897E-01  0.1027E+00
     -8.337  0.6413E-01  0.1077E+00
     -8.258  0.5922E-01  0.1124E+00
     -8.179  0.6260E-01  0.1173E+00
     -8.100  0.5590E-01  0.1217E+00
     -8.022  0.5133E-01  0.1258E+00
     -7.943  0.6264E-01  0.1307E+00
     -7.864  0.6252E-01  0.1356E+00
     -7.785  0.6010E-01  0.1404E+00
     -7.706  0.6611E-01  0.1456E+00
     -7.628  0.7502E-01  0.1515E+00
     -7.549  0.6787E-01  0.1568E+00
     -7.470  0.7188E-01  0.1625E+00
     -7.391  0.6430E-01  0.1676E+00
     -7.313  0.5541E-01  0.1719E+00
     -7.234  0.6024E-01  0.1767E+00
     -7.155  0.7278E-01  0.1824E+00
     -7.076  0.7295E-01  0.1882E+00
     -6.998  0.7371E-01  0.1940E+00
     -6.919  0.8714E-01  0.2008E+00
     -6.840  0.8471E-01  0.2075E+00
     -6.761  0.7217E-01  0.2132E+00
     -6.683  0.7926E-01  0.2194E+00
     -6.604  0.9145E-01  0.2266E+00
     -6.525  0.9554E-01  0.2342E+00
     -6.446  0.8609E-01  0.2409E+00
     -6.367  0.9077E-01  0.2481E+00
     -6.289  0.8563E-01  0.2548E+00
     -6.210  0.7862E-01  0.2610E+00
     -6.131  0.8431E-01  0.2677E+00
     -6.052  0.8092E-01  0.2740E+00
     -5.974  0.7504E-01  0.2799E+00
     -5.895  0.5313E-01  0.2841E+00
     -5.816  0.3360E-01  0.2868E+00
     -5.737  0.2239E-01  0.2885E+00
     -5.659  0.2342E-01  0.2904E+00
     -5.580  0.2320E-01  0.2922E+00
     -5.501  0.1953E-01  0.2938E+00
     -5.422  0.1247E-01  0.2947E+00
     -5.343  0.8317E-02  0.2954E+00
     -5.265  0.8488E-02  0.2961E+00
     -5.186  0.3192E-02  0.2963E+00
     -5.107 -0.1655E-03  0.2963E+00
     -5.028 -0.4379E-04  0.2963E+00
     -4.950 -0.1630E-03  0.2963E+00
     -4.871  0.1787E-02  0.2964E+00
     -4.792  0.7503E-02  0.2970E+00
     -4.713  0.1718E-01  0.2984E+00
     -4.635  0.1566E-01  0.2996E+00
     -4.556  0.1029E-01  0.3004E+00
     -4.477  0.1486E-01  0.3016E+00
     -4.398  0.1565E-01  0.3028E+00
     -4.320  0.1059E-01  0.3036E+00
     -4.241  0.1002E-02  0.3037E+00
     -4.162 -0.3749E-03  0.3037E+00
     -4.083  0.5623E-04  0.3037E+00
     -4.004  0.9008E-05  0.3037E+00
     -3.926  0.1865E-06  0.3037E+00
     -3.847  0.8790E-09  0.3037E+00
     -3.768  0.1845E-10  0.3037E+00
     -3.689  0.1148E-07  0.3037E+00
     -3.611  0.1939E-05  0.3037E+00
     -3.532  0.7239E-04  0.3037E+00
     -3.453  0.2252E-03  0.3037E+00
     -3.374 -0.2884E-02  0.3035E+00
     -3.296  0.1226E-01  0.3045E+00
     -3.217  0.5983E-01  0.3092E+00
     -3.138  0.2765E-01  0.3114E+00
     -3.059 -0.3111E-02  0.3111E+00
     -2.980 -0.1673E-03  0.3111E+00
     -2.902  0.1491E-03  0.3111E+00
     -2.823  0.6856E-05  0.3111E+00
     -2.744  0.6346E-07  0.3111E+00
     -2.665  0.1474E-09  0.3111E+00
     -2.587  0.9198E-13  0.3111E+00
     -2.508  0.1558E-16  0.3111E+00
     -2.429  0.1242E-22  0.3111E+00
     -2.350  0.4298E-18  0.3111E+00
     -2.272  0.4176E-14  0.3111E+00
     -2.193  0.1121E-10  0.3111E+00
     -2.114  0.8130E-08  0.3111E+00
     -2.035  0.1514E-05  0.3111E+00
     -1.957  0.6306E-04  0.3111E+00
     -1.878  0.2591E-03  0.3111E+00
     -1.799 -0.2761E-02  0.3109E+00
     -1.720  0.1030E-01  0.3117E+00
     -1.641  0.5934E-01  0.3164E+00
     -1.563  0.2992E-01  0.3188E+00
     -1.484 -0.2996E-02  0.3185E+00
     -1.405 -0.2517E-03  0.3185E+00
     -1.326  0.1614E-03  0.3185E+00
     -1.248  0.7918E-05  0.3185E+00
     -1.169  0.7630E-07  0.3185E+00
     -1.090  0.1822E-09  0.3185E+00
     -1.011  0.1156E-12  0.3185E+00
     -0.933  0.1989E-16  0.3185E+00
     -0.854  0.2247E-32  0.3185E+00
     -0.775  0.7710E-27  0.3185E+00
     -0.696  0.7275E-22  0.3185E+00
     -0.617  0.1938E-17  0.3185E+00
     -0.539  0.1449E-13  0.3185E+00
     -0.460  0.2996E-10  0.3185E+00
     -0.381  0.1675E-07  0.3185E+00
     -0.302  0.2403E-05  0.3185E+00
     -0.224  0.7555E-04  0.3185E+00
     -0.145  0.1470E-03  0.3185E+00
     -0.066 -0.2514E-02  0.3183E+00
      0.013  0.1252E-01  0.3193E+00
      0.091  0.5456E-01  0.3236E+00
      0.170  0.3074E-01  0.3260E+00
      0.249 -0.1110E-02  0.3260E+00
      0.328 -0.5637E-03  0.3259E+00
      0.406  0.1690E-03  0.3259E+00
      0.485  0.1352E-04  0.3259E+00
      0.564  0.1978E-06  0.3259E+00
      0.643  0.7143E-09  0.3259E+00
      0.722  0.6869E-12  0.3259E+00
      0.800  0.1805E-15  0.3259E+00
      0.879  0.1156E-20  0.3259E+00
      0.958  0.1797E-16  0.3259E+00
      1.037  0.7737E-13  0.3259E+00
      1.115  0.9037E-10  0.3259E+00
      1.194  0.2774E-07  0.3259E+00
      1.273  0.2071E-05  0.3259E+00
      1.352  0.2863E-04  0.3259E+00
      1.430 -0.6220E-04  0.3259E+00
      1.509 -0.1546E-03  0.3259E+00
      1.588  0.4296E-02  0.3262E+00
      1.667  0.1236E-01  0.3272E+00
      1.746  0.2174E-01  0.3289E+00
      1.824  0.3218E-01  0.3315E+00
      1.903  0.2181E-01  0.3332E+00
      1.982  0.1922E-02  0.3333E+00
      2.061  0.1770E-02  0.3335E+00
      2.139  0.1741E-01  0.3348E+00
      2.218  0.3085E-01  0.3373E+00
      2.297  0.2628E-01  0.3393E+00
      2.376  0.3287E-01  0.3419E+00
      2.454  0.3875E-01  0.3450E+00
      2.533  0.3052E-01  0.3474E+00
      2.612  0.2999E-01  0.3498E+00
      2.691  0.3680E-01  0.3527E+00
      2.769  0.5555E-01  0.3570E+00
      2.848  0.5716E-01  0.3615E+00
      2.927  0.5020E-01  0.3655E+00
      3.006  0.4608E-01  0.3691E+00
      3.085  0.3917E-01  0.3722E+00
      3.163  0.4542E-01  0.3758E+00
      3.242  0.4507E-01  0.3793E+00
      3.321  0.4000E-01  0.3825E+00
      3.400  0.4753E-01  0.3862E+00
      3.478  0.4527E-01  0.3898E+00
      3.557  0.5601E-01  0.3942E+00
      3.636  0.5950E-01  0.3989E+00
      3.715  0.6269E-01  0.4038E+00
      3.793  0.8073E-01  0.4102E+00
      3.872  0.7765E-01  0.4163E+00
      3.951  0.5920E-01  0.4210E+00
      4.030  0.5950E-01  0.4257E+00
      4.109  0.6066E-01  0.4304E+00
      4.187  0.6312E-01  0.4354E+00
      4.266  0.6742E-01  0.4407E+00
      4.345  0.6284E-01  0.4457E+00
      4.424  0.5031E-01  0.4496E+00
      4.502  0.5212E-01  0.4537E+00
      4.581  0.5973E-01  0.4584E+00
      4.660  0.5654E-01  0.4629E+00
      4.739  0.5534E-01  0.4672E+00
      4.817  0.7652E-01  0.4733E+00
      4.896  0.7432E-01  0.4791E+00
      4.975  0.5626E-01  0.4836E+00
      5.054  0.5253E-01  0.4877E+00
      5.132  0.5979E-01  0.4924E+00
      5.211  0.6298E-01  0.4974E+00
      5.290  0.5613E-01  0.5018E+00
      5.369  0.5142E-01  0.5058E+00
      5.448  0.5421E-01  0.5101E+00
      5.526  0.5242E-01  0.5142E+00
      5.605  0.4244E-01  0.5176E+00
      5.684  0.3705E-01  0.5205E+00
      5.763  0.3722E-01  0.5234E+00
      5.841  0.5103E-01  0.5274E+00
      5.920  0.5461E-01  0.5318E+00
      5.999  0.5337E-01  0.5360E+00
      6.078  0.4893E-01  0.5398E+00
      6.156  0.5567E-01  0.5442E+00
      6.235  0.5054E-01  0.5482E+00
      6.314  0.5452E-01  0.5525E+00
      6.393  0.5565E-01  0.5569E+00
      6.472  0.5145E-01  0.5609E+00
      6.550  0.4472E-01  0.5644E+00
      6.629  0.4383E-01  0.5679E+00
      6.708  0.4953E-01  0.5718E+00
      6.787  0.5751E-01  0.5763E+00
      6.865  0.4875E-01  0.5801E+00
      6.944  0.4555E-01  0.5837E+00
      7.023  0.5223E-01  0.5879E+00
      7.102  0.5423E-01  0.5921E+00
      7.180  0.5854E-01  0.5967E+00
      7.259  0.5153E-01  0.6008E+00
      7.338  0.4665E-01  0.6045E+00
      7.417  0.4770E-01  0.6082E+00
      7.495  0.5022E-01  0.6122E+00
      7.574  0.4598E-01  0.6158E+00
      7.653  0.4743E-01  0.6195E+00
      7.732  0.5934E-01  0.6242E+00
      7.811  0.5356E-01  0.6284E+00
      7.889  0.4622E-01  0.6321E+00
      7.968  0.4117E-01  0.6353E+00
      8.047  0.4032E-01  0.6385E+00
      8.126  0.4208E-01  0.6418E+00
      8.204  0.4592E-01  0.6454E+00
      8.283  0.4596E-01  0.6490E+00
      8.362  0.4205E-01  0.6524E+00
      8.441  0.4071E-01  0.6556E+00
      8.519  0.4805E-01  0.6593E+00
      8.598  0.3605E-01  0.6622E+00
      8.677  0.2171E-01  0.6639E+00
      8.756  0.1843E-01  0.6653E+00
      8.835  0.8967E-02  0.6661E+00
      8.913  0.1163E-02  0.6661E+00
      8.992  0.3648E-02  0.6664E+00
      9.071  0.3041E-02  0.6667E+00
      9.150  0.1830E-04  0.6667E+00
      9.228 -0.7994E-04  0.6667E+00
      9.307  0.1737E-04  0.6667E+00
      9.386  0.1434E-05  0.6667E+00
      9.465  0.1892E-07  0.6667E+00
      9.543  0.5823E-10  0.6667E+00
      9.622  0.4617E-13  0.6667E+00
      9.701  0.9778E-17  0.6667E+00
      9.780  0.0000E+00  0.6667E+00
      9.859  0.0000E+00  0.6667E+00
      9.937  0.0000E+00  0.6667E+00
     10.016  0.0000E+00  0.6667E+00
     10.095  0.0000E+00  0.6667E+00
