 running on   32 total cores
 distrk:  each k-point on   32 cores,    1 groups
 distr:  one band on    8 cores,    4 groups
 using from now: INCAR     
 vasp.5.4.4.18Apr17-6-g9f103f2a35 (build Nov 01 2019 12:17:22) complex          
  
 POSCAR found type information on POSCAR  H 
 POSCAR found :  1 types and      19 ions

 ----------------------------------------------------------------------------- 
|                                                                             |
|  ADVICE TO THIS USER RUNNING 'VASP/VAMP'   (HEAR YOUR MASTER'S VOICE ...):  |
|                                                                             |
|      You have a (more or less) 'large supercell' and for larger cells       |
|      it might be more efficient to use real space projection opertators     |
|      So try LREAL= Auto  in the INCAR   file.                               |
|      Mind:          For very  accurate calculation you might also keep the  |
|      reciprocal projection scheme          (i.e. LREAL=.FALSE.)             |
|                                                                             |
 ----------------------------------------------------------------------------- 

 LDA part: xc-table for Pade appr. of Perdew
 generate k-points for:    9    9    7
 POSCAR, INCAR and KPOINTS ok, starting setup
 FFT: planning ...
 WAVECAR not read
 entering main loop
       N       E                     dE             d eps       ncg     rms          rms(c)
DAV:   1    -0.174851564454E+02   -0.17485E+02   -0.47993E+03 11368   0.420E+02
DAV:   2    -0.616250644324E+02   -0.44140E+02   -0.43200E+02 13452   0.105E+02
DAV:   3    -0.633755572367E+02   -0.17505E+01   -0.17409E+01 14176   0.212E+01
DAV:   4    -0.633807905275E+02   -0.52333E-02   -0.52324E-02 13348   0.134E+00
DAV:   5    -0.633808187325E+02   -0.28205E-04   -0.28205E-04 14144   0.873E-02    0.123E+01
DAV:   6    -0.613432598106E+02    0.20376E+01   -0.61415E-01 12592   0.380E+00    0.702E+00
DAV:   7    -0.603316038583E+02    0.10117E+01   -0.15986E+00 12884   0.640E+00    0.679E-01
DAV:   8    -0.603585938123E+02   -0.26990E-01   -0.72529E-02 12508   0.155E+00    0.405E-01
DAV:   9    -0.603552385769E+02    0.33552E-02   -0.73202E-03 13872   0.493E-01    0.809E-02
DAV:  10    -0.603552654564E+02   -0.26879E-04   -0.28854E-04 13380   0.977E-02
   1 F= -.60355265E+02 E0= -.60354730E+02  d E =-.603553E+02
 curvature:   0.00 expect dE= 0.000E+00 dE for cont linesearch  0.000E+00
 trial: gam= 0.00000 g(F)=  0.185E-02 g(S)=  0.166E-02 ort = 0.000E+00 (trialstep = 0.100E+01)
 search vector abs. value=  0.351E-02
 bond charge predicted
       N       E                     dE             d eps       ncg     rms          rms(c)
DAV:   1    -0.603566930462E+02   -0.14545E-02   -0.51909E-02 12924   0.134E+00    0.102E-01
DAV:   2    -0.603567522558E+02   -0.59210E-04   -0.19468E-03 13156   0.264E-01    0.724E-02
DAV:   3    -0.603566755461E+02    0.76710E-04   -0.17493E-04 13472   0.111E-01
   2 F= -.60356676E+02 E0= -.60356136E+02  d E =-.141009E-02
 trial-energy change:   -0.001410  1 .order   -0.001271   -0.003511    0.000969
 step:   0.7837(harm=  0.7837)  dis= 0.00305  next Energy=   -60.356641 (dE=-0.138E-02)
 bond charge predicted
       N       E                     dE             d eps       ncg     rms          rms(c)
DAV:   1    -0.603568209177E+02   -0.68662E-04   -0.27385E-03 12472   0.298E-01    0.277E-02
DAV:   2    -0.603568148496E+02    0.60681E-05   -0.65228E-05  5932   0.501E-02
   3 F= -.60356815E+02 E0= -.60356276E+02  d E =-.154939E-02
 curvature:  -0.39 expect dE=-0.218E-02 dE for cont linesearch -0.381E-05
 trial: gam= 1.63854 g(F)=  0.408E-02 g(S)=  0.149E-02 ort =-0.185E-03 (trialstep = 0.233E+00)
 search vector abs. value=  0.144E-01
 bond charge predicted
       N       E                     dE             d eps       ncg     rms          rms(c)
DAV:   1    -0.603580101188E+02   -0.11892E-02   -0.52768E-03 11748   0.412E-01    0.304E-02
DAV:   2    -0.603580137618E+02   -0.36430E-05   -0.10517E-04  9892   0.572E-02
   4 F= -.60358014E+02 E0= -.60357474E+02  d E =-.119891E-02
 ZBRENT: can't locate minimum, use default step
 trial-energy change:   -0.001199  1 .order   -0.001203   -0.001229   -0.001178
 step:   0.9338(harm=  5.5618)  dis= 0.00348  next Energy=   -60.371458 (dE=-0.146E-01)
 bond charge predicted
       N       E                     dE             d eps       ncg     rms          rms(c)
DAV:   1    -0.603609955221E+02   -0.29854E-02   -0.46217E-02 11988   0.122E+00    0.890E-02
DAV:   2    -0.603610181582E+02   -0.22636E-04   -0.68524E-04 13796   0.145E-01
   5 F= -.60361018E+02 E0= -.60360476E+02  d E =-.420331E-02
 curvature:  -1.87 expect dE=-0.867E-02 dE for cont linesearch -0.200E-02
 ZBRENT: increasing intervall
 opt :   2.3344  next Energy=   -60.364962 (dE=-0.815E-02)
 bond charge predicted
       N       E                     dE             d eps       ncg     rms          rms(c)
DAV:   1    -0.603641638978E+02   -0.31684E-02   -0.18556E-01 11980   0.246E+00    0.179E-01
DAV:   2    -0.603642591844E+02   -0.95287E-04   -0.26722E-03 13820   0.287E-01    0.112E-01
DAV:   3    -0.603642189923E+02    0.40192E-04   -0.39429E-04 13628   0.125E-01
   6 F= -.60364219E+02 E0= -.60363676E+02  d E =-.740414E-02
 curvature:  -3.67 expect dE=-0.209E-01 dE for cont linesearch -0.213E-03
 trial: gam= 0.29140 g(F)=  0.531E-02 g(S)=  0.366E-03 ort = 0.913E-03 (trialstep = 0.654E+00)
 search vector abs. value=  0.743E-02
 bond charge predicted
       N       E                     dE             d eps       ncg     rms          rms(c)
DAV:   1    -0.603652743173E+02   -0.10151E-02   -0.55420E-02 12504   0.140E+00    0.906E-02
DAV:   2    -0.603653585185E+02   -0.84201E-04   -0.19455E-03 13380   0.261E-01    0.681E-02
DAV:   3    -0.603652801735E+02    0.78345E-04   -0.11167E-04 11452   0.103E-01
   7 F= -.60365280E+02 E0= -.60364737E+02  d E =-.106118E-02
 trial-energy change:   -0.001061  1 .order   -0.001110   -0.003885    0.001665
 step:   0.4576(harm=  0.4576)  dis= 0.00363  next Energy=   -60.365579 (dE=-0.136E-02)
 bond charge predicted
       N       E                     dE             d eps       ncg     rms          rms(c)
DAV:   1    -0.603655855465E+02   -0.22703E-03   -0.56903E-03 12252   0.440E-01    0.306E-02
DAV:   2    -0.603655872624E+02   -0.17159E-05   -0.17886E-04 10012   0.809E-02
   8 F= -.60365587E+02 E0= -.60365044E+02  d E =-.136827E-02
 curvature:  -0.29 expect dE=-0.761E-03 dE for cont linesearch -0.322E-05
 trial: gam= 0.57865 g(F)=  0.201E-02 g(S)=  0.650E-03 ort =-0.289E-03 (trialstep = 0.614E+00)
 search vector abs. value=  0.481E-02
 bond charge predicted
       N       E                     dE             d eps       ncg     rms          rms(c)
DAV:   1    -0.603668843843E+02   -0.12988E-02   -0.21469E-02 11516   0.842E-01    0.468E-02
DAV:   2    -0.603669380826E+02   -0.53698E-04   -0.68216E-04 13472   0.136E-01
   9 F= -.60366938E+02 E0= -.60366396E+02  d E =-.135082E-02
 ZBRENT: can't locate minimum, use default step
 trial-energy change:   -0.001351  1 .order   -0.001357   -0.001532   -0.001181
 step:   2.4577(harm=  2.6836)  dis= 0.00870  next Energy=   -60.368933 (dE=-0.335E-02)
 bond charge predicted
       N       E                     dE             d eps       ncg     rms          rms(c)
DAV:   1    -0.603683110633E+02   -0.14267E-02   -0.19052E-01 11612   0.251E+00    0.143E-01
DAV:   2    -0.603687310487E+02   -0.41999E-03   -0.52859E-03 13544   0.375E-01    0.971E-02
DAV:   3    -0.603686958687E+02    0.35180E-04   -0.23026E-04 12528   0.861E-02
  10 F= -.60368696E+02 E0= -.60368154E+02  d E =-.310861E-02
 curvature:  -2.56 expect dE=-0.102E-01 dE for cont linesearch -0.969E-06
 trial: gam= 1.09035 g(F)=  0.368E-02 g(S)=  0.310E-03 ort = 0.427E-04 (trialstep = 0.483E+00)
 search vector abs. value=  0.981E-02
 bond charge predicted
       N       E                     dE             d eps       ncg     rms          rms(c)
DAV:   1    -0.603701007457E+02   -0.13697E-02   -0.26719E-02 12036   0.958E-01    0.575E-02
DAV:   2    -0.603701276884E+02   -0.26943E-04   -0.47001E-04 13480   0.125E-01
  11 F= -.60370128E+02 E0= -.60369585E+02  d E =-.143182E-02
 trial-energy change:   -0.001432  1 .order   -0.001440   -0.001948   -0.000932
 step:   0.9255(harm=  0.9255)  dis= 0.00374  next Energy=   -60.370564 (dE=-0.187E-02)
 bond charge predicted
       N       E                     dE             d eps       ncg     rms          rms(c)
DAV:   1    -0.603704804073E+02   -0.37966E-03   -0.21791E-02 12092   0.867E-01    0.519E-02
DAV:   2    -0.603704934839E+02   -0.13077E-04   -0.26456E-04 13636   0.938E-02
  12 F= -.60370493E+02 E0= -.60369950E+02  d E =-.179762E-02
 curvature:  -1.12 expect dE=-0.787E-02 dE for cont linesearch -0.100E-05
 trial: gam= 1.80969 g(F)=  0.686E-02 g(S)=  0.135E-03 ort =-0.936E-04 (trialstep = 0.144E+00)
 search vector abs. value=  0.388E-01
 bond charge predicted
       N       E                     dE             d eps       ncg     rms          rms(c)
DAV:   1    -0.603714179263E+02   -0.93752E-03   -0.93334E-03 11872   0.562E-01    0.284E-02
DAV:   2    -0.603714340687E+02   -0.16142E-04   -0.18242E-04 13012   0.745E-02
  13 F= -.60371434E+02 E0= -.60370889E+02  d E =-.940585E-03
 ZBRENT: can't locate minimum, use default step
 trial-energy change:   -0.000941  1 .order   -0.000944   -0.000987   -0.000901
 step:   0.5778(harm=  1.6722)  dis= 0.00451  next Energy=   -60.376204 (dE=-0.571E-02)
 bond charge predicted
       N       E                     dE             d eps       ncg     rms          rms(c)
DAV:   1    -0.603736390876E+02   -0.22212E-02   -0.84713E-02 11688   0.168E+00    0.868E-02
DAV:   2    -0.603737508313E+02   -0.11174E-03   -0.14598E-03 13560   0.207E-01    0.576E-02
DAV:   3    -0.603737403659E+02    0.10465E-04   -0.75003E-05  8944   0.536E-02
  14 F= -.60373740E+02 E0= -.60373190E+02  d E =-.324688E-02
 curvature:  -2.31 expect dE=-0.971E-02 dE for cont linesearch -0.121E-02
 ZBRENT: increasing intervall
 opt :   1.4445  next Energy=   -60.376128 (dE=-0.563E-02)
 bond charge predicted
       N       E                     dE             d eps       ncg     rms          rms(c)
DAV:   1    -0.603756610526E+02   -0.19102E-02   -0.33882E-01 11624   0.336E+00    0.168E-01
DAV:   2    -0.603761586964E+02   -0.49764E-03   -0.61826E-03 13528   0.424E-01    0.112E-01
DAV:   3    -0.603761193821E+02    0.39314E-04   -0.28983E-04 13176   0.100E-01
  15 F= -.60376119E+02 E0= -.60375559E+02  d E =-.562590E-02
 curvature:  -4.58 expect dE=-0.144E-01 dE for cont linesearch -0.155E-03
 trial: gam= 0.12498 g(F)=  0.283E-02 g(S)=  0.316E-03 ort = 0.114E-02 (trialstep = 0.404E+00)
 search vector abs. value=  0.404E-02
 bond charge predicted
       N       E                     dE             d eps       ncg     rms          rms(c)
DAV:   1    -0.603769199790E+02   -0.76128E-03   -0.11895E-02 12616   0.659E-01    0.412E-02
DAV:   2    -0.603769415883E+02   -0.21609E-04   -0.44430E-04 12796   0.125E-01
  16 F= -.60376942E+02 E0= -.60376381E+02  d E =-.822206E-03
 trial-energy change:   -0.000822  1 .order   -0.000832   -0.001330   -0.000334
 step:   0.5401(harm=  0.5401)  dis= 0.00311  next Energy=   -60.377008 (dE=-0.888E-03)
 bond charge predicted
       N       E                     dE             d eps       ncg     rms          rms(c)
DAV:   1    -0.603769633582E+02   -0.43379E-04   -0.11626E-03 13044   0.206E-01    0.178E-02
DAV:   2    -0.603769607903E+02    0.25679E-05   -0.97748E-06  6004   0.211E-02
  17 F= -.60376961E+02 E0= -.60376400E+02  d E =-.841408E-03
 curvature:  -0.33 expect dE=-0.752E-03 dE for cont linesearch -0.164E-05
 trial: gam= 0.81123 g(F)=  0.212E-02 g(S)=  0.147E-03 ort =-0.141E-03 (trialstep = 0.371E+00)
 search vector abs. value=  0.470E-02
 reached required accuracy - stopping structural energy minimisation
