       N       E                     dE             d eps       ncg     rms          rms(c)
DAV:   1     0.112403359585E+03    0.11240E+03   -0.12061E+04 16928   0.619E+02
DAV:   2    -0.651410474652E+02   -0.17754E+03   -0.17220E+03 20184   0.236E+02
DAV:   3    -0.759676179326E+02   -0.10827E+02   -0.10754E+02 25168   0.480E+01
DAV:   4    -0.764657263358E+02   -0.49811E+00   -0.49634E+00 26416   0.870E+00
DAV:   5    -0.764740266633E+02   -0.83003E-02   -0.82996E-02 23344   0.920E-01    0.361E+01
DAV:   6    -0.730908391245E+02    0.33832E+01   -0.61167E+00 24424   0.137E+01    0.156E+01
DAV:   7    -0.720730933731E+02    0.10177E+01   -0.16699E+00 23720   0.556E+00    0.710E+00
DAV:   8    -0.720057750991E+02    0.67318E-01   -0.45830E-01 23064   0.323E+00    0.165E+00
DAV:   9    -0.720047111144E+02    0.10640E-02   -0.31246E-02 22304   0.103E+00    0.490E-01
DAV:  10    -0.720056369230E+02   -0.92581E-03   -0.99788E-03 22680   0.449E-01    0.190E-01
DAV:  11    -0.720060049291E+02   -0.36801E-03   -0.70780E-04 20328   0.155E-01    0.752E-02
DAV:  12    -0.720061743066E+02   -0.16938E-03   -0.36624E-04 21696   0.103E-01    0.411E-02
DAV:  13    -0.720061817318E+02   -0.74252E-05   -0.71443E-05 13712   0.406E-02
   1 F= -.72006182E+02 E0= -.72006037E+02  d E =-.720062E+02
       N       E                     dE             d eps       ncg     rms          rms(c)
DAV:   1    -0.719857283888E+02    0.20446E-01   -0.20242E+00 18400   0.102E+01    0.668E-01
DAV:   2    -0.720055174583E+02   -0.19789E-01   -0.24727E-01 19840   0.243E+00    0.376E-01
DAV:   3    -0.720042890138E+02    0.12284E-02   -0.37193E-03 23184   0.365E-01    0.219E-01
DAV:   4    -0.720038155522E+02    0.47346E-03   -0.20683E-03 21752   0.276E-01    0.421E-02
DAV:   5    -0.720038833969E+02   -0.67845E-04   -0.70147E-04 19560   0.131E-01
   2 F= -.72003883E+02 E0= -.72003740E+02  d E =0.229833E-02
       N       E                     dE             d eps       ncg     rms          rms(c)
DAV:   1    -0.720118411200E+02   -0.80256E-02   -0.54957E-01 18408   0.532E+00    0.343E-01
DAV:   2    -0.720170975660E+02   -0.52564E-02   -0.66411E-02 19704   0.126E+00    0.193E-01
DAV:   3    -0.720167664075E+02    0.33116E-03   -0.10308E-03 23288   0.194E-01    0.108E-01
DAV:   4    -0.720166478061E+02    0.11860E-03   -0.57112E-04 20680   0.143E-01    0.189E-02
DAV:   5    -0.720166659465E+02   -0.18140E-04   -0.18950E-04 15864   0.679E-02
   3 F= -.72016666E+02 E0= -.72016522E+02  d E =-.104842E-01
       N       E                     dE             d eps       ncg     rms          rms(c)
DAV:   1    -0.720217584593E+02   -0.51107E-02   -0.53107E-01 18288   0.509E+00    0.425E-01
DAV:   2    -0.720258022902E+02   -0.40438E-02   -0.61225E-02 19984   0.121E+00    0.224E-01
DAV:   3    -0.720253326878E+02    0.46960E-03   -0.12676E-03 23152   0.202E-01    0.106E-01
DAV:   4    -0.720251863336E+02    0.14635E-03   -0.39298E-04 20408   0.116E-01    0.364E-02
DAV:   5    -0.720251868092E+02   -0.47557E-06   -0.81155E-05 13624   0.611E-02
   4 F= -.72025187E+02 E0= -.72025027E+02  d E =-.852086E-02
       N       E                     dE             d eps       ncg     rms          rms(c)
DAV:   1    -0.720253618457E+02   -0.17551E-03   -0.97788E-02 18336   0.218E+00    0.182E-01
DAV:   2    -0.720261060645E+02   -0.74422E-03   -0.11266E-02 20088   0.519E-01    0.948E-02
DAV:   3    -0.720260185090E+02    0.87556E-04   -0.23101E-04 21184   0.875E-02
   5 F= -.72026019E+02 E0= -.72025852E+02  d E =-.935256E-02
       N       E                     dE             d eps       ncg     rms          rms(c)
DAV:   1    -0.720321450283E+02   -0.60390E-02   -0.13725E-01 17416   0.238E+00    0.254E-01
DAV:   2    -0.720322550597E+02   -0.11003E-03   -0.10301E-02 20320   0.538E-01    0.132E-01
DAV:   3    -0.720319907503E+02    0.26431E-03   -0.52187E-04 23064   0.124E-01    0.494E-02
DAV:   4    -0.720319610418E+02    0.29709E-04   -0.13169E-04 15072   0.633E-02
   6 F= -.72031961E+02 E0= -.72031788E+02  d E =-.594253E-02
       N       E                     dE             d eps       ncg     rms          rms(c)
DAV:   1    -0.720443153328E+02   -0.12325E-01   -0.12464E+00 16264   0.715E+00    0.768E-01
DAV:   2    -0.720459692135E+02   -0.16539E-02   -0.96841E-02 20320   0.166E+00    0.404E-01
DAV:   3    -0.720437022542E+02    0.22670E-02   -0.44688E-03 22992   0.365E-01    0.147E-01
DAV:   4    -0.720434277017E+02    0.27455E-03   -0.12961E-03 22304   0.189E-01    0.784E-02
DAV:   5    -0.720434163608E+02    0.11341E-04   -0.10537E-04 14760   0.677E-02
   7 F= -.72043416E+02 E0= -.72043224E+02  d E =-.173979E-01
       N       E                     dE             d eps       ncg     rms          rms(c)
DAV:   1    -0.720408962677E+02    0.25314E-02   -0.49840E+00 16288   0.143E+01    0.159E+00
DAV:   2    -0.720474599587E+02   -0.65637E-02   -0.38446E-01 20312   0.332E+00    0.828E-01
DAV:   3    -0.720383771069E+02    0.90829E-02   -0.17984E-02 22832   0.748E-01    0.290E-01
DAV:   4    -0.720373223904E+02    0.10547E-02   -0.51322E-03 22280   0.379E-01    0.158E-01
DAV:   5    -0.720372762523E+02    0.46138E-04   -0.45529E-04 21520   0.136E-01
   8 F= -.72037276E+02 E0= -.72037056E+02  d E =-.112577E-01
       N       E                     dE             d eps       ncg     rms          rms(c)
DAV:   1    -0.720476433292E+02   -0.10321E-01   -0.20409E+00 17944   0.911E+00    0.101E+00
DAV:   2    -0.720497172329E+02   -0.20739E-02   -0.15041E-01 20312   0.204E+00    0.519E-01
DAV:   3    -0.720460319091E+02    0.36853E-02   -0.73528E-03 22944   0.460E-01    0.177E-01
DAV:   4    -0.720456783755E+02    0.35353E-03   -0.19340E-03 22224   0.227E-01    0.955E-02
DAV:   5    -0.720456651651E+02    0.13210E-04   -0.14188E-04 16072   0.763E-02
   9 F= -.72045665E+02 E0= -.72045461E+02  d E =-.196467E-01
       N       E                     dE             d eps       ncg     rms          rms(c)
DAV:   1    -0.720516729262E+02   -0.59946E-02   -0.32584E-01 18368   0.387E+00    0.328E-01
DAV:   2    -0.720532039316E+02   -0.15310E-02   -0.31230E-02 19792   0.875E-01    0.182E-01
DAV:   3    -0.720527697612E+02    0.43417E-03   -0.81444E-04 22696   0.164E-01    0.804E-02
DAV:   4    -0.720526641366E+02    0.10562E-03   -0.30865E-04 19328   0.102E-01    0.333E-02
DAV:   5    -0.720526652027E+02   -0.10661E-05   -0.56938E-05 12072   0.516E-02
  10 F= -.72052665E+02 E0= -.72052459E+02  d E =-.700004E-02
       N       E                     dE             d eps       ncg     rms          rms(c)
DAV:   1    -0.720539864240E+02   -0.13223E-02   -0.54856E-01 18328   0.502E+00    0.428E-01
DAV:   2    -0.720565167713E+02   -0.25303E-02   -0.52237E-02 19888   0.113E+00    0.232E-01
DAV:   3    -0.720557785821E+02    0.73819E-03   -0.13992E-03 22760   0.213E-01    0.102E-01
DAV:   4    -0.720556071456E+02    0.17144E-03   -0.53698E-04 22224   0.132E-01    0.433E-02
DAV:   5    -0.720556080089E+02   -0.86328E-06   -0.84855E-05 13912   0.540E-02
  11 F= -.72055608E+02 E0= -.72055398E+02  d E =-.994284E-02
       N       E                     dE             d eps       ncg     rms          rms(c)
DAV:   1    -0.720612387807E+02   -0.56316E-02   -0.40221E-01 18288   0.423E+00    0.272E-01
DAV:   2    -0.720633205273E+02   -0.20817E-02   -0.34528E-02 19688   0.936E-01    0.179E-01
DAV:   3    -0.720630726880E+02    0.24784E-03   -0.63514E-04 22832   0.137E-01    0.101E-01
DAV:   4    -0.720629451302E+02    0.12756E-03   -0.28620E-04 18872   0.101E-01    0.275E-02
DAV:   5    -0.720629477105E+02   -0.25803E-05   -0.62551E-05 12488   0.533E-02
  12 F= -.72062948E+02 E0= -.72062728E+02  d E =-.733970E-02
       N       E                     dE             d eps       ncg     rms          rms(c)
DAV:   1    -0.720620960027E+02    0.84913E-03   -0.15338E+00 18240   0.827E+00    0.529E-01
DAV:   2    -0.720700571243E+02   -0.79611E-02   -0.13108E-01 19664   0.183E+00    0.352E-01
DAV:   3    -0.720691231666E+02    0.93396E-03   -0.24061E-03 22840   0.267E-01    0.198E-01
DAV:   4    -0.720686458525E+02    0.47731E-03   -0.11268E-03 22736   0.196E-01    0.506E-02
DAV:   5    -0.720686550332E+02   -0.91807E-05   -0.21808E-04 18296   0.796E-02
  13 F= -.72068655E+02 E0= -.72068415E+02  d E =-.130470E-01
       N       E                     dE             d eps       ncg     rms          rms(c)
DAV:   1    -0.720773868905E+02   -0.87410E-02   -0.40035E-01 16888   0.392E+00    0.285E-01
DAV:   2    -0.720779403230E+02   -0.55343E-03   -0.25677E-02 21536   0.937E-01    0.251E-01
DAV:   3    -0.720777457431E+02    0.19458E-03   -0.70300E-04 21456   0.145E-01    0.153E-01
DAV:   4    -0.720775999355E+02    0.14581E-03   -0.39586E-04 22376   0.113E-01    0.382E-02
DAV:   5    -0.720776045535E+02   -0.46180E-05   -0.68270E-05 12776   0.452E-02
  14 F= -.72077605E+02 E0= -.72077358E+02  d E =-.894952E-02
       N       E                     dE             d eps       ncg     rms          rms(c)
DAV:   1    -0.720932064159E+02   -0.15606E-01   -0.36029E+00 16824   0.117E+01    0.839E-01
DAV:   2    -0.720983849331E+02   -0.51785E-02   -0.23199E-01 21592   0.282E+00    0.766E-01
DAV:   3    -0.720967045902E+02    0.16803E-02   -0.63501E-03 21392   0.436E-01    0.470E-01
DAV:   4    -0.720954046792E+02    0.12999E-02   -0.34256E-03 23096   0.329E-01    0.115E-01
DAV:   5    -0.720954527608E+02   -0.48082E-04   -0.66975E-04 23192   0.129E-01
  15 F= -.72095453E+02 E0= -.72095189E+02  d E =-.267977E-01
       N       E                     dE             d eps       ncg     rms          rms(c)
DAV:   1    -0.720774672369E+02    0.17937E-01   -0.14413E+01 16264   0.235E+01    0.167E+00
DAV:   2    -0.721005899790E+02   -0.23123E-01   -0.94667E-01 21624   0.573E+00    0.156E+00
DAV:   3    -0.720941318275E+02    0.64582E-02   -0.26361E-02 21272   0.891E-01    0.966E-01
DAV:   4    -0.720888928951E+02    0.52389E-02   -0.13219E-02 22600   0.648E-01    0.235E-01
DAV:   5    -0.720890727346E+02   -0.17984E-03   -0.27361E-03 24720   0.263E-01    0.203E-01
DAV:   6    -0.720890586508E+02    0.14084E-04   -0.19990E-04 17352   0.771E-02
  16 F= -.72089059E+02 E0= -.72088766E+02  d E =-.204036E-01
       N       E                     dE             d eps       ncg     rms          rms(c)
DAV:   1    -0.720947302864E+02   -0.56576E-02   -0.56219E+00 16320   0.146E+01    0.104E+00
DAV:   2    -0.721042163282E+02   -0.94860E-02   -0.36263E-01 21824   0.351E+00    0.990E-01
DAV:   3    -0.721017397033E+02    0.24766E-02   -0.90105E-03 20528   0.519E-01    0.632E-01
DAV:   4    -0.720996759794E+02    0.20637E-02   -0.56622E-03 22928   0.424E-01    0.142E-01
DAV:   5    -0.720997683789E+02   -0.92399E-04   -0.10630E-03 23632   0.166E-01    0.121E-01
DAV:   6    -0.720997631126E+02    0.52662E-05   -0.49760E-05 13720   0.438E-02
  17 F= -.72099763E+02 E0= -.72099488E+02  d E =-.311081E-01
       N       E                     dE             d eps       ncg     rms          rms(c)
DAV:   1    -0.721099151170E+02   -0.10147E-01   -0.94682E-01 16304   0.517E+00    0.479E-01
DAV:   2    -0.721089231837E+02    0.99193E-03   -0.32648E-02 22504   0.116E+00    0.305E-01
DAV:   3    -0.721082464734E+02    0.67671E-03   -0.13083E-03 20888   0.199E-01    0.175E-01
DAV:   4    -0.721079090808E+02    0.33739E-03   -0.10409E-03 24504   0.181E-01    0.628E-02
DAV:   5    -0.721079275565E+02   -0.18476E-04   -0.22801E-04 18080   0.741E-02
  18 F= -.72107928E+02 E0= -.72107641E+02  d E =-.816444E-02
       N       E                     dE             d eps       ncg     rms          rms(c)
DAV:   1    -0.721082094176E+02   -0.30034E-03   -0.33119E-02 16488   0.972E-01    0.936E-02
DAV:   2    -0.721081723357E+02    0.37082E-04   -0.12436E-03 22576   0.223E-01    0.598E-02
DAV:   3    -0.721081441540E+02    0.28182E-04   -0.44494E-05 13080   0.388E-02
  19 F= -.72108144E+02 E0= -.72107855E+02  d E =-.838104E-02
       N       E                     dE             d eps       ncg     rms          rms(c)
DAV:   1    -0.721182402681E+02   -0.10068E-01   -0.66253E-01 16280   0.464E+00    0.541E-01
DAV:   2    -0.721175436166E+02    0.69665E-03   -0.28282E-02 21736   0.104E+00    0.209E-01
DAV:   3    -0.721169691940E+02    0.57442E-03   -0.13932E-03 22056   0.197E-01    0.122E-01
DAV:   4    -0.721167808691E+02    0.18832E-03   -0.60392E-04 26600   0.127E-01    0.961E-02
DAV:   5    -0.721167898317E+02   -0.89626E-05   -0.67481E-05 13272   0.428E-02
  20 F= -.72116790E+02 E0= -.72116489E+02  d E =-.864568E-02
       N       E                     dE             d eps       ncg     rms          rms(c)
DAV:   1    -0.721285142941E+02   -0.11733E-01   -0.25312E+00 16280   0.906E+00    0.105E+00
DAV:   2    -0.721259206946E+02    0.25936E-02   -0.10738E-01 21656   0.202E+00    0.413E-01
DAV:   3    -0.721236791216E+02    0.22416E-02   -0.54122E-03 22168   0.386E-01    0.234E-01
DAV:   4    -0.721229877727E+02    0.69135E-03   -0.22856E-03 28192   0.243E-01    0.188E-01
DAV:   5    -0.721230265685E+02   -0.38796E-04   -0.23146E-04 18032   0.771E-02
  21 F= -.72123027E+02 E0= -.72122703E+02  d E =-.148824E-01
       N       E                     dE             d eps       ncg     rms          rms(c)
DAV:   1    -0.721279734696E+02   -0.49857E-02   -0.96194E-01 18136   0.619E+00    0.484E-01
DAV:   2    -0.721314981265E+02   -0.35247E-02   -0.58732E-02 20208   0.124E+00    0.229E-01
DAV:   3    -0.721310876882E+02    0.41044E-03   -0.13675E-03 22816   0.194E-01    0.121E-01
DAV:   4    -0.721310013139E+02    0.86374E-04   -0.44809E-04 22952   0.110E-01
  22 F= -.72131001E+02 E0= -.72130659E+02  d E =-.797475E-02
       N       E                     dE             d eps       ncg     rms          rms(c)
DAV:   1    -0.721308471882E+02    0.24050E-03   -0.10771E+00 18240   0.655E+00    0.505E-01
DAV:   2    -0.721347700854E+02   -0.39229E-02   -0.65166E-02 20200   0.131E+00    0.241E-01
DAV:   3    -0.721342933651E+02    0.47672E-03   -0.15199E-03 22752   0.205E-01    0.135E-01
DAV:   4    -0.721341995634E+02    0.93802E-04   -0.53145E-04 23752   0.119E-01
  23 F= -.72134200E+02 E0= -.72133878E+02  d E =-.111730E-01
       N       E                     dE             d eps       ncg     rms          rms(c)
DAV:   1    -0.721399608064E+02   -0.56674E-02   -0.30889E-01 16368   0.331E+00    0.349E-01
DAV:   2    -0.721405110429E+02   -0.55024E-03   -0.15604E-02 21024   0.742E-01    0.144E-01
DAV:   3    -0.721403504320E+02    0.16061E-03   -0.49703E-04 21496   0.120E-01    0.818E-02
DAV:   4    -0.721403013843E+02    0.49048E-04   -0.28792E-04 22336   0.914E-02
  24 F= -.72140301E+02 E0= -.72139974E+02  d E =-.610182E-02
       N       E                     dE             d eps       ncg     rms          rms(c)
DAV:   1    -0.721419228620E+02   -0.15724E-02   -0.31634E-01 16304   0.335E+00    0.347E-01
DAV:   2    -0.721425048971E+02   -0.58204E-03   -0.15861E-02 21088   0.751E-01    0.143E-01
DAV:   3    -0.721423446220E+02    0.16028E-03   -0.47790E-04 21232   0.119E-01    0.866E-02
DAV:   4    -0.721423016882E+02    0.42934E-04   -0.31931E-04 22536   0.958E-02
  25 F= -.72142302E+02 E0= -.72141968E+02  d E =-.810212E-02
       N       E                     dE             d eps       ncg     rms          rms(c)
DAV:   1    -0.721466639973E+02   -0.43194E-02   -0.11473E-01 16400   0.195E+00    0.288E-01
DAV:   2    -0.721464455966E+02    0.21840E-03   -0.55153E-03 22368   0.487E-01    0.934E-02
DAV:   3    -0.721463642157E+02    0.81381E-04   -0.26991E-04 18784   0.866E-02
  26 F= -.72146364E+02 E0= -.72146034E+02  d E =-.406253E-02
       N       E                     dE             d eps       ncg     rms          rms(c)
DAV:   1    -0.721581408393E+02   -0.11695E-01   -0.10208E+00 16256   0.581E+00    0.908E-01
DAV:   2    -0.721560092828E+02    0.21316E-02   -0.49177E-02 22352   0.146E+00    0.272E-01
DAV:   3    -0.721552432002E+02    0.76608E-03   -0.26242E-03 24248   0.263E-01    0.162E-01
DAV:   4    -0.721550354024E+02    0.20780E-03   -0.10700E-03 27264   0.158E-01    0.153E-01
DAV:   5    -0.721550614659E+02   -0.26064E-04   -0.87179E-05 14936   0.439E-02
  27 F= -.72155061E+02 E0= -.72154726E+02  d E =-.127598E-01
       N       E                     dE             d eps       ncg     rms          rms(c)
DAV:   1    -0.721699668683E+02   -0.14931E-01   -0.41213E+00 16256   0.117E+01    0.189E+00
DAV:   2    -0.721617662868E+02    0.82006E-02   -0.19775E-01 22336   0.295E+00    0.551E-01
DAV:   3    -0.721585034537E+02    0.32628E-02   -0.10204E-02 23552   0.528E-01    0.312E-01
DAV:   4    -0.721575952673E+02    0.90819E-03   -0.44857E-03 28224   0.323E-01    0.294E-01
DAV:   5    -0.721576890162E+02   -0.93749E-04   -0.34150E-04 21200   0.862E-02
  28 F= -.72157689E+02 E0= -.72157323E+02  d E =-.153873E-01
       N       E                     dE             d eps       ncg     rms          rms(c)
DAV:   1    -0.721646042709E+02   -0.70090E-02   -0.38826E-01 18288   0.451E+00    0.397E-01
DAV:   2    -0.721678533611E+02   -0.32491E-02   -0.43376E-02 19904   0.105E+00    0.243E-01
DAV:   3    -0.721675904818E+02    0.26288E-03   -0.84071E-04 23216   0.171E-01    0.124E-01
DAV:   4    -0.721675533861E+02    0.37096E-04   -0.36487E-04 19896   0.105E-01
  29 F= -.72167553E+02 E0= -.72167210E+02  d E =-.986437E-02
       N       E                     dE             d eps       ncg     rms          rms(c)
DAV:   1    -0.721678130626E+02   -0.22258E-03   -0.33815E-02 18552   0.134E+00    0.115E-01
DAV:   2    -0.721681057756E+02   -0.29271E-03   -0.38050E-03 20040   0.313E-01    0.684E-02
DAV:   3    -0.721680831037E+02    0.22672E-04   -0.60089E-05 15392   0.492E-02
  30 F= -.72168083E+02 E0= -.72167754E+02  d E =-.103941E-01
       N       E                     dE             d eps       ncg     rms          rms(c)
DAV:   1    -0.721745034745E+02   -0.63977E-02   -0.28266E-01 17752   0.355E+00    0.481E-01
DAV:   2    -0.721755857766E+02   -0.10823E-02   -0.24993E-02 20312   0.847E-01    0.247E-01
DAV:   3    -0.721752036134E+02    0.38216E-03   -0.11172E-03 25296   0.168E-01    0.106E-01
DAV:   4    -0.721751859060E+02    0.17707E-04   -0.25816E-04 18440   0.862E-02
  31 F= -.72175186E+02 E0= -.72174963E+02  d E =-.710280E-02
       N       E                     dE             d eps       ncg     rms          rms(c)
DAV:   1    -0.721763031025E+02   -0.10995E-02   -0.14859E-01 17472   0.258E+00    0.352E-01
DAV:   2    -0.721769395586E+02   -0.63646E-03   -0.13317E-02 20296   0.617E-01    0.185E-01
DAV:   3    -0.721767458648E+02    0.19369E-03   -0.55906E-04 24160   0.121E-01    0.776E-02
DAV:   4    -0.721767351376E+02    0.10727E-04   -0.11778E-04 13992   0.633E-02
  32 F= -.72176735E+02 E0= -.72176572E+02  d E =-.865203E-02
       N       E                     dE             d eps       ncg     rms          rms(c)
DAV:   1    -0.721778054876E+02   -0.10596E-02   -0.34547E-01 18288   0.419E+00    0.312E-01
DAV:   2    -0.721808559451E+02   -0.30505E-02   -0.39517E-02 19344   0.970E-01    0.196E-01
DAV:   3    -0.721807273373E+02    0.12861E-03   -0.55359E-04 23256   0.128E-01    0.107E-01
DAV:   4    -0.721806751239E+02    0.52213E-04   -0.18488E-04 15480   0.811E-02
  33 F= -.72180675E+02 E0= -.72180509E+02  d E =-.393999E-02
       N       E                     dE             d eps       ncg     rms          rms(c)
DAV:   1    -0.721806592098E+02    0.68128E-04   -0.16887E-02 18392   0.938E-01    0.646E-02
DAV:   2    -0.721808072140E+02   -0.14800E-03   -0.19119E-03 20024   0.213E-01    0.411E-02
DAV:   3    -0.721808019905E+02    0.52235E-05   -0.22320E-05 12728   0.282E-02
  34 F= -.72180802E+02 E0= -.72180629E+02  d E =-.406685E-02
       N       E                     dE             d eps       ncg     rms          rms(c)
DAV:   1    -0.721839773001E+02   -0.31701E-02   -0.76825E-02 16288   0.183E+00    0.316E-01
DAV:   2    -0.721837390723E+02    0.23823E-03   -0.80506E-03 21816   0.541E-01    0.116E-01
DAV:   3    -0.721836055358E+02    0.13354E-03   -0.40415E-04 22024   0.102E-01    0.489E-02
DAV:   4    -0.721835681363E+02    0.37400E-04   -0.14569E-04 19488   0.569E-02
  35 F= -.72183568E+02 E0= -.72183379E+02  d E =-.276615E-02
       N       E                     dE             d eps       ncg     rms          rms(c)
DAV:   1    -0.721908388934E+02   -0.72334E-02   -0.69532E-01 16304   0.550E+00    0.949E-01
DAV:   2    -0.721887559603E+02    0.20829E-02   -0.71508E-02 21320   0.162E+00    0.335E-01
DAV:   3    -0.721874199018E+02    0.13361E-02   -0.37891E-03 22536   0.312E-01    0.150E-01
DAV:   4    -0.721870957769E+02    0.32412E-03   -0.15999E-03 28832   0.184E-01    0.172E-01
DAV:   5    -0.721871535048E+02   -0.57728E-04   -0.10845E-04 15384   0.508E-02
  36 F= -.72187154E+02 E0= -.72186880E+02  d E =-.635151E-02
       N       E                     dE             d eps       ncg     rms          rms(c)
DAV:   1    -0.721882882483E+02   -0.11925E-02   -0.79189E-03 16936   0.553E-01    0.134E-01
DAV:   2    -0.721882185848E+02    0.69663E-04   -0.65220E-04 22296   0.169E-01
  37 F= -.72188219E+02 E0= -.72187937E+02  d E =-.106508E-02
       N       E                     dE             d eps       ncg     rms          rms(c)
DAV:   1    -0.721916082811E+02   -0.33200E-02   -0.76693E-02 16544   0.172E+00    0.329E-01
DAV:   2    -0.721910938834E+02    0.51440E-03   -0.61111E-03 22632   0.506E-01    0.114E-01
DAV:   3    -0.721909275758E+02    0.16631E-03   -0.42222E-04 22240   0.102E-01    0.542E-02
DAV:   4    -0.721908920305E+02    0.35545E-04   -0.16935E-04 19336   0.639E-02
  38 F= -.72190892E+02 E0= -.72190598E+02  d E =-.373853E-02
       N       E                     dE             d eps       ncg     rms          rms(c)
DAV:   1    -0.721971141069E+02   -0.61865E-02   -0.30959E-01 16464   0.345E+00    0.636E-01
DAV:   2    -0.721953737022E+02    0.17404E-02   -0.24287E-02 22720   0.100E+00    0.217E-01
DAV:   3    -0.721947298967E+02    0.64381E-03   -0.15904E-03 23464   0.202E-01    0.107E-01
DAV:   4    -0.721945873059E+02    0.14259E-03   -0.72052E-04 27488   0.127E-01    0.124E-01
DAV:   5    -0.721946151582E+02   -0.27852E-04   -0.48733E-05 12672   0.334E-02
  39 F= -.72194615E+02 E0= -.72194321E+02  d E =-.746165E-02
       N       E                     dE             d eps       ncg     rms          rms(c)
DAV:   1    -0.722046658843E+02   -0.10079E-01   -0.12343E+00 16432   0.690E+00    0.131E+00
DAV:   2    -0.721980978522E+02    0.65680E-02   -0.96758E-02 22808   0.201E+00    0.453E-01
DAV:   3    -0.721956933399E+02    0.24045E-02   -0.59677E-03 23272   0.395E-01    0.196E-01
DAV:   4    -0.721951263661E+02    0.56697E-03   -0.27414E-03 28576   0.241E-01    0.223E-01
DAV:   5    -0.721952250407E+02   -0.98675E-04   -0.18474E-04 17568   0.642E-02
  40 F= -.72195225E+02 E0= -.72195066E+02  d E =-.807154E-02
       N       E                     dE             d eps       ncg     rms          rms(c)
DAV:   1    -0.721985524449E+02   -0.34261E-02   -0.68729E-02 18408   0.186E+00    0.135E-01
DAV:   2    -0.721991410612E+02   -0.58862E-03   -0.71080E-03 20080   0.404E-01    0.849E-02
DAV:   3    -0.721991140895E+02    0.26972E-04   -0.12388E-04 20440   0.668E-02
  41 F= -.72199114E+02 E0= -.72198987E+02  d E =-.388905E-02
       N       E                     dE             d eps       ncg     rms          rms(c)
DAV:   1    -0.721997033057E+02   -0.56224E-03   -0.11858E-01 18336   0.244E+00    0.178E-01
DAV:   2    -0.722006615372E+02   -0.95823E-03   -0.11950E-02 19832   0.515E-01    0.108E-01
DAV:   3    -0.722006080830E+02    0.53454E-04   -0.21420E-04 21120   0.848E-02
  42 F= -.72200608E+02 E0= -.72200530E+02  d E =-.538304E-02
       N       E                     dE             d eps       ncg     rms          rms(c)
DAV:   1    -0.722028152265E+02   -0.21537E-02   -0.86121E-02 18304   0.210E+00    0.256E-01
DAV:   2    -0.722034501381E+02   -0.63491E-03   -0.10370E-02 19256   0.491E-01    0.107E-01
DAV:   3    -0.722033955526E+02    0.54585E-04   -0.35094E-04 23464   0.897E-02
  43 F= -.72203396E+02 E0= -.72203371E+02  d E =-.278747E-02
       N       E                     dE             d eps       ncg     rms          rms(c)
DAV:   1    -0.722016600181E+02    0.17901E-02   -0.78101E-01 18288   0.632E+00    0.727E-01
DAV:   2    -0.722074587562E+02   -0.57987E-02   -0.92690E-02 18744   0.146E+00    0.318E-01
DAV:   3    -0.722069619292E+02    0.49683E-03   -0.30560E-03 25456   0.266E-01    0.153E-01
DAV:   4    -0.722069319324E+02    0.29997E-04   -0.35438E-04 24336   0.953E-02
  44 F= -.72206932E+02 E0= -.72206928E+02  d E =-.632385E-02
       N       E                     dE             d eps       ncg     rms          rms(c)
DAV:   1    -0.722082222295E+02   -0.12603E-02   -0.70386E-02 18256   0.189E+00    0.142E-01
DAV:   2    -0.722089522022E+02   -0.72997E-03   -0.90365E-03 19784   0.448E-01    0.624E-02
DAV:   3    -0.722089289816E+02    0.23221E-04   -0.16620E-04 20728   0.703E-02
  45 F= -.72208929E+02 E0= -.72208916E+02  d E =-.199705E-02
       N       E                     dE             d eps       ncg     rms          rms(c)
DAV:   1    -0.722089668350E+02   -0.14633E-04   -0.20586E-02 18272   0.102E+00    0.717E-02
DAV:   2    -0.722091808071E+02   -0.21397E-03   -0.26464E-03 20168   0.237E-01    0.381E-02
DAV:   3    -0.722091735311E+02    0.72759E-05   -0.38562E-05 13760   0.376E-02
  46 F= -.72209174E+02 E0= -.72209156E+02  d E =-.224160E-02
       N       E                     dE             d eps       ncg     rms          rms(c)
DAV:   1    -0.722104224520E+02   -0.12416E-02   -0.49133E-02 18256   0.154E+00    0.908E-02
DAV:   2    -0.722108704087E+02   -0.44796E-03   -0.54281E-03 19880   0.341E-01    0.511E-02
DAV:   3    -0.722108577433E+02    0.12665E-04   -0.70582E-05 18320   0.485E-02
  47 F= -.72210858E+02 E0= -.72210838E+02  d E =-.168421E-02
       N       E                     dE             d eps       ncg     rms          rms(c)
DAV:   1    -0.722100401375E+02    0.83027E-03   -0.24822E-01 18240   0.346E+00    0.212E-01
DAV:   2    -0.722122907007E+02   -0.22506E-02   -0.27301E-02 19832   0.762E-01    0.110E-01
DAV:   3    -0.722122299485E+02    0.60752E-04   -0.38807E-04 21536   0.109E-01
  48 F= -.72212230E+02 E0= -.72212203E+02  d E =-.305642E-02
       N       E                     dE             d eps       ncg     rms          rms(c)
DAV:   1    -0.722132811401E+02   -0.99044E-03   -0.97608E-03 16912   0.508E-01    0.593E-02
DAV:   2    -0.722132724784E+02    0.86617E-05   -0.22463E-04 19424   0.959E-02
  49 F= -.72213272E+02 E0= -.72213245E+02  d E =-.104253E-02
       N       E                     dE             d eps       ncg     rms          rms(c)
DAV:   1    -0.722159535792E+02   -0.26724E-02   -0.90396E-02 16256   0.153E+00    0.148E-01
DAV:   2    -0.722159237945E+02    0.29785E-04   -0.19222E-03 23040   0.282E-01    0.791E-02
DAV:   3    -0.722158521622E+02    0.71632E-04   -0.14591E-04 14264   0.654E-02
  50 F= -.72215852E+02 E0= -.72215822E+02  d E =-.362221E-02
       N       E                     dE             d eps       ncg     rms          rms(c)
DAV:   1    -0.722186945088E+02   -0.27707E-02   -0.36301E-01 16256   0.306E+00    0.280E-01
DAV:   2    -0.722186625707E+02    0.31938E-04   -0.77680E-03 22800   0.563E-01    0.151E-01
DAV:   3    -0.722184052720E+02    0.25730E-03   -0.56423E-04 22136   0.123E-01    0.547E-02
DAV:   4    -0.722183999620E+02    0.53100E-05   -0.13168E-04 14776   0.652E-02
  51 F= -.72218400E+02 E0= -.72218361E+02  d E =-.617001E-02
       N       E                     dE             d eps       ncg     rms          rms(c)
DAV:   1    -0.722205666654E+02   -0.21614E-02   -0.79184E-02 18360   0.181E+00    0.101E-01
DAV:   2    -0.722209617652E+02   -0.39510E-03   -0.49945E-03 20320   0.370E-01    0.636E-02
DAV:   3    -0.722209291645E+02    0.32601E-04   -0.72358E-05 17464   0.526E-02
  52 F= -.72220929E+02 E0= -.72220885E+02  d E =-.252920E-02
       N       E                     dE             d eps       ncg     rms          rms(c)
DAV:   1    -0.722213010428E+02   -0.33928E-03   -0.89320E-02 18336   0.192E+00    0.102E-01
DAV:   2    -0.722217440064E+02   -0.44296E-03   -0.55520E-03 20320   0.387E-01    0.636E-02
DAV:   3    -0.722217131193E+02    0.30887E-04   -0.79814E-05 18352   0.547E-02
  53 F= -.72221713E+02 E0= -.72221662E+02  d E =-.331316E-02
       N       E                     dE             d eps       ncg     rms          rms(c)
DAV:   1    -0.722233479995E+02   -0.16040E-02   -0.96577E-02 18320   0.210E+00    0.126E-01
DAV:   2    -0.722239210757E+02   -0.57308E-03   -0.69866E-03 20192   0.425E-01    0.657E-02
DAV:   3    -0.722238972166E+02    0.23859E-04   -0.95294E-05 18416   0.549E-02
  54 F= -.72223897E+02 E0= -.72223831E+02  d E =-.218410E-02
       N       E                     dE             d eps       ncg     rms          rms(c)
DAV:   1    -0.722227268005E+02    0.11943E-02   -0.87775E-01 18288   0.631E+00    0.372E-01
DAV:   2    -0.722278698624E+02   -0.51431E-02   -0.63129E-02 20192   0.128E+00    0.196E-01
DAV:   3    -0.722276542532E+02    0.21561E-03   -0.96294E-04 22688   0.163E-01    0.112E-01
DAV:   4    -0.722275743787E+02    0.79874E-04   -0.30976E-04 18816   0.101E-01
  55 F= -.72227574E+02 E0= -.72227480E+02  d E =-.586126E-02
       N       E                     dE             d eps       ncg     rms          rms(c)
DAV:   1    -0.722296591001E+02   -0.20048E-02   -0.30462E-01 18304   0.386E+00    0.227E-01
DAV:   2    -0.722320473368E+02   -0.23882E-02   -0.29001E-02 19632   0.840E-01    0.108E-01
DAV:   3    -0.722319836438E+02    0.63693E-04   -0.44568E-04 21512   0.117E-01
  56 F= -.72231984E+02 E0= -.72231897E+02  d E =-.440927E-02
       N       E                     dE             d eps       ncg     rms          rms(c)
DAV:   1    -0.722303647839E+02    0.16826E-02   -0.39549E-01 18288   0.439E+00    0.255E-01
DAV:   2    -0.722334476574E+02   -0.30829E-02   -0.37597E-02 19824   0.949E-01    0.125E-01
DAV:   3    -0.722333710143E+02    0.76643E-04   -0.60252E-04 23008   0.134E-01
  57 F= -.72233371E+02 E0= -.72233336E+02  d E =-.579664E-02
       N       E                     dE             d eps       ncg     rms          rms(c)
DAV:   1    -0.722344095394E+02   -0.96188E-03   -0.16880E-01 18336   0.285E+00    0.153E-01
DAV:   2    -0.722356803659E+02   -0.12708E-02   -0.15044E-02 19952   0.602E-01    0.821E-02
DAV:   3    -0.722356554414E+02    0.24925E-04   -0.20987E-04 20376   0.785E-02
  58 F= -.72235655E+02 E0= -.72235675E+02  d E =-.228443E-02
       N       E                     dE             d eps       ncg     rms          rms(c)
DAV:   1    -0.722327405333E+02    0.29398E-02   -0.60260E-01 18288   0.537E+00    0.280E-01
DAV:   2    -0.722373097314E+02   -0.45692E-02   -0.53669E-02 19720   0.113E+00    0.146E-01
DAV:   3    -0.722372265232E+02    0.83208E-04   -0.74016E-04 22840   0.144E-01
  59 F= -.72237227E+02 E0= -.72237365E+02  d E =-.385551E-02
       N       E                     dE             d eps       ncg     rms          rms(c)
DAV:   1    -0.722397253134E+02   -0.24156E-02   -0.64952E-02 18392   0.164E+00    0.146E-01
DAV:   2    -0.722399499081E+02   -0.22459E-03   -0.38988E-03 20328   0.345E-01    0.753E-02
DAV:   3    -0.722399118623E+02    0.38046E-04   -0.11214E-04 17264   0.606E-02
  60 F= -.72239912E+02 E0= -.72240059E+02  d E =-.268534E-02
