       N       E                     dE             d eps       ncg     rms          rms(c)
DAV:   1     0.172854041476E+03    0.17285E+03   -0.14635E+04 14336   0.675E+02
DAV:   2    -0.541686377926E+02   -0.22702E+03   -0.21805E+03 17912   0.258E+02
DAV:   3    -0.696365331670E+02   -0.15468E+02   -0.15378E+02 21504   0.532E+01
DAV:   4    -0.705746779186E+02   -0.93814E+00   -0.93580E+00 23752   0.116E+01
DAV:   5    -0.705923894580E+02   -0.17712E-01   -0.17710E-01 21020   0.133E+00    0.422E+01
DAV:   6    -0.673254984941E+02    0.32669E+01   -0.45031E+00 20488   0.124E+01    0.199E+01
DAV:   7    -0.662544021320E+02    0.10711E+01   -0.22024E+00 21092   0.618E+00    0.869E+00
DAV:   8    -0.662085206494E+02    0.45881E-01   -0.62285E-01 22336   0.393E+00    0.280E+00
DAV:   9    -0.662047703011E+02    0.37503E-02   -0.78805E-02 17936   0.137E+00    0.582E-01
DAV:  10    -0.662054337107E+02   -0.66341E-03   -0.90250E-03 19544   0.535E-01    0.234E-01
DAV:  11    -0.662067653039E+02   -0.13316E-02   -0.14147E-03 16784   0.182E-01    0.566E-02
DAV:  12    -0.662070582071E+02   -0.29290E-03   -0.39005E-04 16088   0.856E-02    0.402E-02
DAV:  13    -0.662071232909E+02   -0.65084E-04   -0.10197E-04 14048   0.563E-02
   1 F= -.66207123E+02 E0= -.66207175E+02  d E =-.662071E+02
       N       E                     dE             d eps       ncg     rms          rms(c)
DAV:   1    -0.662069944508E+02    0.63756E-04   -0.14156E-01 16424   0.243E+00    0.247E-01
DAV:   2    -0.662080656816E+02   -0.10712E-02   -0.14895E-02 17208   0.598E-01    0.169E-01
DAV:   3    -0.662079534467E+02    0.11223E-03   -0.27327E-04 17612   0.982E-02    0.835E-02
DAV:   4    -0.662079232637E+02    0.30183E-04   -0.14751E-04 12392   0.653E-02
   2 F= -.66207923E+02 E0= -.66207975E+02  d E =-.799973E-03
       N       E                     dE             d eps       ncg     rms          rms(c)
DAV:   1    -0.662082147061E+02   -0.26126E-03   -0.18494E-02 16500   0.866E-01    0.852E-02
DAV:   2    -0.662083524952E+02   -0.13779E-03   -0.19332E-03 16984   0.217E-01    0.545E-02
DAV:   3    -0.662083363900E+02    0.16105E-04   -0.28896E-05 10928   0.357E-02
   3 F= -.66208336E+02 E0= -.66208388E+02  d E =-.121310E-02
       N       E                     dE             d eps       ncg     rms          rms(c)
DAV:   1    -0.662095942133E+02   -0.12417E-02   -0.95646E-02 14096   0.181E+00    0.204E-01
DAV:   2    -0.662098407180E+02   -0.24650E-03   -0.62449E-03 18656   0.446E-01    0.155E-01
DAV:   3    -0.662097709674E+02    0.69751E-04   -0.16652E-04 13416   0.744E-02
   4 F= -.66209771E+02 E0= -.66209823E+02  d E =-.143458E-02
       N       E                     dE             d eps       ncg     rms          rms(c)
DAV:   1    -0.662098087443E+02    0.31974E-04   -0.88281E-02 14000   0.173E+00    0.211E-01
DAV:   2    -0.662099913279E+02   -0.18258E-03   -0.57496E-03 18936   0.421E-01    0.164E-01
DAV:   3    -0.662099175042E+02    0.73824E-04   -0.18847E-04 13876   0.770E-02
   5 F= -.66209918E+02 E0= -.66209969E+02  d E =-.158111E-02
       N       E                     dE             d eps       ncg     rms          rms(c)
DAV:   1    -0.662102739935E+02   -0.28267E-03   -0.81770E-02 15528   0.184E+00    0.177E-01
DAV:   2    -0.662106785218E+02   -0.40453E-03   -0.80307E-03 15920   0.445E-01    0.906E-02
DAV:   3    -0.662106007876E+02    0.77734E-04   -0.19125E-04 16236   0.778E-02
   6 F= -.66210601E+02 E0= -.66210653E+02  d E =-.683283E-03
       N       E                     dE             d eps       ncg     rms          rms(c)
DAV:   1    -0.662105054802E+02    0.17304E-03   -0.20376E-02 15712   0.914E-01    0.904E-02
DAV:   2    -0.662106012792E+02   -0.95799E-04   -0.19763E-03 16104   0.218E-01    0.494E-02
DAV:   3    -0.662105842029E+02    0.17076E-04   -0.45376E-05 11800   0.398E-02
   7 F= -.66210584E+02 E0= -.66210636E+02  d E =-.666699E-03
