       N       E                     dE             d eps       ncg     rms          rms(c)
DAV:   1     0.177214310931E+03    0.17721E+03   -0.13419E+04 20664   0.767E+02
DAV:   2    -0.359697377287E+02   -0.21318E+03   -0.20833E+03 25816   0.301E+02
DAV:   3    -0.501835131928E+02   -0.14214E+02   -0.14162E+02 33568   0.601E+01
DAV:   4    -0.510151284393E+02   -0.83162E+00   -0.82966E+00 32972   0.118E+01
DAV:   5    -0.510336704530E+02   -0.18542E-01   -0.18540E-01 32820   0.164E+00    0.414E+01
DAV:   6    -0.482623393960E+02    0.27713E+01   -0.70505E+00 31592   0.161E+01    0.181E+01
DAV:   7    -0.475933859564E+02    0.66895E+00   -0.22143E+00 29112   0.655E+00    0.971E+00
DAV:   8    -0.475543857179E+02    0.39000E-01   -0.69942E-01 32792   0.454E+00    0.376E+00
DAV:   9    -0.475551208279E+02   -0.73511E-03   -0.41895E-02 26408   0.109E+00    0.946E-01
DAV:  10    -0.475554386713E+02   -0.31784E-03   -0.12186E-02 30728   0.572E-01    0.246E-01
DAV:  11    -0.475559150376E+02   -0.47637E-03   -0.98919E-04 27960   0.194E-01    0.726E-02
DAV:  12    -0.475561002917E+02   -0.18525E-03   -0.31977E-04 20776   0.107E-01    0.316E-02
DAV:  13    -0.475561262161E+02   -0.25924E-04   -0.41455E-05 14488   0.378E-02
   1 F= -.47556126E+02 E0= -.47557030E+02  d E =-.475561E+02
       N       E                     dE             d eps       ncg     rms          rms(c)
DAV:   1    -0.475619694982E+02   -0.58692E-02   -0.16856E-01 20960   0.268E+00    0.377E-01
DAV:   2    -0.475605556921E+02    0.14138E-02   -0.85099E-03 26660   0.628E-01    0.185E-01
DAV:   3    -0.475600100706E+02    0.54562E-03   -0.10648E-03 28644   0.196E-01    0.814E-02
DAV:   4    -0.475598753316E+02    0.13474E-03   -0.28054E-04 20768   0.112E-01    0.751E-02
DAV:   5    -0.475598799728E+02   -0.46411E-05   -0.41444E-05 13360   0.494E-02
   2 F= -.47559880E+02 E0= -.47560798E+02  d E =-.375376E-02
       N       E                     dE             d eps       ncg     rms          rms(c)
DAV:   1    -0.475822556745E+02   -0.22380E-01   -0.15112E+00 20284   0.804E+00    0.113E+00
DAV:   2    -0.475694992113E+02    0.12756E-01   -0.75677E-02 26368   0.187E+00    0.543E-01
DAV:   3    -0.475646971221E+02    0.48021E-02   -0.93267E-03 28784   0.573E-01    0.241E-01
DAV:   4    -0.475648594653E+02   -0.16234E-03   -0.28527E-03 30216   0.334E-01    0.216E-01
DAV:   5    -0.475649028185E+02   -0.43353E-04   -0.41664E-04 28240   0.102E-01
   3 F= -.47564903E+02 E0= -.47564903E+02  d E =-.877660E-02
       N       E                     dE             d eps       ncg     rms          rms(c)
DAV:   1    -0.475656575398E+02   -0.79807E-03   -0.20906E-01 23304   0.334E+00    0.329E-01
DAV:   2    -0.475670163111E+02   -0.13588E-02   -0.17562E-02 26324   0.822E-01    0.253E-01
DAV:   3    -0.475654559366E+02    0.15604E-02   -0.69746E-04 27128   0.165E-01    0.141E-01
DAV:   4    -0.475653342196E+02    0.12172E-03   -0.39883E-04 23284   0.124E-01    0.513E-02
DAV:   5    -0.475653403151E+02   -0.60955E-05   -0.49189E-05 13500   0.505E-02
   4 F= -.47565340E+02 E0= -.47566206E+02  d E =-.437497E-03
       N       E                     dE             d eps       ncg     rms          rms(c)
DAV:   1    -0.475654247644E+02   -0.90545E-04   -0.10416E-02 23812   0.748E-01    0.713E-02
DAV:   2    -0.475654331969E+02   -0.84326E-05   -0.87433E-04 26304   0.183E-01
   5 F= -.47565433E+02 E0= -.47566296E+02  d E =-.530378E-03
