 running on   32 total cores
 distrk:  each k-point on   32 cores,    1 groups
 distr:  one band on    8 cores,    4 groups
 using from now: INCAR     
 vasp.5.4.4.18Apr17-6-g9f103f2a35 (build Nov 01 2019 12:17:22) complex          
  
 POSCAR found type information on POSCAR  H  Nb H  Sr H  Nb H 
 POSCAR found :  7 types and      20 ions

 ----------------------------------------------------------------------------- 
|                                                                             |
|  ADVICE TO THIS USER RUNNING 'VASP/VAMP'   (HEAR YOUR MASTER'S VOICE ...):  |
|                                                                             |
|      You have a (more or less) 'large supercell' and for larger cells       |
|      it might be more efficient to use real space projection opertators     |
|      So try LREAL= Auto  in the INCAR   file.                               |
|      Mind:          For very  accurate calculation you might also keep the  |
|      reciprocal projection scheme          (i.e. LREAL=.FALSE.)             |
|                                                                             |
 ----------------------------------------------------------------------------- 

 LDA part: xc-table for Pade appr. of Perdew
 generate k-points for:    8    8    7
 POSCAR, INCAR and KPOINTS ok, starting setup
 FFT: planning ...
 WAVECAR not read
 entering main loop
       N       E                     dE             d eps       ncg     rms          rms(c)
DAV:   1     0.219912665972E+03    0.21991E+03   -0.15510E+04 16768   0.735E+02
DAV:   2    -0.661667797262E+02   -0.28608E+03   -0.27339E+03 21016   0.321E+02
DAV:   3    -0.824964636303E+02   -0.16330E+02   -0.16145E+02 25664   0.665E+01
DAV:   4    -0.832060814032E+02   -0.70962E+00   -0.70742E+00 27680   0.120E+01
DAV:   5    -0.832218688209E+02   -0.15787E-01   -0.15781E-01 25656   0.142E+00    0.464E+01
DAV:   6    -0.796847706012E+02    0.35371E+01   -0.81457E+00 25152   0.189E+01    0.183E+01
DAV:   7    -0.789498254996E+02    0.73495E+00   -0.16826E+00 21712   0.683E+00    0.902E+00
DAV:   8    -0.788875832166E+02    0.62242E-01   -0.48153E-01 26984   0.392E+00    0.209E+00
DAV:   9    -0.788901072012E+02   -0.25240E-02   -0.47747E-02 26112   0.129E+00    0.174E+00
DAV:  10    -0.788902403562E+02   -0.13316E-03   -0.61925E-03 22728   0.548E-01    0.708E-01
DAV:  11    -0.788910574880E+02   -0.81713E-03   -0.32995E-03 23184   0.435E-01    0.171E-01
DAV:  12    -0.788911033386E+02   -0.45851E-04   -0.43271E-04 19976   0.122E-01
   1 F= -.78891103E+02 E0= -.78891199E+02  d E =-.788911E+02
 curvature:   0.00 expect dE= 0.000E+00 dE for cont linesearch  0.000E+00
 trial: gam= 0.00000 g(F)=  0.354E-02 g(S)=  0.135E-02 ort = 0.000E+00 (trialstep = 0.100E+01)
 search vector abs. value=  0.489E-02
 bond charge predicted
       N       E                     dE             d eps       ncg     rms          rms(c)
DAV:   1    -0.788921813561E+02   -0.11239E-02   -0.12861E-01 19284   0.213E+00    0.268E-01
DAV:   2    -0.788922972122E+02   -0.11586E-03   -0.90650E-03 21624   0.548E-01    0.128E-01
DAV:   3    -0.788920542825E+02    0.24293E-03   -0.44818E-04 21000   0.138E-01    0.588E-02
DAV:   4    -0.788920258279E+02    0.28455E-04   -0.23753E-04 14128   0.930E-02
   2 F= -.78892026E+02 E0= -.78892173E+02  d E =-.922489E-03
 trial-energy change:   -0.000922  1 .order   -0.000823   -0.004892    0.003245
 step:   0.6012(harm=  0.6012)  dis= 0.00453  next Energy=   -78.892574 (dE=-0.147E-02)
 bond charge predicted
       N       E                     dE             d eps       ncg     rms          rms(c)
DAV:   1    -0.788926922851E+02   -0.63800E-03   -0.20526E-02 19304   0.845E-01    0.117E-01
DAV:   2    -0.788927008715E+02   -0.85864E-05   -0.13926E-03 21680   0.217E-01    0.546E-02
DAV:   3    -0.788926580781E+02    0.42793E-04   -0.67288E-05 10960   0.571E-02
   3 F= -.78892658E+02 E0= -.78892785E+02  d E =-.155474E-02
 curvature:  -0.30 expect dE=-0.859E-03 dE for cont linesearch -0.180E-05
 trial: gam= 0.61879 g(F)=  0.235E-02 g(S)=  0.505E-03 ort =-0.171E-03 (trialstep = 0.920E+00)
 search vector abs. value=  0.452E-02
 bond charge predicted
       N       E                     dE             d eps       ncg     rms          rms(c)
DAV:   1    -0.788951249214E+02   -0.24240E-02   -0.82099E-02 17284   0.178E+00    0.272E-01
DAV:   2    -0.788949566261E+02    0.16830E-03   -0.51337E-03 21520   0.454E-01    0.107E-01
DAV:   3    -0.788947796516E+02    0.17697E-03   -0.31200E-04 20192   0.121E-01    0.460E-02
DAV:   4    -0.788947473110E+02    0.32341E-04   -0.88081E-05 10848   0.755E-02
   4 F= -.78894747E+02 E0= -.78894903E+02  d E =-.208923E-02
 trial-energy change:   -0.002089  1 .order   -0.002076   -0.002531   -0.001621
 step:   2.5599(harm=  2.5599)  dis= 0.01090  next Energy=   -78.896179 (dE=-0.352E-02)
 bond charge predicted
       N       E                     dE             d eps       ncg     rms          rms(c)
DAV:   1    -0.788969924666E+02   -0.22128E-02   -0.25682E-01 16620   0.316E+00    0.482E-01
DAV:   2    -0.788963946662E+02    0.59780E-03   -0.16070E-02 21664   0.796E-01    0.190E-01
DAV:   3    -0.788958214416E+02    0.57322E-03   -0.10437E-03 23096   0.212E-01    0.837E-02
DAV:   4    -0.788957271560E+02    0.94286E-04   -0.31131E-04 20176   0.121E-01
   5 F= -.78895727E+02 E0= -.78895932E+02  d E =-.306908E-02
 curvature:  -2.10 expect dE=-0.157E-01 dE for cont linesearch -0.812E-04
 trial: gam= 2.87182 g(F)=  0.605E-02 g(S)=  0.143E-02 ort =-0.418E-03 (trialstep = 0.133E+00)
 search vector abs. value=  0.423E-01
 bond charge predicted
       N       E                     dE             d eps       ncg     rms          rms(c)
DAV:   1    -0.788966433296E+02   -0.82189E-03   -0.13664E-02 17348   0.641E-01    0.759E-02
DAV:   2    -0.788965605441E+02    0.82786E-04   -0.38581E-04 21360   0.134E-01
   6 F= -.78896561E+02 E0= -.78896780E+02  d E =-.833388E-03
 ZBRENT: can't locate minimum, use default step
 trial-energy change:   -0.000833  1 .order   -0.000873   -0.000837   -0.000910
 step:   0.5327(harm=  0.5327)  dis= 0.00674  next Energy=   -78.899665 (dE=-0.394E-02)
 bond charge predicted
       N       E                     dE             d eps       ncg     rms          rms(c)
DAV:   1    -0.788996552709E+02   -0.30119E-02   -0.12060E-01 16500   0.190E+00    0.204E-01
DAV:   2    -0.788989375418E+02    0.71773E-03   -0.33513E-03 21752   0.396E-01    0.133E-01
DAV:   3    -0.788985773526E+02    0.36019E-03   -0.69361E-04 21772   0.175E-01    0.361E-02
DAV:   4    -0.788985719198E+02    0.54328E-05   -0.10838E-04 10928   0.859E-02
   7 F= -.78898572E+02 E0= -.78898830E+02  d E =-.284476E-02
 curvature:  -2.78 expect dE=-0.192E-01 dE for cont linesearch -0.139E-02
 ZBRENT: increasing intervall
 opt :   1.3318  next Energy=   -78.900458 (dE=-0.473E-02)
 bond charge predicted
       N       E                     dE             d eps       ncg     rms          rms(c)
DAV:   1    -0.789052133894E+02   -0.66360E-02   -0.48756E-01 16312   0.382E+00    0.391E-01
DAV:   2    -0.789026530053E+02    0.25604E-02   -0.13568E-02 21696   0.782E-01    0.259E-01
DAV:   3    -0.789012951113E+02    0.13579E-02   -0.25271E-03 21944   0.322E-01    0.659E-02
DAV:   4    -0.789012896152E+02    0.54961E-05   -0.47221E-04 19736   0.154E-01
   8 F= -.78901290E+02 E0= -.78901599E+02  d E =-.556246E-02
 curvature:  -3.78 expect dE=-0.283E-01 dE for cont linesearch -0.432E-03
 trial: gam= 0.13783 g(F)=  0.546E-02 g(S)=  0.204E-02 ort = 0.220E-02 (trialstep = 0.373E+00)
 search vector abs. value=  0.891E-02
 bond charge predicted
       N       E                     dE             d eps       ncg     rms          rms(c)
DAV:   1    -0.789038464488E+02   -0.25513E-02   -0.33560E-02 17072   0.132E+00    0.280E-01
DAV:   2    -0.789037534496E+02    0.92999E-04   -0.41138E-03 21872   0.428E-01    0.766E-02
DAV:   3    -0.789037059730E+02    0.47477E-04   -0.20354E-04 15312   0.918E-02
   9 F= -.78903706E+02 E0= -.78904021E+02  d E =-.241636E-02
 trial-energy change:   -0.002416  1 .order   -0.002468   -0.002909   -0.002027
 step:   1.2297(harm=  1.2297)  dis= 0.00914  next Energy=   -78.906087 (dE=-0.480E-02)
 bond charge predicted
       N       E                     dE             d eps       ncg     rms          rms(c)
DAV:   1    -0.789063005672E+02   -0.25471E-02   -0.17515E-01 16344   0.301E+00    0.631E-01
DAV:   2    -0.789057337338E+02    0.56683E-03   -0.21299E-02 22072   0.976E-01    0.161E-01
DAV:   3    -0.789054777973E+02    0.25594E-03   -0.11671E-03 21736   0.207E-01    0.108E-01
DAV:   4    -0.789054171560E+02    0.60641E-04   -0.35854E-04 22592   0.107E-01
  10 F= -.78905417E+02 E0= -.78905740E+02  d E =-.412754E-02
 curvature:  -0.70 expect dE=-0.330E-02 dE for cont linesearch -0.719E-04
 trial: gam= 0.80708 g(F)=  0.439E-02 g(S)=  0.312E-03 ort =-0.955E-03 (trialstep = 0.541E+00)
 search vector abs. value=  0.896E-02
 bond charge predicted
       N       E                     dE             d eps       ncg     rms          rms(c)
DAV:   1    -0.789069060349E+02   -0.14282E-02   -0.52793E-02 16640   0.145E+00    0.251E-01
DAV:   2    -0.789067967746E+02    0.10926E-03   -0.34435E-03 21688   0.404E-01    0.985E-02
DAV:   3    -0.789067198434E+02    0.76931E-04   -0.19486E-04 13936   0.925E-02
  11 F= -.78906720E+02 E0= -.78907042E+02  d E =-.130269E-02
 trial-energy change:   -0.001303  1 .order   -0.001407   -0.002126   -0.000688
 step:   0.7998(harm=  0.7998)  dis= 0.00593  next Energy=   -78.906988 (dE=-0.157E-02)
 bond charge predicted
       N       E                     dE             d eps       ncg     rms          rms(c)
DAV:   1    -0.789068346642E+02   -0.37890E-04   -0.11450E-02 17584   0.677E-01    0.137E-01
DAV:   2    -0.789067958730E+02    0.38791E-04   -0.74549E-04 21632   0.187E-01
  12 F= -.78906796E+02 E0= -.78907119E+02  d E =-.137872E-02
 curvature:  -0.91 expect dE=-0.354E-02 dE for cont linesearch -0.393E-05
 trial: gam= 0.59175 g(F)=  0.363E-02 g(S)=  0.258E-03 ort =-0.196E-03 (trialstep = 0.593E+00)
 search vector abs. value=  0.679E-02
 bond charge predicted
       N       E                     dE             d eps       ncg     rms          rms(c)
DAV:   1    -0.789079635147E+02   -0.11289E-02   -0.56935E-02 18176   0.169E+00    0.106E-01
DAV:   2    -0.789084321277E+02   -0.46861E-03   -0.57583E-03 18408   0.410E-01    0.667E-02
DAV:   3    -0.789084177877E+02    0.14340E-04   -0.99071E-05 16040   0.687E-02
  13 F= -.78908418E+02 E0= -.78908749E+02  d E =-.162191E-02
 trial-energy change:   -0.001622  1 .order   -0.001671   -0.002234   -0.001108
 step:   1.1757(harm=  1.1757)  dis= 0.00808  next Energy=   -78.909011 (dE=-0.222E-02)
 bond charge predicted
       N       E                     dE             d eps       ncg     rms          rms(c)
DAV:   1    -0.789084926799E+02   -0.60552E-04   -0.54195E-02 18168   0.164E+00    0.948E-02
DAV:   2    -0.789089247353E+02   -0.43206E-03   -0.53155E-03 18592   0.391E-01    0.651E-02
DAV:   3    -0.789089118236E+02    0.12912E-04   -0.89809E-05 15936   0.652E-02
  14 F= -.78908912E+02 E0= -.78909250E+02  d E =-.211595E-02
 curvature:  -1.06 expect dE=-0.212E-02 dE for cont linesearch -0.137E-07
 trial: gam= 0.49884 g(F)=  0.153E-02 g(S)=  0.468E-03 ort = 0.937E-05 (trialstep = 0.709E+00)
 search vector abs. value=  0.370E-02
 bond charge predicted
       N       E                     dE             d eps       ncg     rms          rms(c)
DAV:   1    -0.789102983407E+02   -0.13736E-02   -0.29454E-02 16376   0.986E-01    0.177E-01
DAV:   2    -0.789102285353E+02    0.69805E-04   -0.13134E-03 21736   0.263E-01    0.599E-02
DAV:   3    -0.789101909266E+02    0.37609E-04   -0.84520E-05 11216   0.582E-02
  15 F= -.78910191E+02 E0= -.78910532E+02  d E =-.127910E-02
 ZBRENT: can't locate minimum, use default step
 trial-energy change:   -0.001279  1 .order   -0.001316   -0.001420   -0.001212
 step:   2.8377(harm=  4.8296)  dis= 0.01410  next Energy=   -78.913746 (dE=-0.483E-02)
 bond charge predicted
       N       E                     dE             d eps       ncg     rms          rms(c)
DAV:   1    -0.789133557703E+02   -0.31272E-02   -0.26282E-01 16280   0.295E+00    0.531E-01
DAV:   2    -0.789126924681E+02    0.66330E-03   -0.11734E-02 22016   0.785E-01    0.180E-01
DAV:   3    -0.789123623105E+02    0.33016E-03   -0.85852E-04 22496   0.171E-01    0.903E-02
DAV:   4    -0.789123019694E+02    0.60341E-04   -0.22972E-04 18216   0.865E-02
  16 F= -.78912302E+02 E0= -.78912647E+02  d E =-.339015E-02
 curvature:  -3.42 expect dE=-0.147E-01 dE for cont linesearch -0.211E-03
 trial: gam= 0.00000 g(F)=  0.404E-02 g(S)=  0.260E-03 ort = 0.478E-03 (trialstep = 0.977E+00)
 search vector abs. value=  0.429E-02
 bond charge predicted
       N       E                     dE             d eps       ncg     rms          rms(c)
DAV:   1    -0.789108751081E+02    0.14872E-02   -0.17021E-01 18188   0.299E+00    0.276E-01
DAV:   2    -0.789125445320E+02   -0.16694E-02   -0.21795E-02 19704   0.792E-01    0.142E-01
DAV:   3    -0.789124349067E+02    0.10963E-03   -0.44010E-04 21792   0.141E-01    0.708E-02
DAV:   4    -0.789124020702E+02    0.32837E-04   -0.16844E-04 15608   0.799E-02
  17 F= -.78912402E+02 E0= -.78912735E+02  d E =-.100101E-03
 trial-energy change:   -0.000100  1 .order   -0.000157   -0.004196    0.003882
 step:   0.5074(harm=  0.5074)  dis= 0.00253  next Energy=   -78.913392 (dE=-0.109E-02)
 bond charge predicted
       N       E                     dE             d eps       ncg     rms          rms(c)
DAV:   1    -0.789130343182E+02   -0.59941E-03   -0.39565E-02 18436   0.143E+00    0.128E-01
DAV:   2    -0.789134215578E+02   -0.38724E-03   -0.50644E-03 19224   0.385E-01    0.699E-02
DAV:   3    -0.789133911171E+02    0.30441E-04   -0.83447E-05 15120   0.671E-02
  18 F= -.78913391E+02 E0= -.78913730E+02  d E =-.108915E-02
 curvature:  -0.25 expect dE=-0.308E-03 dE for cont linesearch -0.545E-05
 trial: gam= 0.35357 g(F)=  0.108E-02 g(S)=  0.133E-03 ort =-0.304E-03 (trialstep = 0.883E+00)
 search vector abs. value=  0.154E-02
 reached required accuracy - stopping structural energy minimisation
