   8   8   0   0
  0.8255627E+01  0.3430714E-09  0.3433599E-09  0.7413697E-09  0.5000000E-15
  1.000000000000000E-004
  CAR 
 unknown system                          
     12.10299719    -33.96589085  301      3.88511423      1.00000000
    -33.966  0.0000E+00  0.0000E+00
    -33.812  0.0000E+00  0.0000E+00
    -33.659  0.0000E+00  0.0000E+00
    -33.505  0.0000E+00  0.0000E+00
    -33.352  0.0000E+00  0.0000E+00
    -33.198  0.0000E+00  0.0000E+00
    -33.045  0.0000E+00  0.0000E+00
    -32.891  0.0000E+00  0.0000E+00
    -32.737  0.1255E-32  0.1928E-33
    -32.584  0.2841E-22  0.4363E-23
    -32.430  0.5194E-14  0.7976E-15
    -32.277  0.7074E-08  0.1086E-08
    -32.123  0.5569E-04  0.8553E-05
    -31.970 -0.1543E-02 -0.2284E-03
    -31.816  0.7244E-01  0.1090E-01
    -31.662  0.1508E+00  0.3405E-01
    -31.509 -0.4921E-02  0.3329E-01
    -31.355  0.2495E-03  0.3333E-01
    -31.202  0.1573E-06  0.3333E-01
    -31.048  0.4665E-12  0.3333E-01
    -30.895  0.0000E+00  0.3333E-01
    -30.741  0.0000E+00  0.3333E-01
    -30.588  0.0000E+00  0.3333E-01
    -30.434  0.0000E+00  0.3333E-01
    -30.280  0.0000E+00  0.3333E-01
    -30.127  0.0000E+00  0.3333E-01
    -29.973  0.0000E+00  0.3333E-01
    -29.820  0.0000E+00  0.3333E-01
    -29.666  0.0000E+00  0.3333E-01
    -29.513  0.0000E+00  0.3333E-01
    -29.359  0.0000E+00  0.3333E-01
    -29.205  0.0000E+00  0.3333E-01
    -29.052  0.0000E+00  0.3333E-01
    -28.898  0.0000E+00  0.3333E-01
    -28.745  0.0000E+00  0.3333E-01
    -28.591  0.8064E-33  0.3333E-01
    -28.438  0.2400E-22  0.3333E-01
    -28.284  0.5771E-14  0.3333E-01
    -28.130  0.1015E-07  0.3333E-01
    -27.977  0.9416E-04  0.3335E-01
    -27.823 -0.3258E-02  0.3285E-01
    -27.670  0.1057E+00  0.4908E-01
    -27.516  0.3843E+00  0.1081E+00
    -27.363  0.1669E+00  0.1337E+00
    -27.209 -0.2572E-02  0.1333E+00
    -27.056  0.8183E-04  0.1333E+00
    -26.902  0.3907E-08  0.1333E+00
    -26.748  0.1092E-14  0.1333E+00
    -26.595  0.0000E+00  0.1333E+00
    -26.441  0.0000E+00  0.1333E+00
    -26.288  0.0000E+00  0.1333E+00
    -26.134  0.0000E+00  0.1333E+00
    -25.981  0.0000E+00  0.1333E+00
    -25.827  0.0000E+00  0.1333E+00
    -25.673  0.0000E+00  0.1333E+00
    -25.520  0.0000E+00  0.1333E+00
    -25.366  0.0000E+00  0.1333E+00
    -25.213  0.0000E+00  0.1333E+00
    -25.059  0.0000E+00  0.1333E+00
    -24.906  0.0000E+00  0.1333E+00
    -24.752  0.0000E+00  0.1333E+00
    -24.599  0.0000E+00  0.1333E+00
    -24.445  0.0000E+00  0.1333E+00
    -24.291  0.0000E+00  0.1333E+00
    -24.138  0.0000E+00  0.1333E+00
    -23.984  0.0000E+00  0.1333E+00
    -23.831  0.0000E+00  0.1333E+00
    -23.677  0.0000E+00  0.1333E+00
    -23.524  0.0000E+00  0.1333E+00
    -23.370  0.0000E+00  0.1333E+00
    -23.216  0.0000E+00  0.1333E+00
    -23.063  0.0000E+00  0.1333E+00
    -22.909  0.0000E+00  0.1333E+00
    -22.756  0.0000E+00  0.1333E+00
    -22.602  0.0000E+00  0.1333E+00
    -22.449  0.0000E+00  0.1333E+00
    -22.295  0.0000E+00  0.1333E+00
    -22.142  0.0000E+00  0.1333E+00
    -21.988  0.0000E+00  0.1333E+00
    -21.834  0.0000E+00  0.1333E+00
    -21.681  0.0000E+00  0.1333E+00
    -21.527  0.0000E+00  0.1333E+00
    -21.374  0.0000E+00  0.1333E+00
    -21.220  0.0000E+00  0.1333E+00
    -21.067  0.0000E+00  0.1333E+00
    -20.913  0.0000E+00  0.1333E+00
    -20.759  0.0000E+00  0.1333E+00
    -20.606  0.0000E+00  0.1333E+00
    -20.452  0.0000E+00  0.1333E+00
    -20.299  0.0000E+00  0.1333E+00
    -20.145  0.0000E+00  0.1333E+00
    -19.992  0.0000E+00  0.1333E+00
    -19.838  0.0000E+00  0.1333E+00
    -19.685  0.0000E+00  0.1333E+00
    -19.531  0.0000E+00  0.1333E+00
    -19.377  0.0000E+00  0.1333E+00
    -19.224  0.0000E+00  0.1333E+00
    -19.070  0.0000E+00  0.1333E+00
    -18.917  0.0000E+00  0.1333E+00
    -18.763  0.0000E+00  0.1333E+00
    -18.610  0.0000E+00  0.1333E+00
    -18.456  0.0000E+00  0.1333E+00
    -18.302  0.0000E+00  0.1333E+00
    -18.149  0.0000E+00  0.1333E+00
    -17.995  0.0000E+00  0.1333E+00
    -17.842  0.0000E+00  0.1333E+00
    -17.688  0.0000E+00  0.1333E+00
    -17.535  0.0000E+00  0.1333E+00
    -17.381  0.0000E+00  0.1333E+00
    -17.228  0.0000E+00  0.1333E+00
    -17.074  0.0000E+00  0.1333E+00
    -16.920  0.0000E+00  0.1333E+00
    -16.767  0.0000E+00  0.1333E+00
    -16.613  0.0000E+00  0.1333E+00
    -16.460  0.0000E+00  0.1333E+00
    -16.306  0.0000E+00  0.1333E+00
    -16.153  0.0000E+00  0.1333E+00
    -15.999  0.0000E+00  0.1333E+00
    -15.845  0.0000E+00  0.1333E+00
    -15.692  0.0000E+00  0.1333E+00
    -15.538  0.0000E+00  0.1333E+00
    -15.385  0.1036E-30  0.1333E+00
    -15.231  0.7597E-21  0.1333E+00
    -15.078  0.4497E-13  0.1333E+00
    -14.924  0.1963E-07  0.1333E+00
    -14.771  0.4464E-04  0.1333E+00
    -14.617 -0.9516E-03  0.1332E+00
    -14.463  0.2938E-01  0.1377E+00
    -14.310  0.8260E-01  0.1504E+00
    -14.156  0.6697E-01  0.1607E+00
    -14.003  0.4872E-01  0.1682E+00
    -13.849  0.1158E+00  0.1859E+00
    -13.696  0.1919E+00  0.2154E+00
    -13.542  0.1110E+00  0.2325E+00
    -13.388  0.5530E-02  0.2333E+00
    -13.235  0.2067E-03  0.2333E+00
    -13.081  0.2578E-05  0.2333E+00
    -12.928  0.6180E-10  0.2333E+00
    -12.774  0.9239E-17  0.2333E+00
    -12.621  0.0000E+00  0.2333E+00
    -12.467  0.0000E+00  0.2333E+00
    -12.314  0.0000E+00  0.2333E+00
    -12.160  0.0000E+00  0.2333E+00
    -12.006  0.0000E+00  0.2333E+00
    -11.853  0.0000E+00  0.2333E+00
    -11.699  0.0000E+00  0.2333E+00
    -11.546  0.0000E+00  0.2333E+00
    -11.392  0.0000E+00  0.2333E+00
    -11.239  0.0000E+00  0.2333E+00
    -11.085  0.0000E+00  0.2333E+00
    -10.931  0.0000E+00  0.2333E+00
    -10.778  0.0000E+00  0.2333E+00
    -10.624  0.0000E+00  0.2333E+00
    -10.471  0.0000E+00  0.2333E+00
    -10.317  0.0000E+00  0.2333E+00
    -10.164  0.0000E+00  0.2333E+00
    -10.010  0.0000E+00  0.2333E+00
     -9.857  0.0000E+00  0.2333E+00
     -9.703  0.0000E+00  0.2333E+00
     -9.549  0.0000E+00  0.2333E+00
     -9.396  0.0000E+00  0.2333E+00
     -9.242  0.0000E+00  0.2333E+00
     -9.089  0.0000E+00  0.2333E+00
     -8.935  0.0000E+00  0.2333E+00
     -8.782  0.0000E+00  0.2333E+00
     -8.628  0.0000E+00  0.2333E+00
     -8.474  0.0000E+00  0.2333E+00
     -8.321  0.0000E+00  0.2333E+00
     -8.167  0.0000E+00  0.2333E+00
     -8.014  0.0000E+00  0.2333E+00
     -7.860  0.0000E+00  0.2333E+00
     -7.707  0.0000E+00  0.2333E+00
     -7.553  0.0000E+00  0.2333E+00
     -7.399  0.0000E+00  0.2333E+00
     -7.246  0.0000E+00  0.2333E+00
     -7.092  0.0000E+00  0.2333E+00
     -6.939  0.0000E+00  0.2333E+00
     -6.785  0.2280E-39  0.2333E+00
     -6.632  0.3544E-28  0.2333E+00
     -6.478  0.4309E-19  0.2333E+00
     -6.325  0.3750E-12  0.2333E+00
     -6.171  0.1797E-07  0.2333E+00
     -6.017  0.5360E-06  0.2333E+00
     -5.864  0.2465E-04  0.2333E+00
     -5.710  0.1338E-02  0.2335E+00
     -5.557  0.1581E-02  0.2338E+00
     -5.403  0.4716E-02  0.2345E+00
     -5.250  0.1907E-02  0.2348E+00
     -5.096  0.6688E-02  0.2358E+00
     -4.942  0.6157E-02  0.2368E+00
     -4.789  0.4509E-02  0.2375E+00
     -4.635  0.9653E-02  0.2389E+00
     -4.482  0.9417E-02  0.2404E+00
     -4.328  0.9144E-02  0.2418E+00
     -4.175  0.1206E-01  0.2437E+00
     -4.021  0.1444E-01  0.2459E+00
     -3.868  0.1620E-01  0.2484E+00
     -3.714  0.2449E-01  0.2521E+00
     -3.560  0.2003E-01  0.2552E+00
     -3.407  0.1612E-01  0.2577E+00
     -3.253  0.1514E-01  0.2600E+00
     -3.100  0.1988E-01  0.2630E+00
     -2.946  0.1607E-01  0.2655E+00
     -2.793  0.1803E-01  0.2683E+00
     -2.639  0.1432E-01  0.2705E+00
     -2.485  0.1546E-01  0.2729E+00
     -2.332  0.1895E-01  0.2758E+00
     -2.178  0.2079E-01  0.2790E+00
     -2.025  0.3545E-01  0.2844E+00
     -1.871  0.4248E-01  0.2909E+00
     -1.718  0.5422E-01  0.2993E+00
     -1.564  0.5979E-01  0.3084E+00
     -1.411  0.5892E-01  0.3175E+00
     -1.257  0.6907E-01  0.3281E+00
     -1.103  0.5528E-01  0.3366E+00
     -0.950  0.7371E-01  0.3479E+00
     -0.796  0.6801E-01  0.3583E+00
     -0.643  0.3868E-01  0.3643E+00
     -0.489  0.3847E-01  0.3702E+00
     -0.336  0.3364E-01  0.3753E+00
     -0.182  0.2312E-01  0.3789E+00
     -0.028  0.2186E-01  0.3823E+00
      0.125  0.3057E-01  0.3869E+00
      0.279  0.2892E-01  0.3914E+00
      0.432  0.1447E-01  0.3936E+00
      0.586  0.1672E-01  0.3962E+00
      0.739  0.1372E-01  0.3983E+00
      0.893  0.1004E-01  0.3998E+00
      1.046  0.8112E-02  0.4011E+00
      1.200  0.1195E-01  0.4029E+00
      1.354  0.1021E-01  0.4045E+00
      1.507  0.1381E-01  0.4066E+00
      1.661  0.1957E-01  0.4096E+00
      1.814  0.1290E-01  0.4116E+00
      1.968  0.2118E-01  0.4148E+00
      2.121  0.2292E-01  0.4184E+00
      2.275  0.1835E-01  0.4212E+00
      2.429  0.2671E-01  0.4253E+00
      2.582  0.2150E-01  0.4286E+00
      2.736  0.1833E-01  0.4314E+00
      2.889  0.1777E-01  0.4341E+00
      3.043  0.2377E-01  0.4378E+00
      3.196  0.1579E-01  0.4402E+00
      3.350  0.1799E-01  0.4430E+00
      3.503  0.1441E-01  0.4452E+00
      3.657  0.1994E-01  0.4482E+00
      3.811  0.1031E-01  0.4498E+00
      3.964  0.1186E-01  0.4516E+00
      4.118  0.2111E-01  0.4549E+00
      4.271  0.1450E-01  0.4571E+00
      4.425  0.2654E-01  0.4612E+00
      4.578  0.1511E-01  0.4635E+00
      4.732  0.2955E-01  0.4680E+00
      4.886  0.2769E-01  0.4723E+00
      5.039  0.2673E-01  0.4764E+00
      5.193  0.1940E-01  0.4794E+00
      5.346  0.3157E-01  0.4842E+00
      5.500  0.3192E-01  0.4891E+00
      5.653  0.2404E-01  0.4928E+00
      5.807  0.4510E-01  0.4997E+00
      5.960  0.5809E-01  0.5087E+00
      6.114  0.5416E-01  0.5170E+00
      6.268  0.4836E-01  0.5244E+00
      6.421  0.3014E-01  0.5290E+00
      6.575  0.3412E-01  0.5343E+00
      6.728  0.3327E-01  0.5394E+00
      6.882  0.3618E-01  0.5449E+00
      7.035  0.3203E-01  0.5499E+00
      7.189  0.3287E-01  0.5549E+00
      7.343  0.3248E-01  0.5599E+00
      7.496  0.4793E-01  0.5673E+00
      7.650  0.2733E-01  0.5714E+00
      7.803  0.4483E-01  0.5783E+00
      7.957  0.5432E-01  0.5867E+00
      8.110  0.6841E-01  0.5972E+00
      8.264  0.6620E-01  0.6073E+00
      8.417  0.6148E-01  0.6168E+00
      8.571  0.5209E-01  0.6248E+00
      8.725  0.4665E-01  0.6319E+00
      8.878  0.4383E-01  0.6387E+00
      9.032  0.5635E-01  0.6473E+00
      9.185  0.5809E-01  0.6563E+00
      9.339  0.3966E-01  0.6623E+00
      9.492  0.1473E-01  0.6646E+00
      9.646  0.7778E-02  0.6658E+00
      9.800  0.2875E-02  0.6662E+00
      9.953  0.2378E-02  0.6666E+00
     10.107  0.3970E-03  0.6667E+00
     10.260 -0.8547E-05  0.6667E+00
     10.414  0.6635E-06  0.6667E+00
     10.567  0.1794E-09  0.6667E+00
     10.721  0.1984E-15  0.6667E+00
     10.874  0.0000E+00  0.6667E+00
     11.028  0.0000E+00  0.6667E+00
     11.182  0.0000E+00  0.6667E+00
     11.335  0.0000E+00  0.6667E+00
     11.489  0.0000E+00  0.6667E+00
     11.642  0.0000E+00  0.6667E+00
     11.796  0.0000E+00  0.6667E+00
     11.949  0.0000E+00  0.6667E+00
     12.103  0.0000E+00  0.6667E+00
