Automatically generated mesh
      99
Reciprocal lattice
    0.00000000000000    0.00000000000000    0.00000000000000             1
    0.14285714285714    0.00000000000000    0.00000000000000             2
    0.28571428571429    0.00000000000000    0.00000000000000             2
    0.42857142857143    0.00000000000000    0.00000000000000             2
    0.00000000000000    0.25000000000000    0.00000000000000             2
    0.14285714285714    0.25000000000000    0.00000000000000             2
    0.28571428571429    0.25000000000000    0.00000000000000             2
    0.42857142857143    0.25000000000000    0.00000000000000             2
   -0.42857142857143    0.25000000000000    0.00000000000000             2
   -0.28571428571429    0.25000000000000    0.00000000000000             2
   -0.14285714285714    0.25000000000000    0.00000000000000             2
    0.00000000000000    0.50000000000000    0.00000000000000             1
    0.14285714285714    0.50000000000000    0.00000000000000             2
    0.28571428571429    0.50000000000000    0.00000000000000             2
    0.42857142857143    0.50000000000000    0.00000000000000             2
    0.00000000000000    0.00000000000000    0.14285714285714             2
    0.14285714285714    0.00000000000000    0.14285714285714             2
    0.28571428571429    0.00000000000000    0.14285714285714             2
    0.42857142857143    0.00000000000000    0.14285714285714             2
   -0.42857142857143    0.00000000000000    0.14285714285714             2
   -0.28571428571429    0.00000000000000    0.14285714285714             2
   -0.14285714285714    0.00000000000000    0.14285714285714             2
    0.00000000000000    0.25000000000000    0.14285714285714             2
    0.14285714285714    0.25000000000000    0.14285714285714             2
    0.28571428571429    0.25000000000000    0.14285714285714             2
    0.42857142857143    0.25000000000000    0.14285714285714             2
   -0.42857142857143    0.25000000000000    0.14285714285714             2
   -0.28571428571429    0.25000000000000    0.14285714285714             2
   -0.14285714285714    0.25000000000000    0.14285714285714             2
    0.00000000000000    0.50000000000000    0.14285714285714             2
    0.14285714285714    0.50000000000000    0.14285714285714             2
    0.28571428571429    0.50000000000000    0.14285714285714             2
    0.42857142857143    0.50000000000000    0.14285714285714             2
   -0.42857142857143    0.50000000000000    0.14285714285714             2
   -0.28571428571429    0.50000000000000    0.14285714285714             2
   -0.14285714285714    0.50000000000000    0.14285714285714             2
    0.00000000000000   -0.25000000000000    0.14285714285714             2
    0.14285714285714   -0.25000000000000    0.14285714285714             2
    0.28571428571429   -0.25000000000000    0.14285714285714             2
    0.42857142857143   -0.25000000000000    0.14285714285714             2
   -0.42857142857143   -0.25000000000000    0.14285714285714             2
   -0.28571428571429   -0.25000000000000    0.14285714285714             2
   -0.14285714285714   -0.25000000000000    0.14285714285714             2
    0.00000000000000    0.00000000000000    0.28571428571429             2
    0.14285714285714    0.00000000000000    0.28571428571429             2
    0.28571428571429    0.00000000000000    0.28571428571429             2
    0.42857142857143    0.00000000000000    0.28571428571429             2
   -0.42857142857143    0.00000000000000    0.28571428571429             2
   -0.28571428571429    0.00000000000000    0.28571428571429             2
   -0.14285714285714    0.00000000000000    0.28571428571429             2
    0.00000000000000    0.25000000000000    0.28571428571429             2
    0.14285714285714    0.25000000000000    0.28571428571429             2
    0.28571428571429    0.25000000000000    0.28571428571429             2
    0.42857142857143    0.25000000000000    0.28571428571429             2
   -0.42857142857143    0.25000000000000    0.28571428571429             2
   -0.28571428571429    0.25000000000000    0.28571428571429             2
   -0.14285714285714    0.25000000000000    0.28571428571429             2
    0.00000000000000    0.50000000000000    0.28571428571429             2
    0.14285714285714    0.50000000000000    0.28571428571429             2
    0.28571428571429    0.50000000000000    0.28571428571429             2
    0.42857142857143    0.50000000000000    0.28571428571429             2
   -0.42857142857143    0.50000000000000    0.28571428571429             2
   -0.28571428571429    0.50000000000000    0.28571428571429             2
   -0.14285714285714    0.50000000000000    0.28571428571429             2
    0.00000000000000   -0.25000000000000    0.28571428571429             2
    0.14285714285714   -0.25000000000000    0.28571428571429             2
    0.28571428571429   -0.25000000000000    0.28571428571429             2
    0.42857142857143   -0.25000000000000    0.28571428571429             2
   -0.42857142857143   -0.25000000000000    0.28571428571429             2
   -0.28571428571429   -0.25000000000000    0.28571428571429             2
   -0.14285714285714   -0.25000000000000    0.28571428571429             2
    0.00000000000000    0.00000000000000    0.42857142857143             2
    0.14285714285714    0.00000000000000    0.42857142857143             2
    0.28571428571429    0.00000000000000    0.42857142857143             2
    0.42857142857143    0.00000000000000    0.42857142857143             2
   -0.42857142857143    0.00000000000000    0.42857142857143             2
   -0.28571428571429    0.00000000000000    0.42857142857143             2
   -0.14285714285714    0.00000000000000    0.42857142857143             2
    0.00000000000000    0.25000000000000    0.42857142857143             2
    0.14285714285714    0.25000000000000    0.42857142857143             2
    0.28571428571429    0.25000000000000    0.42857142857143             2
    0.42857142857143    0.25000000000000    0.42857142857143             2
   -0.42857142857143    0.25000000000000    0.42857142857143             2
   -0.28571428571429    0.25000000000000    0.42857142857143             2
   -0.14285714285714    0.25000000000000    0.42857142857143             2
    0.00000000000000    0.50000000000000    0.42857142857143             2
    0.14285714285714    0.50000000000000    0.42857142857143             2
    0.28571428571429    0.50000000000000    0.42857142857143             2
    0.42857142857143    0.50000000000000    0.42857142857143             2
   -0.42857142857143    0.50000000000000    0.42857142857143             2
   -0.28571428571429    0.50000000000000    0.42857142857143             2
   -0.14285714285714    0.50000000000000    0.42857142857143             2
    0.00000000000000   -0.25000000000000    0.42857142857143             2
    0.14285714285714   -0.25000000000000    0.42857142857143             2
    0.28571428571429   -0.25000000000000    0.42857142857143             2
    0.42857142857143   -0.25000000000000    0.42857142857143             2
   -0.42857142857143   -0.25000000000000    0.42857142857143             2
   -0.28571428571429   -0.25000000000000    0.42857142857143             2
   -0.14285714285714   -0.25000000000000    0.42857142857143             2
Tetrahedra
       586    0.00085034013605
         2         1         5         6        24
         2         1         2         6        24
         2         1         2        17        24
         2         1         5        23        24
         2         1        16        23        24
         2         1        16        17        24
         2         2         6         7        25
         2         2         3         7        25
         2         2         3        18        25
         2         2         6        24        25
         2         2        17        24        25
         2         2        17        18        25
         2         3         7         8        26
         2         3         4         8        26
         2         3         4        19        26
         2         3         7        25        26
         2         3        18        25        26
         2         3        18        19        26
         2         4         8         9        27
         2         4         4         9        27
         2         4         4        20        27
         2         4         8        26        27
         2         4        19        26        27
         2         4        19        20        27
         2         4         9        10        28
         2         3         4        10        28
         2         3         4        21        28
         2         4         9        27        28
         2         4        20        27        28
         2         4        20        21        28
         2         3        10        11        29
         2         2         3        11        29
         2         2         3        22        29
         2         3        10        28        29
         2         3        21        28        29
         2         3        21        22        29
         2         2         5        11        23
         2         1         2         5        23
         2         1         2        16        23
         2         2        11        23        29
         2         2        22        23        29
         2         2        16        22        23
         2         5        12        13        31
         2         5         6        13        31
         2         5         6        24        31
         2         5        12        30        31
         2         5        23        30        31
         2         5        23        24        31
         2         6        13        14        32
         2         6         7        14        32
         2         6         7        25        32
         2         6        13        31        32
         2         6        24        31        32
         2         6        24        25        32
         2         7        14        15        33
         2         7         8        15        33
         2         7         8        26        33
         2         7        14        32        33
         2         7        25        32        33
         2         7        25        26        33
         2         8        15        15        34
         2         8         9        15        34
         2         8         9        27        34
         2         8        15        33        34
         2         8        26        33        34
         2         8        26        27        34
         2         9        14        15        35
         2         9        10        14        35
         2         9        10        28        35
         2         9        15        34        35
         2         9        27        34        35
         2         9        27        28        35
         2        10        13        14        36
         2        10        11        13        36
         2        10        11        29        36
         2        10        14        35        36
         2        10        28        35        36
         2        10        28        29        36
         2        11        12        13        30
         2         5        11        12        30
         2         5        11        23        30
         2        11        13        30        36
         2        11        29        30        36
         2        11        23        29        30
         2         5        11        12        38
         2        11        12        13        38
         2        12        13        31        38
         2         5        12        37        38
         2        12        30        37        38
         2        12        30        31        38
         2        10        11        13        39
         2        10        13        14        39
         2        13        14        32        39
         2        11        13        38        39
         2        13        31        38        39
         2        13        31        32        39
         2         9        10        14        40
         2         9        14        15        40
         2        14        15        33        40
         2        10        14        39        40
         2        14        32        39        40
         2        14        32        33        40
         2         8         9        15        41
         2         8        15        15        41
         2        15        15        34        41
         2         9        15        40        41
         2        15        33        40        41
         2        15        33        34        41
         2         7         8        15        42
         2         7        14        15        42
         2        14        15        35        42
         2         8        15        41        42
         2        15        34        41        42
         2        15        34        35        42
         2         6         7        14        43
         2         6        13        14        43
         2        13        14        36        43
         2         7        14        42        43
         2        14        35        42        43
         2        14        35        36        43
         2         5         6        13        37
         2         5        12        13        37
         2        12        13        30        37
         2         6        13        37        43
         2        13        36        37        43
         2        13        30        36        37
         2         1         2         5        17
         2         2         5        11        17
         2         5        11        17        38
         2         1         5        16        17
         2         5        16        17        37
         2         5        17        37        38
         2         2         3        11        18
         2         3        10        11        18
         2        10        11        18        39
         2         2        11        17        18
         2        11        17        18        38
         2        11        18        38        39
         2         3         4        10        19
         2         4         9        10        19
         2         9        10        19        40
         2         3        10        18        19
         2        10        18        19        39
         2        10        19        39        40
         2         4         4         9        20
         2         4         8         9        20
         2         8         9        20        41
         2         4         9        19        20
         2         9        19        20        40
         2         9        20        40        41
         2         3         4         8        21
         2         3         7         8        21
         2         7         8        21        42
         2         4         8        20        21
         2         8        20        21        41
         2         8        21        41        42
         2         2         3         7        22
         2         2         6         7        22
         2         6         7        22        43
         2         3         7        21        22
         2         7        21        22        42
         2         7        22        42        43
         2         1         2         6        16
         2         1         5         6        16
         2         5         6        16        37
         2         2         6        16        22
         2         6        16        22        43
         2         6        16        37        43
         2        16        23        24        52
         2        16        17        24        52
         2        16        17        45        52
         2        16        23        51        52
         2        16        44        51        52
         2        16        44        45        52
         2        17        24        25        53
         2        17        18        25        53
         2        17        18        46        53
         2        17        24        52        53
         2        17        45        52        53
         2        17        45        46        53
         2        18        25        26        54
         2        18        19        26        54
         2        18        19        47        54
         2        18        25        53        54
         2        18        46        53        54
         2        18        46        47        54
         2        19        26        27        55
         2        19        20        27        55
         2        19        20        48        55
         2        19        26        54        55
         2        19        47        54        55
         2        19        47        48        55
         2        20        27        28        56
         2        20        21        28        56
         2        20        21        49        56
         2        20        27        55        56
         2        20        48        55        56
         2        20        48        49        56
         2        21        28        29        57
         2        21        22        29        57
         2        21        22        50        57
         2        21        28        56        57
         2        21        49        56        57
         2        21        49        50        57
         2        22        23        29        51
         2        16        22        23        51
         2        16        22        44        51
         2        22        29        51        57
         2        22        50        51        57
         2        22        44        50        51
         2        23        30        31        59
         2        23        24        31        59
         2        23        24        52        59
         2        23        30        58        59
         2        23        51        58        59
         2        23        51        52        59
         2        24        31        32        60
         2        24        25        32        60
         2        24        25        53        60
         2        24        31        59        60
         2        24        52        59        60
         2        24        52        53        60
         2        25        32        33        61
         2        25        26        33        61
         2        25        26        54        61
         2        25        32        60        61
         2        25        53        60        61
         2        25        53        54        61
         2        26        33        34        62
         2        26        27        34        62
         2        26        27        55        62
         2        26        33        61        62
         2        26        54        61        62
         2        26        54        55        62
         2        27        34        35        63
         2        27        28        35        63
         2        27        28        56        63
         2        27        34        62        63
         2        27        55        62        63
         2        27        55        56        63
         2        28        35        36        64
         2        28        29        36        64
         2        28        29        57        64
         2        28        35        63        64
         2        28        56        63        64
         2        28        56        57        64
         2        29        30        36        58
         2        23        29        30        58
         2        23        29        51        58
         2        29        36        58        64
         2        29        57        58        64
         2        29        51        57        58
         2        30        37        38        66
         2        30        31        38        66
         2        30        31        59        66
         2        30        37        65        66
         2        30        58        65        66
         2        30        58        59        66
         2        31        38        39        67
         2        31        32        39        67
         2        31        32        60        67
         2        31        38        66        67
         2        31        59        66        67
         2        31        59        60        67
         2        32        39        40        68
         2        32        33        40        68
         2        32        33        61        68
         2        32        39        67        68
         2        32        60        67        68
         2        32        60        61        68
         2        33        40        41        69
         2        33        34        41        69
         2        33        34        62        69
         2        33        40        68        69
         2        33        61        68        69
         2        33        61        62        69
         2        34        41        42        70
         2        34        35        42        70
         2        34        35        63        70
         2        34        41        69        70
         2        34        62        69        70
         2        34        62        63        70
         2        35        42        43        71
         2        35        36        43        71
         2        35        36        64        71
         2        35        42        70        71
         2        35        63        70        71
         2        35        63        64        71
         2        36        37        43        65
         2        30        36        37        65
         2        30        36        58        65
         2        36        43        65        71
         2        36        64        65        71
         2        36        58        64        65
         2        16        17        37        45
         2        17        37        38        45
         2        37        38        45        66
         2        16        37        44        45
         2        37        44        45        65
         2        37        45        65        66
         2        17        18        38        46
         2        18        38        39        46
         2        38        39        46        67
         2        17        38        45        46
         2        38        45        46        66
         2        38        46        66        67
         2        18        19        39        47
         2        19        39        40        47
         2        39        40        47        68
         2        18        39        46        47
         2        39        46        47        67
         2        39        47        67        68
         2        19        20        40        48
         2        20        40        41        48
         2        40        41        48        69
         2        19        40        47        48
         2        40        47        48        68
         2        40        48        68        69
         2        20        21        41        49
         2        21        41        42        49
         2        41        42        49        70
         2        20        41        48        49
         2        41        48        49        69
         2        41        49        69        70
         2        21        22        42        50
         2        22        42        43        50
         2        42        43        50        71
         2        21        42        49        50
         2        42        49        50        70
         2        42        50        70        71
         2        16        22        43        44
         2        16        37        43        44
         2        37        43        44        65
         2        22        43        44        50
         2        43        44        50        71
         2        43        44        65        71
         2        44        51        52        80
         2        44        45        52        80
         2        44        45        73        80
         2        44        51        79        80
         2        44        72        79        80
         2        44        72        73        80
         2        45        52        53        81
         2        45        46        53        81
         2        45        46        74        81
         2        45        52        80        81
         2        45        73        80        81
         2        45        73        74        81
         2        46        53        54        82
         2        46        47        54        82
         2        46        47        75        82
         2        46        53        81        82
         2        46        74        81        82
         2        46        74        75        82
         2        47        54        55        83
         2        47        48        55        83
         2        47        48        76        83
         2        47        54        82        83
         2        47        75        82        83
         2        47        75        76        83
         2        48        55        56        84
         2        48        49        56        84
         2        48        49        77        84
         2        48        55        83        84
         2        48        76        83        84
         2        48        76        77        84
         2        49        56        57        85
         2        49        50        57        85
         2        49        50        78        85
         2        49        56        84        85
         2        49        77        84        85
         2        49        77        78        85
         2        50        51        57        79
         2        44        50        51        79
         2        44        50        72        79
         2        50        57        79        85
         2        50        78        79        85
         2        50        72        78        79
         2        51        58        59        87
         2        51        52        59        87
         2        51        52        80        87
         2        51        58        86        87
         2        51        79        86        87
         2        51        79        80        87
         2        52        59        60        88
         2        52        53        60        88
         2        52        53        81        88
         2        52        59        87        88
         2        52        80        87        88
         2        52        80        81        88
         2        53        60        61        89
         2        53        54        61        89
         2        53        54        82        89
         2        53        60        88        89
         2        53        81        88        89
         2        53        81        82        89
         2        54        61        62        90
         2        54        55        62        90
         2        54        55        83        90
         2        54        61        89        90
         2        54        82        89        90
         2        54        82        83        90
         2        55        62        63        91
         2        55        56        63        91
         2        55        56        84        91
         2        55        62        90        91
         2        55        83        90        91
         2        55        83        84        91
         2        56        63        64        92
         2        56        57        64        92
         2        56        57        85        92
         2        56        63        91        92
         2        56        84        91        92
         2        56        84        85        92
         2        57        58        64        86
         2        51        57        58        86
         2        51        57        79        86
         2        57        64        86        92
         2        57        85        86        92
         2        57        79        85        86
         2        58        65        66        94
         2        58        59        66        94
         2        58        59        87        94
         2        58        65        93        94
         2        58        86        93        94
         2        58        86        87        94
         2        59        66        67        95
         2        59        60        67        95
         2        59        60        88        95
         2        59        66        94        95
         2        59        87        94        95
         2        59        87        88        95
         2        60        67        68        96
         2        60        61        68        96
         2        60        61        89        96
         2        60        67        95        96
         2        60        88        95        96
         2        60        88        89        96
         2        61        68        69        97
         2        61        62        69        97