  22  22   0   0
  0.1170547E+02  0.5742546E-09  0.6617412E-09  0.7660471E-09  0.5000000E-15
  1.000000000000000E-004
  CAR 
 unknown system                          
      8.89334811    -34.97354995  301      3.14627829      1.00000000
    -34.974  0.0000E+00  0.0000E+00
    -34.827  0.0000E+00  0.0000E+00
    -34.681  0.0000E+00  0.0000E+00
    -34.535  0.0000E+00  0.0000E+00
    -34.389  0.0000E+00  0.0000E+00
    -34.242  0.0000E+00  0.0000E+00
    -34.096  0.0000E+00  0.0000E+00
    -33.950  0.0000E+00  0.0000E+00
    -33.804  0.3477E-28  0.5085E-29
    -33.658  0.7126E-19  0.1042E-19
    -33.511  0.1743E-11  0.2548E-12
    -33.365  0.4512E-06  0.6597E-07
    -33.219  0.7919E-03  0.1159E-03
    -33.073 -0.1738E-01 -0.2425E-02
    -32.926  0.3712E+00  0.5185E-01
    -32.780  0.5694E+00  0.1351E+00
    -32.634  0.2252E+00  0.1680E+00
    -32.488 -0.1011E-01  0.1666E+00
    -32.342  0.6949E-03  0.1667E+00
    -32.195  0.6131E-06  0.1667E+00
    -32.049  0.3018E-11  0.1667E+00
    -31.903  0.0000E+00  0.1667E+00
    -31.757  0.0000E+00  0.1667E+00
    -31.610  0.0000E+00  0.1667E+00
    -31.464  0.0000E+00  0.1667E+00
    -31.318  0.0000E+00  0.1667E+00
    -31.172  0.0000E+00  0.1667E+00
    -31.026  0.0000E+00  0.1667E+00
    -30.879  0.0000E+00  0.1667E+00
    -30.733  0.0000E+00  0.1667E+00
    -30.587  0.0000E+00  0.1667E+00
    -30.441  0.0000E+00  0.1667E+00
    -30.294  0.0000E+00  0.1667E+00
    -30.148  0.0000E+00  0.1667E+00
    -30.002  0.0000E+00  0.1667E+00
    -29.856  0.1066E-32  0.1667E+00
    -29.710  0.1396E-22  0.1667E+00
    -29.563  0.2223E-14  0.1667E+00
    -29.417  0.3972E-08  0.1667E+00
    -29.271  0.6357E-04  0.1667E+00
    -29.125  0.6187E-03  0.1668E+00
    -28.978  0.8530E-01  0.1792E+00
    -28.832  0.6188E+00  0.2697E+00
    -28.686 -0.2273E-01  0.2664E+00
    -28.540  0.1859E-02  0.2667E+00
    -28.394  0.3051E-05  0.2667E+00
    -28.247  0.2710E-10  0.2667E+00
    -28.101  0.0000E+00  0.2667E+00
    -27.955  0.0000E+00  0.2667E+00
    -27.809  0.0000E+00  0.2667E+00
    -27.662  0.0000E+00  0.2667E+00
    -27.516  0.0000E+00  0.2667E+00
    -27.370  0.0000E+00  0.2667E+00
    -27.224  0.0000E+00  0.2667E+00
    -27.078  0.0000E+00  0.2667E+00
    -26.931  0.0000E+00  0.2667E+00
    -26.785  0.0000E+00  0.2667E+00
    -26.639  0.0000E+00  0.2667E+00
    -26.493  0.0000E+00  0.2667E+00
    -26.346  0.0000E+00  0.2667E+00
    -26.200  0.0000E+00  0.2667E+00
    -26.054  0.0000E+00  0.2667E+00
    -25.908  0.0000E+00  0.2667E+00
    -25.762  0.0000E+00  0.2667E+00
    -25.615  0.0000E+00  0.2667E+00
    -25.469  0.0000E+00  0.2667E+00
    -25.323  0.0000E+00  0.2667E+00
    -25.177  0.0000E+00  0.2667E+00
    -25.030  0.0000E+00  0.2667E+00
    -24.884  0.0000E+00  0.2667E+00
    -24.738  0.0000E+00  0.2667E+00
    -24.592  0.0000E+00  0.2667E+00
    -24.445  0.0000E+00  0.2667E+00
    -24.299  0.0000E+00  0.2667E+00
    -24.153  0.0000E+00  0.2667E+00
    -24.007  0.0000E+00  0.2667E+00
    -23.861  0.0000E+00  0.2667E+00
    -23.714  0.0000E+00  0.2667E+00
    -23.568  0.0000E+00  0.2667E+00
    -23.422  0.0000E+00  0.2667E+00
    -23.276  0.0000E+00  0.2667E+00
    -23.129  0.0000E+00  0.2667E+00
    -22.983  0.0000E+00  0.2667E+00
    -22.837  0.0000E+00  0.2667E+00
    -22.691  0.0000E+00  0.2667E+00
    -22.545  0.0000E+00  0.2667E+00
    -22.398  0.0000E+00  0.2667E+00
    -22.252  0.0000E+00  0.2667E+00
    -22.106  0.0000E+00  0.2667E+00
    -21.960  0.0000E+00  0.2667E+00
    -21.813  0.0000E+00  0.2667E+00
    -21.667  0.0000E+00  0.2667E+00
    -21.521  0.0000E+00  0.2667E+00
    -21.375  0.0000E+00  0.2667E+00
    -21.229  0.0000E+00  0.2667E+00
    -21.082  0.0000E+00  0.2667E+00
    -20.936  0.0000E+00  0.2667E+00
    -20.790  0.0000E+00  0.2667E+00
    -20.644  0.0000E+00  0.2667E+00
    -20.497  0.0000E+00  0.2667E+00
    -20.351  0.0000E+00  0.2667E+00
    -20.205  0.0000E+00  0.2667E+00
    -20.059  0.0000E+00  0.2667E+00
    -19.913  0.0000E+00  0.2667E+00
    -19.766  0.0000E+00  0.2667E+00
    -19.620  0.0000E+00  0.2667E+00
    -19.474  0.0000E+00  0.2667E+00
    -19.328  0.0000E+00  0.2667E+00
    -19.181  0.0000E+00  0.2667E+00
    -19.035  0.0000E+00  0.2667E+00
    -18.889  0.0000E+00  0.2667E+00
    -18.743  0.0000E+00  0.2667E+00
    -18.597  0.0000E+00  0.2667E+00
    -18.450  0.0000E+00  0.2667E+00
    -18.304  0.0000E+00  0.2667E+00
    -18.158  0.0000E+00  0.2667E+00
    -18.012  0.0000E+00  0.2667E+00
    -17.865  0.0000E+00  0.2667E+00
    -17.719  0.0000E+00  0.2667E+00
    -17.573  0.0000E+00  0.2667E+00
    -17.427  0.0000E+00  0.2667E+00
    -17.281  0.0000E+00  0.2667E+00
    -17.134  0.0000E+00  0.2667E+00
    -16.988  0.0000E+00  0.2667E+00
    -16.842  0.0000E+00  0.2667E+00
    -16.696  0.0000E+00  0.2667E+00
    -16.549  0.0000E+00  0.2667E+00
    -16.403  0.0000E+00  0.2667E+00
    -16.257  0.1166E-31  0.2667E+00
    -16.111  0.5579E-22  0.2667E+00
    -15.965  0.3551E-14  0.2667E+00
    -15.818  0.2882E-08  0.2667E+00
    -15.672  0.2564E-04  0.2667E+00
    -15.526  0.1912E-03  0.2667E+00
    -15.380  0.2796E-01  0.2708E+00
    -15.233  0.3232E+00  0.3181E+00
    -15.087  0.7923E+00  0.4339E+00
    -14.941  0.6426E+00  0.5279E+00
    -14.795  0.1007E+01  0.6751E+00
    -14.649  0.6199E+00  0.7657E+00
    -14.502  0.4756E-02  0.7664E+00
    -14.356  0.1592E-02  0.7667E+00
    -14.210  0.1153E-04  0.7667E+00
    -14.064  0.3286E-09  0.7667E+00
    -13.917  0.9554E-16  0.7667E+00
    -13.771  0.0000E+00  0.7667E+00
    -13.625  0.0000E+00  0.7667E+00
    -13.479  0.0000E+00  0.7667E+00
    -13.333  0.0000E+00  0.7667E+00
    -13.186  0.0000E+00  0.7667E+00
    -13.040  0.0000E+00  0.7667E+00
    -12.894  0.0000E+00  0.7667E+00
    -12.748  0.0000E+00  0.7667E+00
    -12.601  0.0000E+00  0.7667E+00
    -12.455  0.0000E+00  0.7667E+00
    -12.309  0.0000E+00  0.7667E+00
    -12.163  0.0000E+00  0.7667E+00
    -12.017  0.0000E+00  0.7667E+00
    -11.870  0.0000E+00  0.7667E+00
    -11.724  0.0000E+00  0.7667E+00
    -11.578  0.0000E+00  0.7667E+00
    -11.432  0.0000E+00  0.7667E+00
    -11.285  0.0000E+00  0.7667E+00
    -11.139  0.0000E+00  0.7667E+00
    -10.993  0.0000E+00  0.7667E+00
    -10.847  0.0000E+00  0.7667E+00
    -10.701  0.0000E+00  0.7667E+00
    -10.554  0.0000E+00  0.7667E+00
    -10.408  0.0000E+00  0.7667E+00
    -10.262  0.0000E+00  0.7667E+00
    -10.116  0.0000E+00  0.7667E+00
     -9.969  0.0000E+00  0.7667E+00
     -9.823  0.0000E+00  0.7667E+00
     -9.677  0.0000E+00  0.7667E+00
     -9.531  0.0000E+00  0.7667E+00
     -9.385  0.0000E+00  0.7667E+00
     -9.238  0.0000E+00  0.7667E+00
     -9.092  0.0000E+00  0.7667E+00
     -8.946  0.0000E+00  0.7667E+00
     -8.800  0.0000E+00  0.7667E+00
     -8.653  0.0000E+00  0.7667E+00
     -8.507  0.0000E+00  0.7667E+00
     -8.361  0.0000E+00  0.7667E+00
     -8.215  0.0000E+00  0.7667E+00
     -8.069  0.0000E+00  0.7667E+00
     -7.922  0.0000E+00  0.7667E+00
     -7.776  0.0000E+00  0.7667E+00
     -7.630  0.0000E+00  0.7667E+00
     -7.484  0.0000E+00  0.7667E+00
     -7.337  0.8224E-34  0.7667E+00
     -7.191  0.6535E-24  0.7667E+00
     -7.045  0.6630E-16  0.7667E+00
     -6.899  0.8535E-10  0.7667E+00
     -6.753  0.1324E-05  0.7667E+00
     -6.606  0.1234E-03  0.7667E+00
     -6.460  0.3982E-03  0.7667E+00
     -6.314  0.7256E-01  0.7774E+00
     -6.168  0.1606E+00  0.8008E+00
     -6.021 -0.6142E-02  0.7999E+00
     -5.875  0.4222E-03  0.8000E+00
     -5.729  0.6301E-06  0.8000E+00
     -5.583  0.6093E-11  0.8000E+00
     -5.437  0.3586E-16  0.8000E+00
     -5.290  0.5687E-10  0.8000E+00
     -5.144  0.1027E-05  0.8000E+00
     -4.998  0.8093E-04  0.8000E+00
     -4.852  0.7367E-03  0.8001E+00
     -4.705  0.3413E-01  0.8051E+00
     -4.559  0.5531E-01  0.8132E+00
     -4.413  0.6733E-01  0.8230E+00
     -4.267  0.6076E-01  0.8319E+00
     -4.120  0.9841E-02  0.8334E+00
     -3.974 -0.2312E-03  0.8333E+00
     -3.828  0.1154E-04  0.8333E+00
     -3.682  0.1775E-08  0.8333E+00
     -3.536  0.9485E-12  0.8333E+00
     -3.389  0.4259E-07  0.8333E+00
     -3.243  0.1012E-04  0.8333E+00
     -3.097  0.9598E-05  0.8333E+00
     -2.951  0.4046E-02  0.8339E+00
     -2.804  0.4148E-01  0.8400E+00
     -2.658  0.9967E-01  0.8546E+00
     -2.512  0.6293E-01  0.8638E+00
     -2.366  0.6746E-01  0.8736E+00
     -2.220  0.1088E+00  0.8895E+00
     -2.073  0.1707E+00  0.9145E+00
     -1.927  0.1600E+00  0.9379E+00
     -1.781  0.1493E+00  0.9597E+00
     -1.635  0.1906E+00  0.9876E+00
     -1.488  0.2309E+00  0.1021E+01
     -1.342  0.2392E+00  0.1056E+01
     -1.196  0.1209E+00  0.1074E+01
     -1.050  0.1145E+00  0.1091E+01
     -0.904  0.1387E+00  0.1111E+01
     -0.757  0.1494E+00  0.1133E+01
     -0.611  0.2207E+00  0.1165E+01
     -0.465  0.1881E+00  0.1193E+01
     -0.319  0.1007E+00  0.1207E+01
     -0.172  0.9630E-01  0.1221E+01
     -0.026  0.8006E-01  0.1233E+01
      0.120  0.1439E-02  0.1233E+01
      0.266  0.1129E+00  0.1250E+01
      0.412  0.9524E-01  0.1264E+01
      0.559  0.1956E-01  0.1267E+01
      0.705 -0.1542E-03  0.1267E+01
      0.851  0.4733E-04  0.1267E+01
      0.997  0.2226E-06  0.1267E+01
      1.144  0.7850E-11  0.1267E+01
      1.290  0.2983E-17  0.1267E+01
      1.436  0.0000E+00  0.1267E+01
      1.582  0.0000E+00  0.1267E+01
      1.728  0.3461E-29  0.1267E+01
      1.875  0.4290E-20  0.1267E+01
      2.021  0.6212E-13  0.1267E+01
      2.167  0.9051E-08  0.1267E+01
      2.313  0.8162E-05  0.1267E+01
      2.460 -0.6585E-04  0.1267E+01
      2.606  0.4160E-02  0.1267E+01
      2.752  0.1938E-01  0.1270E+01
      2.898  0.2312E-01  0.1273E+01
      3.044  0.3617E-01  0.1279E+01
      3.191  0.5146E-01  0.1286E+01
      3.337  0.6435E-01  0.1296E+01
      3.483  0.1298E+00  0.1315E+01
      3.629  0.1150E+00  0.1331E+01
      3.776  0.9447E-01  0.1345E+01
      3.922  0.1192E+00  0.1363E+01
      4.068  0.9331E-01  0.1376E+01
      4.214  0.1367E+00  0.1396E+01
      4.360  0.1310E+00  0.1416E+01
      4.507  0.1178E+00  0.1433E+01
      4.653  0.9177E-01  0.1446E+01
      4.799  0.1097E+00  0.1462E+01
      4.945  0.1015E+00  0.1477E+01
      5.092  0.1165E+00  0.1494E+01
      5.238  0.1012E+00  0.1509E+01
      5.384  0.1571E+00  0.1532E+01
      5.530  0.1305E+00  0.1551E+01
      5.676  0.1477E+00  0.1573E+01
      5.823  0.1676E+00  0.1597E+01
      5.969  0.1662E+00  0.1621E+01
      6.115  0.1421E+00  0.1642E+01
      6.261  0.1594E+00  0.1665E+01
      6.408  0.1348E+00  0.1685E+01
      6.554  0.1473E+00  0.1707E+01
      6.700  0.1268E+00  0.1725E+01
      6.846  0.4970E-01  0.1732E+01
      6.992  0.6036E-02  0.1733E+01
      7.139 -0.1493E-03  0.1733E+01
      7.285  0.1125E-04  0.1733E+01
      7.431  0.5994E-08  0.1733E+01
      7.577  0.2368E-13  0.1733E+01
      7.724  0.0000E+00  0.1733E+01
      7.870  0.0000E+00  0.1733E+01
      8.016  0.0000E+00  0.1733E+01
      8.162  0.0000E+00  0.1733E+01
      8.308  0.0000E+00  0.1733E+01
      8.455  0.0000E+00  0.1733E+01
      8.601  0.0000E+00  0.1733E+01
      8.747  0.0000E+00  0.1733E+01
      8.893  0.0000E+00  0.1733E+01
