   11   11   99    2
  0.9986082E+01  0.3745659E-09  0.5369023E-09  0.6269508E-09  0.5000000E-15
  1.000000000000000E-004
  CAR 
 unknown system                          
     39     58     32
 
  0.3742002E-15  0.3742002E-15  0.3742002E-15  0.8928571E-02
    1      -32.539257    -32.539261   1.000000   1.000000
    2      -32.420205    -32.420207   1.000000   1.000000
    3      -28.736702    -28.736727   1.000000   1.000000
    4      -28.680744    -28.680777   1.000000   1.000000
    5      -28.609340    -28.609369   1.000000   1.000000
    6      -14.866622    -14.866625   1.000000   1.000000
    7      -14.699400    -14.699402   1.000000   1.000000
    8      -14.473899    -14.473900   1.000000   1.000000
    9      -14.466345    -14.466346   1.000000   1.000000
   10      -14.390132    -14.390133   1.000000   1.000000
   11      -14.375625    -14.375627   1.000000   1.000000
   12       -5.610249     -5.610254   1.000000   1.000000
   13       -2.204407     -2.204415   1.000000   1.000000
   14       -2.181927     -2.181927   1.000000   1.000000
   15       -1.463034     -1.463038   1.000000   1.000000
   16       -1.233158     -1.233165   1.000000   1.000000
   17       -1.103725     -1.103732   1.000000   1.000000
   18        0.738164      0.738155   1.000000   1.000000
   19        1.256384      1.256368   1.000000   1.000000
   20        3.405760      3.405743   0.142829   0.142998
   21        3.914153      3.914136   0.000000   0.000000
   22        4.253303      4.253289   0.000000   0.000000
   23        4.815453      4.815437   0.000000   0.000000
   24        5.503072      5.503056   0.000000   0.000000
   25        6.137807      6.137800   0.000000   0.000000
   26        6.310794      6.310788   0.000000   0.000000
   27        6.938694      6.938689   0.000000   0.000000
   28        7.454301      7.454297   0.000000   0.000000
   29        7.775281      7.775275   0.000000   0.000000
   30        8.287277      8.287274   0.000000   0.000000
   31        8.485516      8.485512   0.000000   0.000000
   32        8.846733      8.846772   0.000000   0.000000
 
  0.1428571E+00  0.3738329E-15  0.3538836E-15  0.1785714E-01
    1      -32.534057    -32.534061   1.000000   1.000000
    2      -32.417572    -32.417574   1.000000   1.000000
    3      -28.741246    -28.741271   1.000000   1.000000
    4      -28.687046    -28.687080   1.000000   1.000000
    5      -28.608304    -28.608334   1.000000   1.000000
    6      -14.849275    -14.849278   1.000000   1.000000
    7      -14.681206    -14.681208   1.000000   1.000000
    8      -14.542722    -14.542724   1.000000   1.000000
    9      -14.474175    -14.474174   1.000000   1.000000
   10      -14.456819    -14.456821   1.000000   1.000000
   11      -14.369322    -14.369324   1.000000   1.000000
   12       -5.347747     -5.347752   1.000000   1.000000
   13       -2.172673     -2.172675   1.000000   1.000000
   14       -2.071448     -2.071454   1.000000   1.000000
   15       -1.551611     -1.551616   1.000000   1.000000
   16       -1.270797     -1.270804   1.000000   1.000000
   17       -1.081446     -1.081453   1.000000   1.000000
   18        0.465993      0.465984   1.000000   1.000000
   19        0.858141      0.858128   1.000000   1.000000
   20        3.600859      3.600845  -0.071835  -0.071851
   21        4.106342      4.106324   0.000000   0.000000
   22        4.370103      4.370086   0.000000   0.000000
   23        4.747624      4.747610   0.000000   0.000000
   24        5.530114      5.530100   0.000000   0.000000
   25        5.895010      5.894997   0.000000   0.000000
   26        6.617668      6.617661   0.000000   0.000000
   27        7.055360      7.055356   0.000000   0.000000
   28        7.412569      7.412564   0.000000   0.000000
   29        7.720371      7.720365   0.000000   0.000000
   30        8.331901      8.331897   0.000000   0.000000
   31        8.616395      8.616393   0.000000   0.000000
   32        9.130010      9.130115   0.000000   0.000000
 
  0.2857143E+00  0.3677614E-15  0.3469447E-15  0.1785714E-01
    1      -32.522233    -32.522237   1.000000   1.000000
    2      -32.411751    -32.411753   1.000000   1.000000
    3      -28.756892    -28.756918   1.000000   1.000000
    4      -28.695800    -28.695833   1.000000   1.000000
    5      -28.605817    -28.605847   1.000000   1.000000
    6      -14.815071    -14.815074   1.000000   1.000000
    7      -14.698012    -14.698014   1.000000   1.000000
    8      -14.636942    -14.636944   1.000000   1.000000
    9      -14.608958    -14.608959   1.000000   1.000000
   10      -14.459724    -14.459724   1.000000   1.000000
   11      -14.371588    -14.371591   1.000000   1.000000
   12       -4.644895     -4.644899   1.000000   1.000000
   13       -2.217197     -2.217199   1.000000   1.000000
   14       -1.917823     -1.917828   1.000000   1.000000
   15       -1.722787     -1.722793   1.000000   1.000000
   16       -1.208407     -1.208413   1.000000   1.000000
   17       -1.074274     -1.074282   1.000000   1.000000
   18       -0.190165     -0.190173   1.000000   1.000000
   19        0.261834      0.261824   1.000000   1.000000
   20        3.596107      3.596097  -0.024545  -0.024545
   21        4.251028      4.251010   0.000000   0.000000
   22        4.607689      4.607675   0.000000   0.000000
   23        4.733305      4.733292   0.000000   0.000000
   24        5.828053      5.828035   0.000000   0.000000
   25        6.068100      6.068088   0.000000   0.000000
   26        6.647170      6.647165   0.000000   0.000000
   27        7.018254      7.018243   0.000000   0.000000
   28        7.638701      7.638689   0.000000   0.000000
   29        8.231587      8.231585   0.000000   0.000000
   30        8.537118      8.537135   0.000000   0.000000
   31        8.942298      8.942187   0.000000   0.000000
   32        9.253927      9.253875   0.000000   0.000000
 
  0.4285714E+00  0.3747003E-15  0.3469447E-15  0.1785714E-01
    1      -32.512600    -32.512604   1.000000   1.000000
    2      -32.407196    -32.407198   1.000000   1.000000
    3      -28.773518    -28.773544   1.000000   1.000000
    4      -28.698702    -28.698734   1.000000   1.000000
    5      -28.603732    -28.603762   1.000000   1.000000
    6      -14.827141    -14.827145   1.000000   1.000000
    7      -14.806756    -14.806757   1.000000   1.000000
    8      -14.684888    -14.684891   1.000000   1.000000
    9      -14.597319    -14.597320   1.000000   1.000000
   10      -14.460576    -14.460575   1.000000   1.000000
   11      -14.377121    -14.377124   1.000000   1.000000
   12       -3.771994     -3.771998   1.000000   1.000000
   13       -2.572164     -2.572167   1.000000   1.000000
   14       -2.002927     -2.002933   1.000000   1.000000
   15       -1.707163     -1.707166   1.000000   1.000000
   16       -1.107075     -1.107086   1.000000   1.000000
   17       -1.038663     -1.038669   1.000000   1.000000
   18       -0.695812     -0.695816   1.000000   1.000000
   19       -0.111957     -0.111967   1.000000   1.000000
   20        3.332140      3.332138   0.690450   0.690481
   21        4.205457      4.205436   0.000000   0.000000
   22        4.725274      4.725254   0.000000   0.000000
   23        4.943746      4.943717   0.000000   0.000000
   24        5.680967      5.680940   0.000000   0.000000
   25        6.272981      6.272957   0.000000   0.000000
   26        7.033891      7.033852   0.000000   0.000000
   27        7.631881      7.631873   0.000000   0.000000
   28        8.025232      8.025195   0.000000   0.000000
   29        8.517848      8.517718   0.000000   0.000000
   30        8.653528      8.653469   0.000000   0.000000
   31        9.304119      9.303637   0.000000   0.000000
   32        9.525765      9.524715   0.000000   0.000000
 
  0.3712308E-15  0.2500000E+00  0.3608225E-15  0.1785714E-01
    1      -32.535804    -32.535808   1.000000   1.000000
    2      -32.423800    -32.423802   1.000000   1.000000
    3      -28.736683    -28.736708   1.000000   1.000000
    4      -28.680692    -28.680725   1.000000   1.000000
    5      -28.609295    -28.609325   1.000000   1.000000
    6      -14.862502    -14.862505   1.000000   1.000000
    7      -14.710149    -14.710150   1.000000   1.000000
    8      -14.487798    -14.487798   1.000000   1.000000
    9      -14.467893    -14.467895   1.000000   1.000000
   10      -14.391440    -14.391441   1.000000   1.000000
   11      -14.372369    -14.372371   1.000000   1.000000
   12       -5.194394     -5.194399   1.000000   1.000000
   13       -2.739613     -2.739618   1.000000   1.000000
   14       -2.132345     -2.132348   1.000000   1.000000
   15       -1.649316     -1.649322   1.000000   1.000000
   16       -1.323154     -1.323159   1.000000   1.000000
   17       -0.835604     -0.835611   1.000000   1.000000
   18        0.780165      0.780153   1.000000   1.000000
   19        0.957011      0.956999   1.000000   1.000000
   20        3.353010      3.352987   0.680218   0.680363
   21        3.676862      3.676850   0.000000   0.000000
   22        4.589842      4.589827   0.000000   0.000000
   23        4.820512      4.820502   0.000000   0.000000
   24        5.572738      5.572718   0.000000   0.000000
   25        6.107016      6.106993   0.000000   0.000000
   26        6.717106      6.717098   0.000000   0.000000
   27        7.022220      7.022203   0.000000   0.000000
   28        7.546576      7.546510   0.000000   0.000000
   29        7.967009      7.966914   0.000000   0.000000
   30        8.243576      8.243434   0.000000   0.000000
   31        8.470575      8.470276   0.000000   0.000000
   32        8.941229      8.943268   0.000000   0.000000
 
  0.1428571E+00  0.2500000E+00  0.3330669E-15  0.1785714E-01
    1      -32.530430    -32.530434   1.000000   1.000000
    2      -32.421299    -32.421302   1.000000   1.000000
    3      -28.741333    -28.741359   1.000000   1.000000
    4      -28.686894    -28.686928   1.000000   1.000000
    5      -28.608363    -28.608392   1.000000   1.000000
    6      -14.836304    -14.836307   1.000000   1.000000
    7      -14.704305    -14.704307   1.000000   1.000000
    8      -14.554194    -14.554196   1.000000   1.000000
    9      -14.488016    -14.488016   1.000000   1.000000
   10      -14.427409    -14.427411   1.000000   1.000000
   11      -14.381312    -14.381314   1.000000   1.000000
   12       -4.923139     -4.923144   1.000000   1.000000
   13       -2.662141     -2.662144   1.000000   1.000000
   14       -2.142266     -2.142270   1.000000   1.000000
   15       -1.613324     -1.613330   1.000000   1.000000
   16       -1.397555     -1.397560   1.000000   1.000000
   17       -0.769556     -0.769563   1.000000   1.000000
   18        0.371145      0.371135   1.000000   1.000000
   19        0.712523      0.712511   1.000000   1.000000
   20        3.439723      3.439697   0.398122   0.398242
   21        3.756233      3.756219   0.000000   0.000000
   22        4.546519      4.546504   0.000000   0.000000
   23        5.122894      5.122880   0.000000   0.000000
   24        5.676600      5.676584   0.000000   0.000000
   25        5.928227      5.928208   0.000000   0.000000
   26        6.476094      6.476086   0.000000   0.000000
   27        7.224670      7.224650   0.000000   0.000000
   28        7.602730      7.602704   0.000000   0.000000
   29        8.073607      8.073519   0.000000   0.000000
   30        8.521230      8.521081   0.000000   0.000000
   31        8.736155      8.736113   0.000000   0.000000
   32        9.007237      9.004387   0.000000   0.000000
 
  0.2857143E+00  0.2500000E+00  0.3053113E-15  0.1785714E-01
    1      -32.519664    -32.519668   1.000000   1.000000
    2      -32.414261    -32.414263   1.000000   1.000000
    3      -28.757141    -28.757166   1.000000   1.000000
    4      -28.695622    -28.695656   1.000000   1.000000
    5      -28.606047    -28.606076   1.000000   1.000000
    6      -14.795967    -14.795970   1.000000   1.000000
    7      -14.722060    -14.722063   1.000000   1.000000
    8      -14.685657    -14.685658   1.000000   1.000000
    9      -14.573522    -14.573523   1.000000   1.000000
   10      -14.432691    -14.432691   1.000000   1.000000
   11      -14.393035    -14.393037   1.000000   1.000000
   12       -4.288614     -4.288618   1.000000   1.000000
   13       -2.390075     -2.390077   1.000000   1.000000
   14       -2.167796     -2.167801   1.000000   1.000000
   15       -1.706173     -1.706179   1.000000   1.000000
   16       -1.435074     -1.435079   1.000000   1.000000
   17       -0.731644     -0.731653   1.000000   1.000000
   18       -0.278556     -0.278564   1.000000   1.000000
   19        0.269089      0.269079   1.000000   1.000000
   20        3.423274      3.423260   0.439432   0.439480
   21        3.837850      3.837834   0.000000   0.000000
   22        4.498027      4.498013   0.000000   0.000000
   23        5.275101      5.275090   0.000000   0.000000
   24        5.860268      5.860253   0.000000   0.000000
   25        5.976944      5.976931   0.000000   0.000000
   26        6.942852      6.942847   0.000000   0.000000
   27        7.101636      7.101635   0.000000   0.000000
   28        7.734350      7.734341   0.000000   0.000000
   29        8.041203      8.041192   0.000000   0.000000
   30        8.778384      8.778279   0.000000   0.000000
   31        8.941025      8.940873   0.000000   0.000000
   32        9.205030      9.204773   0.000000   0.000000
 
  0.4285714E+00  0.2500000E+00  0.3330669E-15  0.1785714E-01
    1      -32.511616    -32.511619   1.000000   1.000000
    2      -32.407958    -32.407960   1.000000   1.000000
    3      -28.773807    -28.773833   1.000000   1.000000
    4      -28.698659    -28.698692   1.000000   1.000000
    5      -28.604058    -28.604087   1.000000   1.000000
    6      -14.846198    -14.846201   1.000000   1.000000
    7      -14.777917    -14.777918   1.000000   1.000000
    8      -14.730741    -14.730744   1.000000   1.000000
    9      -14.576456    -14.576457   1.000000   1.000000
   10      -14.437801    -14.437802   1.000000   1.000000
   11      -14.393294    -14.393297   1.000000   1.000000
   12       -3.596983     -3.596987   1.000000   1.000000
   13       -2.495287     -2.495290   1.000000   1.000000
   14       -2.010837     -2.010841   1.000000   1.000000
   15       -1.838017     -1.838023   1.000000   1.000000
   16       -1.410081     -1.410086   1.000000   1.000000
   17       -0.831589     -0.831599   1.000000   1.000000
   18       -0.716285     -0.716290   1.000000   1.000000
   19        0.141253      0.141242   1.000000   1.000000
   20        3.157741      3.157730   1.046353   1.046366
   21        4.036770      4.036749   0.000000   0.000000
   22        4.363148      4.363136   0.000000   0.000000
   23        5.311978      5.311969   0.000000   0.000000
   24        5.811733      5.811721   0.000000   0.000000
   25        5.991007      5.990988   0.000000   0.000000
   26        7.144057      7.144053   0.000000   0.000000
   27        7.493299      7.493290   0.000000   0.000000
   28        7.952349      7.952343   0.000000   0.000000
   29        8.514573      8.514565   0.000000   0.000000
   30        8.621765      8.621759   0.000000   0.000000
   31        8.864147      8.864143   0.000000   0.000000
   32        9.451273      9.450862   0.000000   0.000000
 
 -0.4285714E+00  0.2500000E+00  0.4093947E-15  0.1785714E-01
    1      -32.512426    -32.512430   1.000000   1.000000
    2      -32.407114    -32.407116   1.000000   1.000000
    3      -28.773712    -28.773738   1.000000   1.000000
    4      -28.698837    -28.698870   1.000000   1.000000
    5      -28.604004    -28.604034   1.000000   1.000000
    6      -14.854943    -14.854946   1.000000   1.000000
    7      -14.779496    -14.779498   1.000000   1.000000
    8      -14.721964    -14.721966   1.000000   1.000000
    9      -14.569701    -14.569702   1.000000   1.000000
   10      -14.468025    -14.468025   1.000000   1.000000
   11      -14.367428    -14.367430   1.000000   1.000000
   12       -3.725370     -3.725374   1.000000   1.000000
   13       -2.404148     -2.404151   1.000000   1.000000
   14       -1.982300     -1.982308   1.000000   1.000000
   15       -1.601338     -1.601342   1.000000   1.000000
   16       -1.413053     -1.413058   1.000000   1.000000
   17       -0.957276     -0.957286   1.000000   1.000000
   18       -0.895832     -0.895836   1.000000   1.000000
   19        0.277146      0.277135   1.000000   1.000000
   20        3.157639      3.157627   1.098934   1.098942
   21        4.213104      4.213083   0.000000   0.000000
   22        4.359273      4.359262   0.000000   0.000000
   23        5.305603      5.305591   0.000000   0.000000
   24        5.632572      5.632556   0.000000   0.000000
   25        5.918257      5.918246   0.000000   0.000000
   26        7.086243      7.086241   0.000000   0.000000
   27        7.385696      7.385689   0.000000   0.000000
   28        7.559167      7.559162   0.000000   0.000000
   29        8.399299      8.399295   0.000000   0.000000
   30        8.776667      8.776664   0.000000   0.000000
   31        8.912500      8.912476   0.000000   0.000000
   32        9.300045      9.300093   0.000000   0.000000
 
 -0.2857143E+00  0.2500000E+00  0.3903128E-15  0.1785714E-01
    1      -32.521440    -32.521444   1.000000   1.000000
    2      -32.412404    -32.412406   1.000000   1.000000
    3      -28.756925    -28.756951   1.000000   1.000000
    4      -28.696019    -28.696053   1.000000   1.000000
    5      -28.605936    -28.605965   1.000000   1.000000
    6      -14.835648    -14.835651   1.000000   1.000000
    7      -14.691439    -14.691441   1.000000   1.000000
    8      -14.659507    -14.659509   1.000000   1.000000
    9      -14.581922    -14.581924   1.000000   1.000000
   10      -14.483744    -14.483743   1.000000   1.000000
   11      -14.348702    -14.348704   1.000000   1.000000
   12       -4.438214     -4.438218   1.000000   1.000000
   13       -2.282209     -2.282213   1.000000   1.000000
   14       -1.898992     -1.898999   1.000000   1.000000
   15       -1.693311     -1.693316   1.000000   1.000000
   16       -1.384250     -1.384254   1.000000   1.000000
   17       -1.006276     -1.006285   1.000000   1.000000
   18       -0.426492     -0.426499   1.000000   1.000000
   19        0.515908      0.515897   1.000000   1.000000
   20        3.438565      3.438549   0.342964   0.343009
   21        4.212791      4.212774   0.000000   0.000000
   22        4.302621      4.302609   0.000000   0.000000
   23        5.203151      5.203135   0.000000   0.000000
   24        5.545327      5.545314   0.000000   0.000000
   25        6.191117      6.191110   0.000000   0.000000
   26        6.647417      6.647409   0.000000   0.000000
   27        6.956077      6.956072   0.000000   0.000000
   28        7.451733      7.451730   0.000000   0.000000
   29        8.135444      8.135438   0.000000   0.000000
   30        8.421314      8.421308   0.000000   0.000000
   31        8.744179      8.744189   0.000000   0.000000
   32        9.061769      9.061804   0.000000   0.000000
 
 -0.1428571E+00  0.2500000E+00  0.3816392E-15  0.1785714E-01
    1      -32.531816    -32.531820   1.000000   1.000000
    2      -32.419845    -32.419847   1.000000   1.000000
    3      -28.741207    -28.741232   1.000000   1.000000
    4      -28.687155    -28.687189   1.000000   1.000000
    5      -28.608289    -28.608318   1.000000   1.000000
    6      -14.857833    -14.857836   1.000000   1.000000
    7      -14.681509    -14.681510   1.000000   1.000000
    8      -14.545988    -14.545991   1.000000   1.000000
    9      -14.490067    -14.490068   1.000000   1.000000
   10      -14.463111    -14.463110   1.000000   1.000000
   11      -14.351358    -14.351361   1.000000   1.000000
   12       -5.008652     -5.008657   1.000000   1.000000
   13       -2.551046     -2.551051   1.000000   1.000000
   14       -1.993793     -1.993796   1.000000   1.000000
   15       -1.666124     -1.666130   1.000000   1.000000
   16       -1.360499     -1.360503   1.000000   1.000000
   17       -0.949454     -0.949463   1.000000   1.000000
   18        0.357253      0.357243   1.000000   1.000000
   19        0.818005      0.817993   1.000000   1.000000
   20        3.574703      3.574680   0.065324   0.065380
   21        3.898053      3.898040   0.000000   0.000000
   22        4.438507      4.438490   0.000000   0.000000
   23        4.934523      4.934512   0.000000   0.000000
   24        5.409548      5.409537   0.000000   0.000000
   25        5.917397      5.917390   0.000000   0.000000
   26        6.874138      6.874136   0.000000   0.000000
   27        7.103807      7.103801   0.000000   0.000000
   28        7.694498      7.694485   0.000000   0.000000
   29        7.955502      7.955506   0.000000   0.000000
   30        8.156632      8.156622   0.000000   0.000000
   31        8.484708      8.484707   0.000000   0.000000
   32        8.878256      8.877146   0.000000   0.000000
 
  0.3677614E-15  0.5000000E+00  0.3330669E-15  0.8928571E-02
    1      -32.532068    -32.532071   1.000000   1.000000
    2      -32.427688    -32.427689   1.000000   1.000000
    3      -28.736659    -28.736685   1.000000   1.000000
    4      -28.680639    -28.680672   1.000000   1.000000
    5      -28.609249    -28.609279   1.000000   1.000000
    6      -14.862416    -14.862419   1.000000   1.000000
    7      -14.726323    -14.726325   1.000000   1.000000
    8      -14.497088    -14.497089   1.000000   1.000000
    9      -14.465647    -14.465649   1.000000   1.000000
   10      -14.392282    -14.392283   1.000000   1.000000
   11      -14.366853    -14.366855   1.000000   1.000000
   12       -4.602458     -4.602464   1.000000   1.000000
   13       -3.183190     -3.183192   1.000000   1.000000
   14       -2.471712     -2.471717   1.000000   1.000000
   15       -1.664547     -1.664554   1.000000   1.000000
   16       -1.406892     -1.406895   1.000000   1.000000
   17       -0.568050     -0.568060   1.000000   1.000000
   18        0.561298      0.561288   1.000000   1.000000
   19        0.915895      0.915884   1.000000   1.000000
   20        3.161267      3.161239   1.049623   1.049626
   21        4.107553      4.107543   0.000000   0.000000
   22        4.372425      4.372410   0.000000   0.000000
   23        4.839879      4.839863   0.000000   0.000000
   24        5.473881      5.473876   0.000000   0.000000
   25        6.353086      6.353080   0.000000   0.000000
   26        6.524774      6.524770   0.000000   0.000000
   27        6.890197      6.890188   0.000000   0.000000
   28        7.410245      7.410239   0.000000   0.000000
   29        8.073272      8.073261   0.000000   0.000000
   30        8.326279      8.326263   0.000000   0.000000
   31        8.880637      8.880666   0.000000   0.000000
   32        9.093780      9.093644   0.000000   0.000000
 
  0.1428571E+00  0.5000000E+00  0.3885781E-15  0.1785714E-01
    1      -32.527996    -32.528000   1.000000   1.000000
    2      -32.423776    -32.423777   1.000000   1.000000
    3      -28.741290    -28.741315   1.000000   1.000000
    4      -28.687002    -28.687036   1.000000   1.000000
    5      -28.608345    -28.608374   1.000000   1.000000
    6      -14.850057    -14.850060   1.000000   1.000000
    7      -14.704711    -14.704713   1.000000   1.000000
    8      -14.565939    -14.565940   1.000000   1.000000
    9      -14.479329    -14.479330   1.000000   1.000000
   10      -14.447738    -14.447738   1.000000   1.000000
   11      -14.359084    -14.359086   1.000000   1.000000
   12       -4.424804     -4.424809   1.000000   1.000000
   13       -3.026749     -3.026751   1.000000   1.000000
   14       -2.345278     -2.345283   1.000000   1.000000
   15       -1.653233     -1.653240   1.000000   1.000000
   16       -1.441949     -1.441952   1.000000   1.000000
   17       -0.615433     -0.615442   1.000000   1.000000
   18        0.345249      0.345238   1.000000   1.000000
   19        0.583834      0.583825   1.000000   1.000000
   20        3.131096      3.131074   1.034148   1.034156
   21        4.152575      4.152561   0.000000   0.000000
   22        4.450398      4.450381   0.000000   0.000000
   23        4.953483      4.953471   0.000000   0.000000
   24        5.481602      5.481593   0.000000   0.000000
   25        6.245109      6.245105   0.000000   0.000000
   26        6.591451      6.591444   0.000000   0.000000
   27        7.283542      7.283538   0.000000   0.000000
   28        7.600892      7.600884   0.000000   0.000000
   29        8.051003      8.050999   0.000000   0.000000
   30        8.329530      8.329528   0.000000   0.000000
   31        8.898155      8.898102   0.000000   0.000000
   32        9.174529      9.175149   0.000000   0.000000
 
  0.2857143E+00  0.5000000E+00  0.3885781E-15  0.1785714E-01
    1      -32.518826    -32.518829   1.000000   1.000000
    2      -32.414967    -32.414969   1.000000   1.000000
    3      -28.757173    -28.757198   1.000000   1.000000
    4      -28.695841    -28.695875   1.000000   1.000000
    5      -28.606163    -28.606193   1.000000   1.000000
    6      -14.819650    -14.819654   1.000000   1.000000
    7      -14.718344    -14.718347   1.000000   1.000000
    8      -14.695057    -14.695058   1.000000   1.000000
    9      -14.548584    -14.548585   1.000000   1.000000
   10      -14.470232    -14.470233   1.000000   1.000000
   11      -14.361646    -14.361648   1.000000   1.000000
   12       -3.981074     -3.981078   1.000000   1.000000
   13       -2.639758     -2.639761   1.000000   1.000000
   14       -2.135886     -2.135892   1.000000   1.000000
   15       -1.738338     -1.738343   1.000000   1.000000
   16       -1.374776     -1.374780   1.000000   1.000000
   17       -0.785149     -0.785159   1.000000   1.000000
   18       -0.393411     -0.393418   1.000000   1.000000
   19        0.424796      0.424785   1.000000   1.000000
   20        3.000325      3.000307   1.080629   1.080618
   21        4.082779      4.082763   0.000000   0.000000
   22        4.332801      4.332788   0.000000   0.000000
   23        5.367286      5.367278   0.000000   0.000000
   24        5.760958      5.760944   0.000000   0.000000
   25        6.183450      6.183445   0.000000   0.000000
   26        6.849225      6.849219   0.000000   0.000000
   27        7.204465      7.204463   0.000000   0.000000
   28        7.807377      7.807370   0.000000   0.000000
   29        8.025087      8.025081   0.000000   0.000000
   30        8.426573      8.426569   0.000000   0.000000
   31        8.603202      8.603202   0.000000   0.000000
   32        9.052908      9.052912   0.000000   0.000000
 
  0.4285714E+00  0.5000000E+00  0.3330669E-15  0.1785714E-01
    1      -32.511449    -32.511453   1.000000   1.000000
    2      -32.407876    -32.407878   1.000000   1.000000
    3      -28.774001    -28.774027   1.000000   1.000000
    4      -28.698793    -28.698825   1.000000   1.000000
    5      -28.604330    -28.604360   1.000000   1.000000
    6      -14.841249    -14.841252   1.000000   1.000000
    7      -14.805678    -14.805680   1.000000   1.000000
    8      -14.738142    -14.738143   1.000000   1.000000
    9      -14.554568    -14.554568   1.000000   1.000000
   10      -14.446145    -14.446146   1.000000   1.000000
   11      -14.384545    -14.384547   1.000000   1.000000
   12       -3.540540     -3.540544   1.000000   1.000000
   13       -2.296246     -2.296249   1.000000   1.000000
   14       -2.111505     -2.111511   1.000000   1.000000
   15       -1.726354     -1.726359   1.000000   1.000000
   16       -1.417055     -1.417058   1.000000   1.000000
   17       -0.988848     -0.988858   1.000000   1.000000
   18       -0.805380     -0.805385   1.000000   1.000000
   19        0.433522      0.433510   1.000000   1.000000
   20        2.811727      2.811711   1.004578   1.004574
   21        4.116804      4.116784   0.000000   0.000000
   22        4.297484      4.297475   0.000000   0.000000
   23        5.458995      5.458988   0.000000   0.000000
   24        5.803387      5.803377   0.000000   0.000000
   25        5.990548      5.990543   0.000000   0.000000
   26        6.612658      6.612653   0.000000   0.000000
   27        7.177613      7.177602   0.000000   0.000000
   28        7.767906      7.767899   0.000000   0.000000
   29        8.355605      8.355601   0.000000   0.000000
   30        8.578138      8.578136   0.000000   0.000000
   31        8.958817      8.958735   0.000000   0.000000
   32        9.359440      9.359022   0.000000   0.000000
 
  0.3781697E-15  0.3747003E-15  0.2500000E+00  0.1785714E-01
    1      -32.534713    -32.534716   1.000000   1.000000
    2      -32.425065    -32.425067   1.000000   1.000000
    3      -28.736482    -28.736508   1.000000   1.000000
    4      -28.680600    -28.680634   1.000000   1.000000
    5      -28.609324    -28.609354   1.000000   1.000000
    6      -14.831391    -14.831394   1.000000   1.000000
    7      -14.726391    -14.726392   1.000000   1.000000
    8      -14.486748    -14.486750   1.000000   1.000000
    9      -14.440744    -14.440744   1.000000   1.000000
   10      -14.423352    -14.423355   1.000000   1.000000
   11      -14.371971    -14.371972   1.000000   1.000000
   12       -5.307932     -5.307937   1.000000   1.000000
   13       -2.714212     -2.714214   1.000000   1.000000
   14       -2.142634     -2.142640   1.000000   1.000000
   15       -1.565552     -1.565557   1.000000   1.000000
   16       -1.243748     -1.243755   1.000000   1.000000