  24  24   0   0
  0.7976028E+01  0.3505708E-09  0.6931158E-09  0.8072076E-09  0.5000000E-15
  1.000000000000000E-004
  CAR 
 unknown system                          
     10.85792242    -33.91374998  301      4.20835223      1.00000000
    -33.914  0.0000E+00  0.0000E+00
    -33.765  0.0000E+00  0.0000E+00
    -33.615  0.0000E+00  0.0000E+00
    -33.466  0.0000E+00  0.0000E+00
    -33.317  0.0000E+00  0.0000E+00
    -33.168  0.0000E+00  0.0000E+00
    -33.018  0.0000E+00  0.0000E+00
    -32.869  0.0000E+00  0.0000E+00
    -32.720  0.5947E-30  0.8875E-31
    -32.571  0.3124E-20  0.4663E-21
    -32.421  0.1673E-12  0.2497E-13
    -32.272  0.8186E-07  0.1222E-07
    -32.123  0.2479E-03  0.3701E-04
    -31.974 -0.7185E-02 -0.1035E-02
    -31.824  0.1669E+00  0.2387E-01
    -31.675  0.6402E-01  0.3342E-01
    -31.526 -0.5709E-03  0.3334E-01
    -31.377 -0.1161E-02  0.3316E-01
    -31.227  0.7390E-01  0.4419E-01
    -31.078  0.1569E+00  0.6760E-01
    -30.929 -0.6484E-02  0.6663E-01
    -30.780  0.2246E-03  0.6667E-01
    -30.630  0.7180E-07  0.6667E-01
    -30.481  0.1431E-12  0.6667E-01
    -30.332  0.0000E+00  0.6667E-01
    -30.183  0.0000E+00  0.6667E-01
    -30.034  0.0000E+00  0.6667E-01
    -29.884  0.0000E+00  0.6667E-01
    -29.735  0.0000E+00  0.6667E-01
    -29.586  0.0000E+00  0.6667E-01
    -29.437  0.0000E+00  0.6667E-01
    -29.287  0.0000E+00  0.6667E-01
    -29.138  0.0000E+00  0.6667E-01
    -28.989  0.0000E+00  0.6667E-01
    -28.840  0.1014E-36  0.6667E-01
    -28.690  0.8278E-26  0.6667E-01
    -28.541  0.7171E-17  0.6667E-01
    -28.392  0.6286E-10  0.6667E-01
    -28.243  0.4675E-05  0.6667E-01
    -28.093  0.1030E-02  0.6682E-01
    -27.944  0.8151E-02  0.6804E-01
    -27.795  0.2512E+00  0.1055E+00
    -27.646  0.6017E+00  0.1953E+00
    -27.496  0.4925E+00  0.2688E+00
    -27.347  0.5137E+00  0.3455E+00
    -27.198  0.5765E+00  0.4315E+00
    -27.049  0.2439E+00  0.4679E+00
    -26.900 -0.8904E-02  0.4666E+00
    -26.750  0.4900E-03  0.4667E+00
    -26.601  0.2807E-06  0.4667E+00
    -26.452  0.9037E-12  0.4667E+00
    -26.303  0.0000E+00  0.4667E+00
    -26.153  0.0000E+00  0.4667E+00
    -26.004  0.0000E+00  0.4667E+00
    -25.855  0.0000E+00  0.4667E+00
    -25.706  0.0000E+00  0.4667E+00
    -25.556  0.0000E+00  0.4667E+00
    -25.407  0.0000E+00  0.4667E+00
    -25.258  0.0000E+00  0.4667E+00
    -25.109  0.0000E+00  0.4667E+00
    -24.959  0.0000E+00  0.4667E+00
    -24.810  0.0000E+00  0.4667E+00
    -24.661  0.0000E+00  0.4667E+00
    -24.512  0.0000E+00  0.4667E+00
    -24.362  0.0000E+00  0.4667E+00
    -24.213  0.0000E+00  0.4667E+00
    -24.064  0.0000E+00  0.4667E+00
    -23.915  0.0000E+00  0.4667E+00
    -23.766  0.0000E+00  0.4667E+00
    -23.616  0.0000E+00  0.4667E+00
    -23.467  0.0000E+00  0.4667E+00
    -23.318  0.0000E+00  0.4667E+00
    -23.169  0.0000E+00  0.4667E+00
    -23.019  0.0000E+00  0.4667E+00
    -22.870  0.0000E+00  0.4667E+00
    -22.721  0.0000E+00  0.4667E+00
    -22.572  0.0000E+00  0.4667E+00
    -22.422  0.0000E+00  0.4667E+00
    -22.273  0.0000E+00  0.4667E+00
    -22.124  0.0000E+00  0.4667E+00
    -21.975  0.0000E+00  0.4667E+00
    -21.825  0.0000E+00  0.4667E+00
    -21.676  0.0000E+00  0.4667E+00
    -21.527  0.0000E+00  0.4667E+00
    -21.378  0.0000E+00  0.4667E+00
    -21.228  0.0000E+00  0.4667E+00
    -21.079  0.0000E+00  0.4667E+00
    -20.930  0.0000E+00  0.4667E+00
    -20.781  0.0000E+00  0.4667E+00
    -20.631  0.0000E+00  0.4667E+00
    -20.482  0.0000E+00  0.4667E+00
    -20.333  0.0000E+00  0.4667E+00
    -20.184  0.0000E+00  0.4667E+00
    -20.035  0.0000E+00  0.4667E+00
    -19.885  0.0000E+00  0.4667E+00
    -19.736  0.0000E+00  0.4667E+00
    -19.587  0.0000E+00  0.4667E+00
    -19.438  0.0000E+00  0.4667E+00
    -19.288  0.0000E+00  0.4667E+00
    -19.139  0.0000E+00  0.4667E+00
    -18.990  0.0000E+00  0.4667E+00
    -18.841  0.0000E+00  0.4667E+00
    -18.691  0.0000E+00  0.4667E+00
    -18.542  0.0000E+00  0.4667E+00
    -18.393  0.0000E+00  0.4667E+00
    -18.244  0.0000E+00  0.4667E+00
    -18.094  0.0000E+00  0.4667E+00
    -17.945  0.0000E+00  0.4667E+00
    -17.796  0.0000E+00  0.4667E+00
    -17.647  0.0000E+00  0.4667E+00
    -17.497  0.0000E+00  0.4667E+00
    -17.348  0.0000E+00  0.4667E+00
    -17.199  0.0000E+00  0.4667E+00
    -17.050  0.0000E+00  0.4667E+00
    -16.901  0.0000E+00  0.4667E+00
    -16.751  0.0000E+00  0.4667E+00
    -16.602  0.0000E+00  0.4667E+00
    -16.453  0.0000E+00  0.4667E+00
    -16.304  0.0000E+00  0.4667E+00
    -16.154  0.0000E+00  0.4667E+00
    -16.005  0.0000E+00  0.4667E+00
    -15.856  0.0000E+00  0.4667E+00
    -15.707  0.0000E+00  0.4667E+00
    -15.557  0.0000E+00  0.4667E+00
    -15.408  0.7653E-37  0.4667E+00
    -15.259  0.5802E-26  0.4667E+00
    -15.110  0.4534E-17  0.4667E+00
    -14.960  0.3376E-10  0.4667E+00
    -14.811  0.1922E-05  0.4667E+00
    -14.662  0.1813E-03  0.4667E+00
    -14.513  0.4835E-02  0.4674E+00
    -14.363  0.6190E-01  0.4767E+00
    -14.214  0.2743E-01  0.4807E+00
    -14.065  0.6708E-01  0.4908E+00
    -13.916  0.3393E+00  0.5414E+00
    -13.766  0.2241E+00  0.5748E+00
    -13.617  0.4049E-01  0.5809E+00
    -13.468  0.9598E-01  0.5952E+00
    -13.319  0.3625E+00  0.6493E+00
    -13.170  0.7214E-01  0.6601E+00
    -13.020  0.4507E-01  0.6668E+00
    -12.871 -0.1045E-02  0.6667E+00
    -12.722  0.1062E-03  0.6667E+00
    -12.573  0.1566E-06  0.6667E+00
    -12.423  0.9629E-12  0.6667E+00
    -12.274  0.0000E+00  0.6667E+00
    -12.125  0.0000E+00  0.6667E+00
    -11.976  0.0000E+00  0.6667E+00
    -11.826  0.0000E+00  0.6667E+00
    -11.677  0.0000E+00  0.6667E+00
    -11.528  0.0000E+00  0.6667E+00
    -11.379  0.0000E+00  0.6667E+00
    -11.229  0.0000E+00  0.6667E+00
    -11.080  0.0000E+00  0.6667E+00
    -10.931  0.0000E+00  0.6667E+00
    -10.782  0.0000E+00  0.6667E+00
    -10.632  0.0000E+00  0.6667E+00
    -10.483  0.0000E+00  0.6667E+00
    -10.334  0.0000E+00  0.6667E+00
    -10.185  0.0000E+00  0.6667E+00
    -10.036  0.0000E+00  0.6667E+00
     -9.886  0.0000E+00  0.6667E+00
     -9.737  0.0000E+00  0.6667E+00
     -9.588  0.0000E+00  0.6667E+00
     -9.439  0.0000E+00  0.6667E+00
     -9.289  0.0000E+00  0.6667E+00
     -9.140  0.0000E+00  0.6667E+00
     -8.991  0.0000E+00  0.6667E+00
     -8.842  0.0000E+00  0.6667E+00
     -8.692  0.0000E+00  0.6667E+00
     -8.543  0.0000E+00  0.6667E+00
     -8.394  0.0000E+00  0.6667E+00
     -8.245  0.0000E+00  0.6667E+00
     -8.095  0.0000E+00  0.6667E+00
     -7.946  0.0000E+00  0.6667E+00
     -7.797  0.0000E+00  0.6667E+00
     -7.648  0.7910E-39  0.6667E+00
     -7.498  0.6583E-28  0.6667E+00
     -7.349  0.5624E-19  0.6667E+00
     -7.200  0.4568E-12  0.6667E+00
     -7.051  0.2895E-07  0.6667E+00
     -6.902  0.6758E-05  0.6667E+00
     -6.752 -0.1562E-04  0.6667E+00
     -6.603  0.3817E-02  0.6672E+00
     -6.454  0.1429E-01  0.6694E+00
     -6.305  0.2279E-01  0.6728E+00
     -6.155  0.3080E-01  0.6774E+00
     -6.006  0.2010E-01  0.6804E+00
     -5.857  0.1496E-01  0.6826E+00
     -5.708  0.2252E-01  0.6860E+00
     -5.558  0.1257E-01  0.6878E+00
     -5.409  0.2075E-01  0.6909E+00
     -5.260  0.2241E-01  0.6943E+00
     -5.111  0.4965E-01  0.7017E+00
     -4.961  0.2169E-01  0.7049E+00
     -4.812  0.3509E-01  0.7102E+00
     -4.663  0.2579E-01  0.7140E+00
     -4.514  0.3453E-01  0.7192E+00
     -4.364  0.3662E-01  0.7246E+00
     -4.215  0.3923E-01  0.7305E+00
     -4.066  0.5302E-01  0.7384E+00
     -3.917  0.2294E-01  0.7418E+00
     -3.767  0.3272E-01  0.7467E+00
     -3.618  0.4178E-01  0.7529E+00
     -3.469  0.5343E-01  0.7609E+00
     -3.320  0.7507E-01  0.7721E+00
     -3.171  0.8058E-01  0.7841E+00
     -3.021  0.9799E-01  0.7988E+00
     -2.872  0.6827E-01  0.8089E+00
     -2.723  0.8477E-01  0.8216E+00
     -2.574  0.5975E-01  0.8305E+00
     -2.424  0.4487E-01  0.8372E+00
     -2.275  0.7292E-01  0.8481E+00
     -2.126  0.9562E-01  0.8624E+00
     -1.977  0.8769E-01  0.8755E+00
     -1.827  0.8637E-01  0.8883E+00
     -1.678  0.9045E-01  0.9018E+00
     -1.529  0.1410E+00  0.9229E+00
     -1.380  0.9843E-01  0.9376E+00
     -1.230  0.1525E+00  0.9603E+00
     -1.081  0.1791E+00  0.9871E+00
     -0.932  0.1136E+00  0.1004E+01
     -0.783  0.6953E-01  0.1014E+01
     -0.633  0.1597E+00  0.1038E+01
     -0.484  0.1598E+00  0.1062E+01
     -0.335  0.1384E+00  0.1083E+01
     -0.186  0.1673E+00  0.1108E+01
     -0.037  0.1279E+00  0.1127E+01
      0.113  0.8095E-01  0.1139E+01
      0.262  0.1012E+00  0.1154E+01
      0.411  0.7876E-01  0.1166E+01
      0.560  0.9336E-01  0.1180E+01
      0.710  0.4632E-01  0.1187E+01
      0.859  0.9502E-01  0.1201E+01
      1.008  0.4657E-01  0.1208E+01
      1.157  0.2946E-01  0.1212E+01
      1.307  0.1912E-01  0.1215E+01
      1.456  0.2985E-01  0.1219E+01
      1.605  0.5115E-01  0.1227E+01
      1.754  0.2447E-01  0.1231E+01
      1.904  0.5294E-01  0.1239E+01
      2.053  0.1653E-01  0.1241E+01
      2.202  0.4762E-01  0.1248E+01
      2.351  0.4170E-01  0.1254E+01
      2.501  0.3563E-01  0.1260E+01
      2.650  0.6552E-01  0.1269E+01
      2.799  0.5312E-01  0.1277E+01
      2.948  0.9376E-01  0.1291E+01
      3.097  0.1101E+00  0.1308E+01
      3.247  0.1313E+00  0.1327E+01
      3.396  0.1154E+00  0.1345E+01
      3.545  0.4751E-01  0.1352E+01
      3.694  0.1853E-01  0.1354E+01
      3.844  0.4787E-01  0.1362E+01
      3.993  0.1076E-01  0.1363E+01
      4.142  0.1930E-01  0.1366E+01
      4.291  0.5218E-02  0.1367E+01
      4.441  0.1944E-01  0.1370E+01
      4.590  0.6839E-01  0.1380E+01
      4.739  0.9794E-01  0.1395E+01
      4.888  0.1221E+00  0.1413E+01
      5.038  0.1553E+00  0.1436E+01
      5.187  0.1856E+00  0.1464E+01
      5.336  0.1797E+00  0.1491E+01
      5.485  0.1776E+00  0.1517E+01
      5.635  0.1856E+00  0.1545E+01
      5.784  0.1889E+00  0.1573E+01
      5.933  0.1599E+00  0.1597E+01
      6.082  0.1523E+00  0.1620E+01
      6.232  0.1570E+00  0.1643E+01
      6.381  0.1234E+00  0.1661E+01
      6.530  0.1306E+00  0.1681E+01
      6.679  0.1045E+00  0.1696E+01
      6.828  0.9152E-01  0.1710E+01
      6.978  0.7762E-01  0.1722E+01
      7.127  0.7128E-01  0.1732E+01
      7.276  0.8655E-01  0.1745E+01
      7.425  0.7262E-01  0.1756E+01
      7.575  0.9268E-01  0.1770E+01
      7.724  0.9349E-01  0.1784E+01
      7.873  0.1087E+00  0.1800E+01
      8.022  0.1184E+00  0.1818E+01
      8.172  0.1173E+00  0.1835E+01
      8.321  0.8335E-01  0.1848E+01
      8.470  0.6766E-01  0.1858E+01
      8.619  0.3801E-01  0.1863E+01
      8.769  0.1726E-01  0.1866E+01
      8.918  0.4144E-02  0.1867E+01
      9.067 -0.8610E-04  0.1867E+01
      9.216  0.5696E-05  0.1867E+01
      9.366  0.2081E-08  0.1867E+01
      9.515  0.4784E-14  0.1867E+01
      9.664  0.0000E+00  0.1867E+01
      9.813  0.0000E+00  0.1867E+01
      9.962  0.0000E+00  0.1867E+01
     10.112  0.0000E+00  0.1867E+01
     10.261  0.0000E+00  0.1867E+01
     10.410  0.0000E+00  0.1867E+01
     10.559  0.0000E+00  0.1867E+01
     10.709  0.0000E+00  0.1867E+01
     10.858  0.0000E+00  0.1867E+01
