       N       E                     dE             d eps       ncg     rms          rms(c)
DAV:   1     0.500603291904E+03    0.50060E+03   -0.26711E+04 19056   0.862E+02
DAV:   2    -0.766797703397E+02   -0.57728E+03   -0.55544E+03 22912   0.399E+02
DAV:   3    -0.114446555234E+03   -0.37767E+02   -0.37153E+02 28808   0.940E+01
DAV:   4    -0.116319983049E+03   -0.18734E+01   -0.18625E+01 32736   0.192E+01
DAV:   5    -0.116392158275E+03   -0.72175E-01   -0.72074E-01 32280   0.364E+00    0.625E+01
DAV:   6    -0.109016623566E+03    0.73755E+01   -0.18838E+01 28064   0.231E+01    0.251E+01
DAV:   7    -0.108411502821E+03    0.60512E+00   -0.52991E+00 28568   0.116E+01    0.116E+01
DAV:   8    -0.108171646872E+03    0.23986E+00   -0.28445E+00 28240   0.984E+00    0.675E+00
DAV:   9    -0.108081349218E+03    0.90298E-01   -0.55944E-01 29944   0.405E+00    0.232E+00
DAV:  10    -0.108078120313E+03    0.32289E-02   -0.80798E-02 28016   0.140E+00    0.733E-01
DAV:  11    -0.108078331281E+03   -0.21097E-03   -0.20288E-02 28384   0.104E+00    0.363E-01
DAV:  12    -0.108077568115E+03    0.76317E-03   -0.38918E-03 28192   0.524E-01    0.179E-01
DAV:  13    -0.108077489798E+03    0.78317E-04   -0.81073E-04 24552   0.189E-01
   1 F= -.10807749E+03 E0= -.10807761E+03  d E =-.108077E+03
       N       E                     dE             d eps       ncg     rms          rms(c)
DAV:   1    -0.108080727964E+03   -0.31598E-02   -0.19235E-01 21112   0.288E+00    0.761E-01
DAV:   2    -0.108079312792E+03    0.14152E-02   -0.32511E-02 22712   0.106E+00    0.174E-01
DAV:   3    -0.108078902909E+03    0.40988E-03   -0.24866E-03 27408   0.262E-01    0.888E-02
DAV:   4    -0.108078790577E+03    0.11233E-03   -0.35132E-04 20616   0.129E-01    0.939E-02
DAV:   5    -0.108078771193E+03    0.19385E-04   -0.10032E-04 13312   0.881E-02
   2 F= -.10807877E+03 E0= -.10807890E+03  d E =-.128139E-02
       N       E                     dE             d eps       ncg     rms          rms(c)
DAV:   1    -0.108078847187E+03   -0.56610E-04   -0.83557E-03 21144   0.608E-01    0.159E-01
DAV:   2    -0.108078761226E+03    0.85961E-04   -0.14251E-03 23184   0.228E-01    0.545E-02
DAV:   3    -0.108078732636E+03    0.28590E-04   -0.79470E-05 13368   0.616E-02
   3 F= -.10807873E+03 E0= -.10807886E+03  d E =-.124284E-02
       N       E                     dE             d eps       ncg     rms          rms(c)
DAV:   1    -0.108079360708E+03   -0.59948E-03   -0.55099E-02 20360   0.133E+00    0.286E-01
DAV:   2    -0.108079162428E+03    0.19828E-03   -0.59015E-03 23632   0.457E-01    0.847E-02
DAV:   3    -0.108079074441E+03    0.87987E-04   -0.39745E-04 19832   0.124E-01
   4 F= -.10807907E+03 E0= -.10807920E+03  d E =-.341804E-03
       N       E                     dE             d eps       ncg     rms          rms(c)
DAV:   1    -0.108079063755E+03    0.98673E-04   -0.44321E-04 17808   0.140E-01    0.711E-02
DAV:   2    -0.108079064514E+03   -0.75881E-06   -0.11949E-04 12976   0.982E-02
   5 F= -.10807906E+03 E0= -.10807919E+03  d E =-.331877E-03
