       N       E                     dE             d eps       ncg     rms          rms(c)
DAV:   1     0.444727873724E+03    0.44473E+03   -0.34213E+04  4864   0.106E+03
DAV:   2    -0.359482830040E+02   -0.48068E+03   -0.46056E+03  5200   0.284E+02
DAV:   3    -0.722411939636E+02   -0.36293E+02   -0.36025E+02  7968   0.687E+01
DAV:   4    -0.742144399081E+02   -0.19732E+01   -0.19646E+01  7648   0.123E+01
DAV:   5    -0.742904664835E+02   -0.76027E-01   -0.76018E-01  7024   0.219E+00    0.495E+01
RMM:   6    -0.747078844174E+02   -0.41742E+00   -0.12505E+01  5321   0.831E+00    0.280E+01
RMM:   7    -0.736557402647E+02    0.10521E+01   -0.43496E+00  5616   0.681E+00    0.150E+01
RMM:   8    -0.736681608462E+02   -0.12421E-01   -0.87862E-01  5699   0.426E+00    0.519E+00
RMM:   9    -0.737375919439E+02   -0.69431E-01   -0.19630E-01  5910   0.160E+00    0.208E+00
RMM:  10    -0.737362622873E+02    0.13297E-02   -0.48735E-02  5783   0.905E-01    0.991E-01
RMM:  11    -0.737376985935E+02   -0.14363E-02   -0.13811E-02  5009   0.452E-01    0.319E-01
RMM:  12    -0.737388315076E+02   -0.11329E-02   -0.40836E-03  4454   0.289E-01    0.137E-01
RMM:  13    -0.737395116439E+02   -0.68014E-03   -0.18744E-03  3897   0.160E-01
   1 F= -.73739512E+02 E0= -.73739512E+02  d E =-.737395E+02  mag=     0.9881
       N       E                     dE             d eps       ncg     rms          rms(c)
DAV:   1    -0.740499658877E+02   -0.31113E+00   -0.66833E+00  6080   0.113E+01    0.473E+00
RMM:   2    -0.738724708785E+02    0.17750E+00   -0.75141E-01  6031   0.340E+00    0.158E+00
RMM:   3    -0.738248125453E+02    0.47658E-01   -0.10434E-01  6125   0.190E+00    0.132E+00
RMM:   4    -0.738113535845E+02    0.13459E-01   -0.36122E-02  5682   0.788E-01    0.126E+00
RMM:   5    -0.738108156948E+02    0.53789E-03   -0.93855E-03  4547   0.794E-01
   2 F= -.73810816E+02 E0= -.73810816E+02  d E =-.713041E-01  mag=     0.9995
       N       E                     dE             d eps       ncg     rms          rms(c)
DAV:   1    -0.758088302253E+02   -0.19975E+01   -0.57838E+01  4912   0.331E+01    0.144E+01
RMM:   2    -0.742784791364E+02    0.15304E+01   -0.64678E+00  5986   0.983E+00    0.480E+00
RMM:   3    -0.738098445453E+02    0.46863E+00   -0.99208E-01  6114   0.579E+00    0.430E+00
RMM:   4    -0.736910801334E+02    0.11876E+00   -0.28878E-01  5848   0.222E+00    0.473E+00
RMM:   5    -0.736932625331E+02   -0.21824E-02   -0.85009E-02  6100   0.229E+00    0.239E+00
RMM:   6    -0.736628866393E+02    0.30376E-01   -0.17751E-01  6299   0.107E+00    0.117E+00
RMM:   7    -0.736637201780E+02   -0.83354E-03   -0.40245E-02  6209   0.109E+00    0.563E-01
RMM:   8    -0.736647980813E+02   -0.10779E-02   -0.98862E-03  5268   0.296E-01    0.609E-01
RMM:   9    -0.736667973669E+02   -0.19993E-02   -0.66427E-03  4801   0.389E-01    0.759E-01
RMM:  10    -0.736675246593E+02   -0.72729E-03   -0.39558E-03  4643   0.268E-01
   3 F= -.73667525E+02 E0= -.73667525E+02  d E =0.719870E-01  mag=     1.0000
       N       E                     dE             d eps       ncg     rms          rms(c)
DAV:   1    -0.748967871182E+02   -0.12300E+01   -0.24674E+01  5632   0.205E+01    0.950E+00
RMM:   2    -0.740310674692E+02    0.86572E+00   -0.22646E+00  5842   0.578E+00    0.325E+00
RMM:   3    -0.738201020429E+02    0.21097E+00   -0.46301E-01  6382   0.338E+00    0.194E+00
RMM:   4    -0.737964627405E+02    0.23639E-01   -0.36598E-01  5915   0.164E+00    0.171E+00
RMM:   5    -0.738057571527E+02   -0.92944E-02   -0.34874E-02  5260   0.140E+00    0.122E+00
RMM:   6    -0.738157364949E+02   -0.99793E-02   -0.19851E-02  5090   0.378E-01    0.362E-01
RMM:   7    -0.738148254382E+02    0.91106E-03   -0.81422E-03  5052   0.481E-01
   4 F= -.73814825E+02 E0= -.73814825E+02  d E =-.753138E-01  mag=     1.0000
       N       E                     dE             d eps       ncg     rms          rms(c)
DAV:   1    -0.739312648795E+02   -0.11553E+00   -0.41055E+00  5664   0.919E+00    0.334E+00
RMM:   2    -0.738572533229E+02    0.74012E-01   -0.37573E-01  5781   0.226E+00    0.114E+00
RMM:   3    -0.738335783399E+02    0.23675E-01   -0.60620E-02  6094   0.130E+00    0.841E-01
RMM:   4    -0.738330419070E+02    0.53643E-03   -0.32668E-02  5329   0.553E-01    0.684E-01
RMM:   5    -0.738345119584E+02   -0.14701E-02   -0.31422E-03  3928   0.396E-01    0.508E-01
RMM:   6    -0.738358787756E+02   -0.13668E-02   -0.20028E-03  3831   0.203E-01    0.206E-01
RMM:   7    -0.738359355371E+02   -0.56761E-04   -0.47979E-03  4213   0.212E-01
   5 F= -.73835936E+02 E0= -.73835936E+02  d E =-.211101E-01  mag=     1.0000
       N       E                     dE             d eps       ncg     rms          rms(c)
DAV:   1    -0.738416733360E+02   -0.57946E-02   -0.19139E-01  6688   0.193E+00    0.704E-01
RMM:   2    -0.738381272835E+02    0.35461E-02   -0.18036E-02  5713   0.488E-01    0.272E-01
RMM:   3    -0.738366726324E+02    0.14547E-02   -0.22415E-03  3727   0.293E-01    0.177E-01
RMM:   4    -0.738365472545E+02    0.12538E-03   -0.15145E-03  3241   0.228E-01
   6 F= -.73836547E+02 E0= -.73836547E+02  d E =-.217218E-01  mag=     1.0000
       N       E                     dE             d eps       ncg     rms          rms(c)
DAV:   1    -0.738493104897E+02   -0.12638E-01   -0.41387E-01  5472   0.246E+00    0.501E-01
RMM:   2    -0.738463182114E+02    0.29923E-02   -0.21741E-02  5393   0.591E-01    0.398E-01
RMM:   3    -0.738456308338E+02    0.68738E-03   -0.17360E-03  3583   0.369E-01
   7 F= -.73845631E+02 E0= -.73845631E+02  d E =-.908358E-02  mag=     1.0000
       N       E                     dE             d eps       ncg     rms          rms(c)
DAV:   1    -0.738807496644E+02   -0.34431E-01   -0.30976E+00  4864   0.672E+00    0.141E+00
RMM:   2    -0.738584438784E+02    0.22306E-01   -0.16705E-01  5678   0.180E+00    0.117E+00
RMM:   3    -0.738538103200E+02    0.46336E-02   -0.14266E-02  5117   0.754E-01    0.794E-01
RMM:   4    -0.738522671803E+02    0.15431E-02   -0.39715E-03  4130   0.368E-01    0.517E-01
RMM:   5    -0.738522776094E+02   -0.10429E-04   -0.35324E-03  4427   0.335E-01
   8 F= -.73852278E+02 E0= -.73852278E+02  d E =-.157304E-01  mag=     1.0000
       N       E                     dE             d eps       ncg     rms          rms(c)
DAV:   1    -0.738649787258E+02   -0.12712E-01   -0.72463E-01  6368   0.416E+00    0.863E-01
RMM:   2    -0.738625459743E+02    0.24328E-02   -0.78350E-02  5573   0.942E-01    0.295E-01
RMM:   3    -0.738604953693E+02    0.20506E-02   -0.50481E-03  4081   0.479E-01    0.244E-01
RMM:   4    -0.738603780778E+02    0.11729E-03   -0.26770E-03  3947   0.255E-01
   9 F= -.73860378E+02 E0= -.73860378E+02  d E =-.810047E-02  mag=     1.0000
       N       E                     dE             d eps       ncg     rms          rms(c)
DAV:   1    -0.739163389952E+02   -0.55844E-01   -0.66856E+00  5472   0.125E+01    0.267E+00
RMM:   2    -0.738826567780E+02    0.33682E-01   -0.68975E-01  5720   0.289E+00    0.967E-01
RMM:   3    -0.738642514295E+02    0.18405E-01   -0.55264E-02  5806   0.156E+00    0.745E-01
RMM:   4    -0.738628548980E+02    0.13965E-02   -0.33663E-02  5637   0.589E-01    0.738E-01
RMM:   5    -0.738640385865E+02   -0.11837E-02   -0.50412E-03  4341   0.567E-01    0.551E-01
RMM:   6    -0.738650175434E+02   -0.97896E-03   -0.29410E-03  4053   0.221E-01
  10 F= -.73865018E+02 E0= -.73865018E+02  d E =-.127399E-01  mag=     1.0000
       N       E                     dE             d eps       ncg     rms          rms(c)
DAV:   1    -0.738812662666E+02   -0.17228E-01   -0.68286E-01  5888   0.344E+00    0.111E+00
RMM:   2    -0.738727352456E+02    0.85310E-02   -0.45983E-02  5630   0.855E-01    0.361E-01
RMM:   3    -0.738700225979E+02    0.27126E-02   -0.69042E-03  4790   0.653E-01    0.282E-01
RMM:   4    -0.738696906446E+02    0.33195E-03   -0.30003E-03  4100   0.268E-01
  11 F= -.73869691E+02 E0= -.73869691E+02  d E =-.467310E-02  mag=     1.0000
       N       E                     dE             d eps       ncg     rms          rms(c)
DAV:   1    -0.738786293347E+02   -0.86067E-02   -0.47585E-01  5248   0.289E+00    0.848E-01
RMM:   2    -0.738727135501E+02    0.59158E-02   -0.32795E-02  5699   0.710E-01    0.321E-01
RMM:   3    -0.738708577620E+02    0.18558E-02   -0.38719E-03  4138   0.499E-01    0.288E-01
RMM:   4    -0.738706012843E+02    0.25648E-03   -0.20960E-03  4033   0.210E-01
  12 F= -.73870601E+02 E0= -.73870601E+02  d E =-.558374E-02  mag=     1.0000
