 running on   32 total cores
 distrk:  each k-point on   32 cores,    1 groups
 distr:  one band on    8 cores,    4 groups
 using from now: INCAR     
 vasp.5.4.4.18Apr17-6-g9f103f2a35 (build Nov 01 2019 12:17:22) complex          
  
 POSCAR found type information on POSCAR  H 
 POSCAR found :  1 types and      16 ions
 LDA part: xc-table for Pade appr. of Perdew
 generate k-points for:   12    9    6
 POSCAR, INCAR and KPOINTS ok, starting setup
 FFT: planning ...
 WAVECAR not read
 entering main loop
       N       E                     dE             d eps       ncg     rms          rms(c)
DAV:   1    -0.194810187203E+02   -0.19481E+02   -0.38946E+03 13056   0.361E+02
DAV:   2    -0.540276329715E+02   -0.34547E+02   -0.33545E+02 16852   0.916E+01
DAV:   3    -0.553355195979E+02   -0.13079E+01   -0.13034E+01 15856   0.169E+01
DAV:   4    -0.553389147574E+02   -0.33952E-02   -0.33949E-02 15284   0.104E+00
DAV:   5    -0.553389266609E+02   -0.11903E-04   -0.11903E-04 14628   0.562E-02    0.123E+01
DAV:   6    -0.532393372160E+02    0.20996E+01   -0.55456E-01 14168   0.353E+00    0.699E+00
DAV:   7    -0.522063130095E+02    0.10330E+01   -0.14999E+00 14536   0.601E+00    0.656E-01
DAV:   8    -0.522351581210E+02   -0.28845E-01   -0.71564E-02 14048   0.130E+00    0.422E-01
DAV:   9    -0.522314069552E+02    0.37512E-02   -0.56615E-03 16376   0.400E-01    0.587E-02
DAV:  10    -0.522314714399E+02   -0.64485E-04   -0.18017E-04 14548   0.678E-02
   1 F= -.52231471E+02 E0= -.52231508E+02  d E =-.522315E+02
 curvature:   0.00 expect dE= 0.000E+00 dE for cont linesearch  0.000E+00
 trial: gam= 0.00000 g(F)=  0.180E-02 g(S)=  0.740E-03 ort = 0.000E+00 (trialstep = 0.100E+01)
 search vector abs. value=  0.254E-02
 bond charge predicted
       N       E                     dE             d eps       ncg     rms          rms(c)
DAV:   1    -0.522326862276E+02   -0.12793E-02   -0.36021E-02 14124   0.107E+00    0.739E-02
DAV:   2    -0.522327879694E+02   -0.10174E-03   -0.15149E-03 15284   0.208E-01    0.584E-02
DAV:   3    -0.522327488398E+02    0.39130E-04   -0.33681E-05 11704   0.696E-02
   2 F= -.52232749E+02 E0= -.52232786E+02  d E =-.127740E-02
 trial-energy change:   -0.001277  1 .order   -0.001266   -0.002536    0.000003
 step:   0.9988(harm=  0.9988)  dis= 0.00310  next Energy=   -52.232738 (dE=-0.127E-02)
 bond charge predicted
       N       E                     dE             d eps       ncg     rms          rms(c)
DAV:   1    -0.522327560498E+02    0.31920E-04   -0.66483E-05  7024   0.400E-02    0.521E-03
DAV:   2    -0.522327559976E+02    0.52262E-07   -0.46056E-06  6740   0.124E-02
   3 F= -.52232756E+02 E0= -.52232793E+02  d E =-.128456E-02
 curvature:  -0.50 expect dE=-0.314E-02 dE for cont linesearch -0.363E-05
 trial: gam= 2.53487 g(F)=  0.566E-02 g(S)=  0.636E-03 ort =-0.136E-03 (trialstep = 0.116E+00)
 search vector abs. value=  0.219E-01
 bond charge predicted
       N       E                     dE             d eps       ncg     rms          rms(c)
DAV:   1    -0.522334381405E+02   -0.68209E-03   -0.32274E-03 13668   0.300E-01    0.187E-02
DAV:   2    -0.522334412196E+02   -0.30791E-05   -0.42566E-05  8160   0.341E-02
   4 F= -.52233441E+02 E0= -.52233478E+02  d E =-.685222E-03
 ZBRENT: can't locate minimum, use default step
 trial-energy change:   -0.000685  1 .order   -0.000686   -0.000689   -0.000683
 step:   0.4631(harm= 13.5668)  dis= 0.00533  next Energy=   -52.273101 (dE=-0.403E-01)
 bond charge predicted
       N       E                     dE             d eps       ncg     rms          rms(c)
DAV:   1    -0.522354194410E+02   -0.19813E-02   -0.28749E-02 13592   0.898E-01    0.552E-02
DAV:   2    -0.522354475656E+02   -0.28125E-04   -0.35941E-04 15488   0.970E-02
   5 F= -.52235448E+02 E0= -.52235484E+02  d E =-.269157E-02
 curvature:  -1.27 expect dE=-0.829E-02 dE for cont linesearch -0.190E-02
 ZBRENT: increasing intervall
 opt :   1.1578  next Energy=   -52.239295 (dE=-0.654E-02)
 bond charge predicted
       N       E                     dE             d eps       ncg     rms          rms(c)
DAV:   1    -0.522391207994E+02   -0.37014E-02   -0.11444E-01 13512   0.179E+00    0.110E-01
DAV:   2    -0.522392369081E+02   -0.11611E-03   -0.14061E-03 15532   0.192E-01    0.727E-02
DAV:   3    -0.522392529648E+02   -0.16057E-04   -0.11574E-04 11840   0.551E-02
   6 F= -.52239253E+02 E0= -.52239290E+02  d E =-.649697E-02
 curvature:  -2.58 expect dE=-0.180E-01 dE for cont linesearch -0.327E-02
 ZBRENT: increasing intervall
 opt :   2.5471  next Energy=   -52.245951 (dE=-0.132E-01)
 bond charge predicted
       N       E                     dE             d eps       ncg     rms          rms(c)
DAV:   1    -0.522454697926E+02   -0.62329E-02   -0.46064E-01 13476   0.359E+00    0.220E-01
DAV:   2    -0.522459591007E+02   -0.48931E-03   -0.60850E-03 15512   0.398E-01    0.147E-01
DAV:   3    -0.522460103650E+02   -0.51264E-04   -0.52229E-04 14480   0.113E-01
   7 F= -.52246010E+02 E0= -.52246048E+02  d E =-.132544E-01
 curvature:  -5.28 expect dE=-0.445E-01 dE for cont linesearch -0.458E-02
 ZBRENT: increasing intervall
 opt :   5.3257  next Energy=   -52.255590 (dE=-0.228E-01)
 bond charge predicted
       N       E                     dE             d eps       ncg     rms          rms(c)
DAV:   1    -0.522539941067E+02   -0.80350E-02   -0.18366E+00 13492   0.715E+00    0.439E-01
DAV:   2    -0.522559706770E+02   -0.19766E-02   -0.24497E-02 15520   0.797E-01    0.295E-01
DAV:   3    -0.522561665360E+02   -0.19586E-03   -0.20984E-03 14472   0.226E-01    0.430E-02
DAV:   4    -0.522561536032E+02    0.12933E-04   -0.15624E-04 15112   0.646E-02
   8 F= -.52256154E+02 E0= -.52256194E+02  d E =-.233976E-01
 curvature: -11.04 expect dE=-0.151E+00 dE for cont linesearch -0.345E-02
 ZBRENT: increasing intervall
 opt :  10.8829  next Energy=   -52.261012 (dE=-0.283E-01)
 bond charge predicted
       N       E                     dE             d eps       ncg     rms          rms(c)
DAV:   1    -0.522549114776E+02    0.12551E-02   -0.72832E+00 13452   0.142E+01    0.879E-01
DAV:   2    -0.522625155493E+02   -0.76041E-02   -0.10151E-01 15560   0.161E+00    0.593E-01
DAV:   3    -0.522628176454E+02   -0.30210E-03   -0.87355E-03 14548   0.463E-01    0.867E-02
DAV:   4    -0.522627732553E+02    0.44390E-04   -0.70570E-04 15332   0.137E-01
   9 F= -.52262773E+02 E0= -.52262828E+02  d E =-.300173E-01
 curvature: -15.54 expect dE=-0.593E+00 dE for cont linesearch -0.776E-03
 trial: gam= 5.23859 g(F)=  0.345E-01 g(S)=  0.365E-02 ort =-0.105E-02 (trialstep = 0.791E-01)
 search vector abs. value=  0.628E+00
 bond charge predicted
       N       E                     dE             d eps       ncg     rms          rms(c)
DAV:   1    -0.522651331093E+02   -0.23155E-02   -0.47038E-02 13840   0.115E+00    0.724E-02
DAV:   2    -0.522652154273E+02   -0.82318E-04   -0.86854E-04 15456   0.152E-01
  10 F= -.52265215E+02 E0= -.52265271E+02  d E =-.244217E-02
 ZBRENT: can't locate minimum, use default step
 trial-energy change:   -0.002442  1 .order   -0.002407   -0.002583   -0.002231
 step:   0.3164(harm=  0.5805)  dis= 0.02050  next Energy=   -52.272248 (dE=-0.948E-02)
 bond charge predicted
       N       E                     dE             d eps       ncg     rms          rms(c)
DAV:   1    -0.522689167906E+02   -0.37837E-02   -0.40607E-01 13560   0.339E+00    0.211E-01
DAV:   2    -0.522693436418E+02   -0.42685E-03   -0.60888E-03 15528   0.404E-01    0.145E-01
DAV:   3    -0.522692998359E+02    0.43806E-04   -0.41945E-04 15340   0.148E-01
  11 F= -.52269300E+02 E0= -.52269359E+02  d E =-.652658E-02
 curvature:  -4.04 expect dE=-0.294E-01 dE for cont linesearch -0.319E-03
 trial: gam=-0.08609 g(F)=  0.288E-02 g(S)=  0.441E-02 ort = 0.705E-02 (trialstep = 0.127E+00)
 search vector abs. value=  0.107E-01
 bond charge predicted
       N       E                     dE             d eps       ncg     rms          rms(c)
DAV:   1    -0.522701136953E+02   -0.77005E-03   -0.15077E-03 14464   0.211E-01    0.203E-02
DAV:   2    -0.522701113334E+02    0.23619E-05   -0.41651E-05  7284   0.347E-02
  12 F= -.52270111E+02 E0= -.52270170E+02  d E =-.811497E-03
 ZBRENT: can't locate minimum, use default step
 trial-energy change:   -0.000811  1 .order   -0.000805   -0.000846   -0.000765
 step:   0.5063(harm=  1.3346)  dis= 0.00241  next Energy=   -52.273757 (dE=-0.446E-02)
 bond charge predicted
       N       E                     dE             d eps       ncg     rms          rms(c)
DAV:   1    -0.522720219195E+02   -0.19082E-02   -0.12522E-02 14332   0.611E-01    0.420E-02
DAV:   2    -0.522720487398E+02   -0.26820E-04   -0.35891E-04 15068   0.981E-02
  13 F= -.52272049E+02 E0= -.52272106E+02  d E =-.274890E-02
 curvature:  -0.57 expect dE=-0.310E-02 dE for cont linesearch -0.974E-03
 trial: gam= 0.10234 g(F)=  0.221E-02 g(S)=  0.325E-02 ort = 0.429E-02 (trialstep = 0.203E+00)
 search vector abs. value=  0.645E-02
 bond charge predicted
       N       E                     dE             d eps       ncg     rms          rms(c)
DAV:   1    -0.522731956914E+02   -0.11738E-02   -0.23121E-03 14448   0.259E-01    0.213E-02
DAV:   2    -0.522732024547E+02   -0.67633E-05   -0.90024E-05  7796   0.503E-02
  14 F= -.52273202E+02 E0= -.52273260E+02  d E =-.115371E-02
 ZBRENT: can't locate minimum, use default step
 trial-energy change:   -0.001154  1 .order   -0.001162   -0.001195   -0.001129
 step:   0.8101(harm=  3.7092)  dis= 0.00319  next Energy=   -52.282988 (dE=-0.109E-01)
 bond charge predicted
       N       E                     dE             d eps       ncg     rms          rms(c)
DAV:   1    -0.522762200227E+02   -0.30243E-02   -0.20500E-02 14336   0.756E-01    0.645E-02
DAV:   2    -0.522762372184E+02   -0.17196E-04   -0.49576E-04 15200   0.113E-01
  15 F= -.52276237E+02 E0= -.52276295E+02  d E =-.418848E-02
 curvature:  -0.64 expect dE=-0.324E-02 dE for cont linesearch -0.211E-02
 ZBRENT: increasing intervall
 opt :   2.0253  next Energy=   -52.280647 (dE=-0.860E-02)
 bond charge predicted
       N       E                     dE             d eps       ncg     rms          rms(c)
DAV:   1    -0.522802593552E+02   -0.40393E-02   -0.81146E-02 14272   0.150E+00    0.124E-01
DAV:   2    -0.522803384158E+02   -0.79061E-04   -0.18863E-03 15280   0.221E-01    0.814E-02
DAV:   3    -0.522803066431E+02    0.31773E-04   -0.16254E-04 14144   0.791E-02
  16 F= -.52280307E+02 E0= -.52280363E+02  d E =-.825790E-02
 curvature:  -1.34 expect dE=-0.184E-01 dE for cont linesearch -0.108E-02
 ZBRENT: increasing intervall
 opt :   4.4556  next Energy=   -52.280173 (dE=-0.812E-02)
 bond charge predicted
       N       E                     dE             d eps       ncg     rms          rms(c)
DAV:   1    -0.522804843698E+02   -0.14595E-03   -0.33013E-01 14168   0.304E+00    0.249E-01
DAV:   2    -0.522808887024E+02   -0.40433E-03   -0.85691E-03 15248   0.472E-01    0.165E-01
DAV:   3    -0.522807430087E+02    0.14569E-03   -0.63724E-04 15352   0.157E-01    0.190E-02
DAV:   4    -0.522807603529E+02   -0.17344E-04   -0.15860E-04 11148   0.677E-02
  17 F= -.52280760E+02 E0= -.52280814E+02  d E =-.871161E-02
 curvature:   0.17 expect dE= 0.106E-01 dE for cont linesearch  0.107E-03
 trial: gam= 0.00000 g(F)=  0.595E-01 g(S)=  0.423E-02 ort =-0.204E-02 (trialstep = 0.107E+00)
 search vector abs. value=  0.637E-01
 bond charge predicted
       N       E                     dE             d eps       ncg     rms          rms(c)
DAV:   1    -0.522864147471E+02   -0.56717E-02   -0.15386E-02 14416   0.715E-01    0.556E-02
DAV:   2    -0.522864355234E+02   -0.20776E-04   -0.66999E-04 14576   0.145E-01
  18 F= -.52286436E+02 E0= -.52286489E+02  d E =-.567517E-02
 trial-energy change:   -0.005675  1 .order   -0.005712   -0.006792   -0.004631
 step:   0.3350(harm=  0.3350)  dis= 0.00620  next Energy=   -52.291435 (dE=-0.107E-01)
 bond charge predicted
       N       E                     dE             d eps       ncg     rms          rms(c)
DAV:   1    -0.522907755633E+02   -0.43608E-02   -0.69498E-02 14616   0.152E+00    0.120E-01
DAV:   2    -0.522908267009E+02   -0.51138E-04   -0.26713E-03 14968   0.291E-01    0.879E-02
DAV:   3    -0.522907029480E+02    0.12375E-03   -0.18561E-04 15484   0.136E-01    0.457E-03
DAV:   4    -0.522907173050E+02   -0.14357E-04   -0.14022E-04  9304   0.594E-02
  19 F= -.52290717E+02 E0= -.52290771E+02  d E =-.995695E-02
 curvature:  -0.17 expect dE=-0.392E-03 dE for cont linesearch -0.748E-04
 trial: gam= 0.00000 g(F)=  0.169E-02 g(S)=  0.650E-03 ort =-0.533E-02 (trialstep = 0.152E+00)
 search vector abs. value=  0.234E-02
 reached required accuracy - stopping structural energy minimisation
