  18  18   1   0
  0.5898256E+01  0.2852132E-09  0.5897177E-09  0.6337950E-09  0.5000000E-15
  1.000000000000000E-004
  CAR 
 unknown system                          
     14.43621752    -13.38732329  301     -2.39181084      1.00000000
    -13.387  0.0000E+00  0.0000E+00  0.0000E+00  0.0000E+00
    -13.295  0.0000E+00  0.0000E+00  0.0000E+00  0.0000E+00
    -13.202  0.0000E+00  0.0000E+00  0.0000E+00  0.0000E+00
    -13.109  0.0000E+00  0.0000E+00  0.0000E+00  0.0000E+00
    -13.016  0.0000E+00  0.0000E+00  0.0000E+00  0.0000E+00
    -12.924  0.0000E+00  0.0000E+00  0.0000E+00  0.0000E+00
    -12.831  0.0000E+00  0.0000E+00  0.0000E+00  0.0000E+00
    -12.738  0.0000E+00  0.0000E+00  0.0000E+00  0.0000E+00
    -12.645  0.0000E+00  0.0000E+00  0.0000E+00  0.0000E+00
    -12.553  0.0000E+00  0.0000E+00  0.0000E+00  0.0000E+00
    -12.460  0.0000E+00  0.0000E+00  0.0000E+00  0.0000E+00
    -12.367  0.0000E+00  0.0000E+00  0.0000E+00  0.0000E+00
    -12.274  0.0000E+00  0.0000E+00  0.0000E+00  0.0000E+00
    -12.182  0.0000E+00  0.0000E+00  0.0000E+00  0.0000E+00
    -12.089  0.1252E-02  0.1257E-02  0.1408E-04  0.1417E-04
    -11.996  0.9904E-02  0.9904E-02  0.6213E-03  0.6215E-03
    -11.903  0.9898E-02  0.9898E-02  0.1540E-02  0.1540E-02
    -11.811  0.7568E-02  0.7566E-02  0.2411E-02  0.2411E-02
    -11.718  0.7015E-02  0.7037E-02  0.2844E-02  0.2845E-02
    -11.625  0.1314E-01  0.1314E-01  0.3883E-02  0.3883E-02
    -11.532  0.1313E-01  0.1313E-01  0.5101E-02  0.5102E-02
    -11.440  0.9184E-02  0.9181E-02  0.6226E-02  0.6226E-02
    -11.347  0.6614E-02  0.6614E-02  0.6895E-02  0.6895E-02
    -11.254  0.6614E-02  0.6614E-02  0.7508E-02  0.7509E-02
    -11.161  0.6613E-02  0.6613E-02  0.8122E-02  0.8122E-02
    -11.069  0.6349E-02  0.6348E-02  0.8730E-02  0.8731E-02
    -10.976  0.5357E-02  0.5357E-02  0.9262E-02  0.9262E-02
    -10.883  0.5357E-02  0.5357E-02  0.9759E-02  0.9759E-02
    -10.790  0.5356E-02  0.5356E-02  0.1026E-01  0.1026E-01
    -10.698  0.4999E-02  0.4998E-02  0.1075E-01  0.1075E-01
    -10.605  0.4094E-02  0.4094E-02  0.1116E-01  0.1116E-01
    -10.512  0.4094E-02  0.4094E-02  0.1154E-01  0.1154E-01
    -10.419  0.4094E-02  0.4094E-02  0.1192E-01  0.1192E-01
    -10.327  0.4093E-02  0.4093E-02  0.1230E-01  0.1230E-01
    -10.234  0.4542E-02  0.4542E-02  0.1269E-01  0.1269E-01
    -10.141  0.6993E-02  0.6995E-02  0.1321E-01  0.1321E-01
    -10.048  0.1158E-01  0.1158E-01  0.1406E-01  0.1406E-01
     -9.956  0.1473E-01  0.1473E-01  0.1530E-01  0.1531E-01
     -9.863  0.1352E-01  0.1352E-01  0.1665E-01  0.1665E-01
     -9.770  0.1060E-01  0.1060E-01  0.1776E-01  0.1776E-01
     -9.678  0.9689E-02  0.9689E-02  0.1868E-01  0.1868E-01
     -9.585  0.9607E-02  0.9607E-02  0.1957E-01  0.1957E-01
     -9.492  0.1433E-01  0.1434E-01  0.2069E-01  0.2069E-01
     -9.399  0.1647E-01  0.1647E-01  0.2221E-01  0.2221E-01
     -9.307  0.1528E-01  0.1528E-01  0.2368E-01  0.2369E-01
     -9.214  0.1602E-01  0.1602E-01  0.2513E-01  0.2513E-01
     -9.121  0.1691E-01  0.1691E-01  0.2666E-01  0.2666E-01
     -9.028  0.1648E-01  0.1648E-01  0.2823E-01  0.2823E-01
     -8.936  0.1576E-01  0.1576E-01  0.2968E-01  0.2968E-01
     -8.843  0.3228E-01  0.3230E-01  0.3188E-01  0.3188E-01
     -8.750  0.2775E-01  0.2774E-01  0.3483E-01  0.3483E-01
     -8.657  0.2767E-01  0.2767E-01  0.3726E-01  0.3726E-01
     -8.565  0.3311E-01  0.3311E-01  0.4006E-01  0.4006E-01
     -8.472  0.3393E-01  0.3393E-01  0.4326E-01  0.4326E-01
     -8.379  0.2792E-01  0.2792E-01  0.4609E-01  0.4609E-01
     -8.286  0.3326E-01  0.3326E-01  0.4882E-01  0.4883E-01
     -8.194  0.3722E-01  0.3722E-01  0.5215E-01  0.5215E-01
     -8.101  0.4993E-01  0.4991E-01  0.5641E-01  0.5641E-01
     -8.008  0.4647E-01  0.4647E-01  0.6036E-01  0.6036E-01
     -7.915  0.3073E-01  0.3073E-01  0.6358E-01  0.6358E-01
     -7.823  0.2831E-01  0.2830E-01  0.6671E-01  0.6671E-01
     -7.730  0.1470E-01  0.1467E-01  0.6848E-01  0.6848E-01
     -7.637  0.5057E-01  0.5058E-01  0.7239E-01  0.7239E-01
     -7.544  0.1966E-01  0.1966E-01  0.7858E-01  0.7858E-01
     -7.452  0.1077E-01  0.1077E-01  0.8006E-01  0.8006E-01
     -7.359  0.3283E-02  0.3282E-02  0.8071E-01  0.8071E-01
     -7.266  0.4124E-05  0.4207E-05  0.8081E-01  0.8081E-01
     -7.173  0.1536E-02  0.1536E-02  0.8091E-01  0.8091E-01
     -7.081  0.2366E-02  0.2366E-02  0.8109E-01  0.8109E-01
     -6.988  0.2558E-02  0.2558E-02  0.8133E-01  0.8133E-01
     -6.895  0.2558E-02  0.2558E-02  0.8156E-01  0.8156E-01
     -6.802  0.2558E-02  0.2558E-02  0.8180E-01  0.8180E-01
     -6.710  0.2558E-02  0.2558E-02  0.8204E-01  0.8204E-01
     -6.617  0.2558E-02  0.2558E-02  0.8228E-01  0.8228E-01
     -6.524  0.2558E-02  0.2558E-02  0.8251E-01  0.8251E-01
     -6.431  0.2558E-02  0.2558E-02  0.8275E-01  0.8275E-01
     -6.339  0.2558E-02  0.2558E-02  0.8299E-01  0.8299E-01
     -6.246  0.2558E-02  0.2558E-02  0.8323E-01  0.8323E-01
     -6.153  0.2558E-02  0.2558E-02  0.8346E-01  0.8346E-01
     -6.060  0.2558E-02  0.2558E-02  0.8370E-01  0.8370E-01
     -5.968  0.2558E-02  0.2558E-02  0.8394E-01  0.8394E-01
     -5.875  0.2558E-02  0.2558E-02  0.8417E-01  0.8417E-01
     -5.782  0.2558E-02  0.2558E-02  0.8441E-01  0.8441E-01
     -5.689  0.2559E-02  0.2558E-02  0.8465E-01  0.8465E-01
     -5.597  0.2559E-02  0.2559E-02  0.8489E-01  0.8489E-01
     -5.504  0.2559E-02  0.2559E-02  0.8512E-01  0.8512E-01
     -5.411  0.2559E-02  0.2559E-02  0.8536E-01  0.8536E-01
     -5.318  0.2142E-02  0.2142E-02  0.8559E-01  0.8559E-01
     -5.226  0.2142E-02  0.2142E-02  0.8579E-01  0.8579E-01
     -5.133  0.2142E-02  0.2142E-02  0.8599E-01  0.8599E-01
     -5.040  0.1798E-02  0.1798E-02  0.8617E-01  0.8617E-01
     -4.948  0.1798E-02  0.1798E-02  0.8634E-01  0.8634E-01
     -4.855  0.1798E-02  0.1798E-02  0.8650E-01  0.8650E-01
     -4.762  0.1798E-02  0.1798E-02  0.8667E-01  0.8667E-01
     -4.669  0.1798E-02  0.1798E-02  0.8684E-01  0.8684E-01
     -4.577  0.1798E-02  0.1798E-02  0.8700E-01  0.8700E-01
     -4.484  0.1798E-02  0.1798E-02  0.8717E-01  0.8717E-01
     -4.391  0.1798E-02  0.1798E-02  0.8734E-01  0.8734E-01
     -4.298  0.1798E-02  0.1798E-02  0.8750E-01  0.8750E-01
     -4.206  0.1798E-02  0.1798E-02  0.8767E-01  0.8767E-01
     -4.113  0.1798E-02  0.1798E-02  0.8784E-01  0.8784E-01
     -4.020  0.1798E-02  0.1798E-02  0.8800E-01  0.8800E-01
     -3.927  0.1798E-02  0.1798E-02  0.8817E-01  0.8817E-01
     -3.835  0.1798E-02  0.1798E-02  0.8834E-01  0.8834E-01
     -3.742  0.1798E-02  0.1798E-02  0.8850E-01  0.8850E-01
     -3.649  0.1798E-02  0.1798E-02  0.8867E-01  0.8867E-01
     -3.556  0.1798E-02  0.1798E-02  0.8884E-01  0.8884E-01
     -3.464  0.1798E-02  0.1798E-02  0.8900E-01  0.8900E-01
     -3.371  0.1798E-02  0.1798E-02  0.8917E-01  0.8917E-01
     -3.278  0.1798E-02  0.1798E-02  0.8934E-01  0.8934E-01
     -3.185  0.1798E-02  0.1798E-02  0.8950E-01  0.8950E-01
     -3.093  0.1798E-02  0.1798E-02  0.8967E-01  0.8967E-01
     -3.000  0.1798E-02  0.1798E-02  0.8984E-01  0.8984E-01
     -2.907  0.1798E-02  0.1798E-02  0.9000E-01  0.9000E-01
     -2.814  0.1798E-02  0.1798E-02  0.9017E-01  0.9017E-01
     -2.722  0.1798E-02  0.1798E-02  0.9034E-01  0.9034E-01
     -2.629  0.1798E-02  0.1798E-02  0.9050E-01  0.9050E-01
     -2.536  0.1682E-02  0.1682E-02  0.9067E-01  0.9067E-01
     -2.443  0.1652E-02  0.1652E-02  0.9082E-01  0.9082E-01
     -2.351  0.1652E-02  0.1652E-02  0.9098E-01  0.9098E-01
     -2.258  0.1546E-02  0.1546E-02  0.9113E-01  0.9113E-01
     -2.165  0.1513E-02  0.1513E-02  0.9127E-01  0.9127E-01
     -2.072  0.1513E-02  0.1513E-02  0.9141E-01  0.9141E-01
     -1.980  0.1513E-02  0.1513E-02  0.9155E-01  0.9155E-01
     -1.887  0.1513E-02  0.1513E-02  0.9169E-01  0.9169E-01
     -1.794  0.1513E-02  0.1513E-02  0.9183E-01  0.9183E-01
     -1.701  0.1513E-02  0.1513E-02  0.9197E-01  0.9197E-01
     -1.609  0.1513E-02  0.1513E-02  0.9211E-01  0.9211E-01
     -1.516  0.1513E-02  0.1513E-02  0.9225E-01  0.9225E-01
     -1.423  0.1513E-02  0.1513E-02  0.9239E-01  0.9239E-01
     -1.330  0.1513E-02  0.1513E-02  0.9253E-01  0.9253E-01
     -1.238  0.1513E-02  0.1513E-02  0.9267E-01  0.9267E-01
     -1.145  0.1513E-02  0.1513E-02  0.9281E-01  0.9281E-01
     -1.052  0.1513E-02  0.1513E-02  0.9295E-01  0.9295E-01
     -0.959  0.1513E-02  0.1513E-02  0.9309E-01  0.9309E-01
     -0.867  0.1513E-02  0.1513E-02  0.9323E-01  0.9323E-01
     -0.774  0.1513E-02  0.1513E-02  0.9337E-01  0.9337E-01
     -0.681  0.1513E-02  0.1513E-02  0.9351E-01  0.9351E-01
     -0.588  0.1513E-02  0.1513E-02  0.9365E-01  0.9365E-01
     -0.496  0.1513E-02  0.1513E-02  0.9380E-01  0.9380E-01
     -0.403  0.1513E-02  0.1513E-02  0.9394E-01  0.9394E-01
     -0.310  0.1513E-02  0.1513E-02  0.9408E-01  0.9408E-01
     -0.218  0.1513E-02  0.1513E-02  0.9422E-01  0.9422E-01
     -0.125  0.1513E-02  0.1513E-02  0.9436E-01  0.9436E-01
     -0.032  0.1513E-02  0.1513E-02  0.9450E-01  0.9450E-01
      0.061  0.1513E-02  0.1513E-02  0.9464E-01  0.9464E-01
      0.153  0.1513E-02  0.1513E-02  0.9478E-01  0.9478E-01
      0.246  0.1513E-02  0.1513E-02  0.9492E-01  0.9492E-01
      0.339  0.1513E-02  0.1513E-02  0.9506E-01  0.9506E-01
      0.432  0.1513E-02  0.1513E-02  0.9520E-01  0.9520E-01
      0.524  0.1513E-02  0.1513E-02  0.9534E-01  0.9534E-01
      0.617  0.1513E-02  0.1513E-02  0.9548E-01  0.9548E-01
      0.710  0.1513E-02  0.1513E-02  0.9562E-01  0.9562E-01
      0.803  0.5125E-02  0.5238E-02  0.9580E-01  0.9581E-01
      0.895  0.5308E-02  0.5423E-02  0.9630E-01  0.9631E-01
      0.988  0.5247E-02  0.5354E-02  0.9679E-01  0.9681E-01
      1.081  0.6245E-02  0.6352E-02  0.9728E-01  0.9731E-01
      1.174  0.6931E-02  0.7020E-02  0.9792E-01  0.9796E-01
      1.266  0.6094E-02  0.5970E-02  0.9854E-01  0.9858E-01
      1.359  0.4633E-02  0.4255E-02  0.9904E-01  0.9906E-01
      1.452  0.3663E-02  0.3766E-02  0.9940E-01  0.9942E-01
      1.545  0.5156E-02  0.5476E-02  0.9979E-01  0.9982E-01
      1.637  0.1150E-01  0.1176E-01  0.1006E+00  0.1006E+00
      1.730  0.1476E-01  0.1492E-01  0.1018E+00  0.1019E+00
      1.823  0.1574E-01  0.1573E-01  0.1032E+00  0.1033E+00
      1.916  0.1734E-01  0.1735E-01  0.1048E+00  0.1049E+00
      2.008  0.2663E-01  0.2700E-01  0.1068E+00  0.1069E+00
      2.101  0.2370E-01  0.2332E-01  0.1093E+00  0.1094E+00
      2.194  0.1865E-01  0.1815E-01  0.1112E+00  0.1113E+00
      2.287  0.2138E-01  0.2130E-01  0.1130E+00  0.1131E+00
      2.379  0.2653E-01  0.2662E-01  0.1152E+00  0.1153E+00
      2.472  0.2858E-01  0.2863E-01  0.1178E+00  0.1179E+00
      2.565  0.2824E-01  0.2806E-01  0.1205E+00  0.1205E+00
      2.658  0.2631E-01  0.2623E-01  0.1230E+00  0.1231E+00
      2.750  0.2350E-01  0.2359E-01  0.1253E+00  0.1254E+00
      2.843  0.2971E-01  0.2990E-01  0.1278E+00  0.1279E+00
      2.936  0.2705E-01  0.2670E-01  0.1305E+00  0.1306E+00
      3.029  0.2125E-01  0.2123E-01  0.1327E+00  0.1328E+00
      3.121  0.2133E-01  0.2142E-01  0.1347E+00  0.1347E+00
      3.214  0.2620E-01  0.2613E-01  0.1369E+00  0.1370E+00
      3.307  0.2399E-01  0.2390E-01  0.1393E+00  0.1394E+00
      3.400  0.1969E-01  0.1976E-01  0.1413E+00  0.1413E+00
      3.492  0.1323E-01  0.1329E-01  0.1427E+00  0.1428E+00
      3.585  0.1530E-01  0.1549E-01  0.1441E+00  0.1441E+00
      3.678  0.1680E-01  0.1703E-01  0.1455E+00  0.1456E+00
      3.771  0.2138E-01  0.2157E-01  0.1473E+00  0.1474E+00
      3.863  0.2036E-01  0.2042E-01  0.1492E+00  0.1493E+00
      3.956  0.2033E-01  0.2027E-01  0.1511E+00  0.1512E+00
      4.049  0.2032E-01  0.2017E-01  0.1530E+00  0.1531E+00
      4.142  0.1741E-01  0.1705E-01  0.1548E+00  0.1549E+00
      4.234  0.1548E-01  0.1534E-01  0.1563E+00  0.1564E+00
      4.327  0.1343E-01  0.1332E-01  0.1577E+00  0.1577E+00
      4.420  0.1542E-01  0.1544E-01  0.1590E+00  0.1590E+00
      4.512  0.2073E-01  0.2120E-01  0.1606E+00  0.1607E+00
      4.605  0.2421E-01  0.2450E-01  0.1628E+00  0.1628E+00
      4.698  0.2587E-01  0.2592E-01  0.1653E+00  0.1654E+00
      4.791  0.2251E-01  0.2263E-01  0.1674E+00  0.1675E+00
      4.883  0.2740E-01  0.2662E-01  0.1699E+00  0.1700E+00
      4.976  0.1553E-01  0.1546E-01  0.1718E+00  0.1718E+00
      5.069  0.1387E-01  0.1394E-01  0.1731E+00  0.1731E+00
      5.162  0.1856E-01  0.1861E-01  0.1746E+00  0.1747E+00
      5.254  0.1939E-01  0.1938E-01  0.1764E+00  0.1764E+00
      5.347  0.1918E-01  0.1919E-01  0.1782E+00  0.1782E+00
      5.440  0.1767E-01  0.1760E-01  0.1799E+00  0.1799E+00
      5.533  0.1552E-01  0.1553E-01  0.1815E+00  0.1815E+00
      5.625  0.1634E-01  0.1639E-01  0.1829E+00  0.1830E+00
      5.718  0.1776E-01  0.1783E-01  0.1845E+00  0.1845E+00
      5.811  0.1968E-01  0.1980E-01  0.1862E+00  0.1863E+00
      5.904  0.2234E-01  0.2241E-01  0.1882E+00  0.1882E+00
      5.996  0.2042E-01  0.2042E-01  0.1902E+00  0.1903E+00
      6.089  0.1894E-01  0.1894E-01  0.1920E+00  0.1921E+00
      6.182  0.1788E-01  0.1793E-01  0.1937E+00  0.1938E+00
      6.275  0.1678E-01  0.1686E-01  0.1953E+00  0.1954E+00
      6.367  0.1660E-01  0.1645E-01  0.1969E+00  0.1969E+00
      6.460  0.1322E-01  0.1309E-01  0.1983E+00  0.1983E+00
      6.553  0.1485E-01  0.1500E-01  0.1995E+00  0.1995E+00
      6.646  0.1749E-01  0.1761E-01  0.2010E+00  0.2011E+00
      6.738  0.1886E-01  0.1878E-01  0.2027E+00  0.2028E+00
      6.831  0.1510E-01  0.1516E-01  0.2042E+00  0.2043E+00
      6.924  0.1605E-01  0.1610E-01  0.2057E+00  0.2057E+00
      7.017  0.1739E-01  0.1745E-01  0.2072E+00  0.2072E+00
      7.109  0.1632E-01  0.1619E-01  0.2088E+00  0.2088E+00
      7.202  0.1227E-01  0.1221E-01  0.2101E+00  0.2101E+00
      7.295  0.1141E-01  0.1173E-01  0.2112E+00  0.2112E+00
      7.388  0.1422E-01  0.1430E-01  0.2124E+00  0.2124E+00
      7.480  0.1974E-01  0.1987E-01  0.2140E+00  0.2140E+00
      7.573  0.2401E-01  0.2419E-01  0.2160E+00  0.2161E+00
      7.666  0.2429E-01  0.2423E-01  0.2183E+00  0.2184E+00
      7.759  0.2091E-01  0.2106E-01  0.2204E+00  0.2204E+00
      7.851  0.1973E-01  0.1971E-01  0.2222E+00  0.2223E+00
      7.944  0.2058E-01  0.2058E-01  0.2241E+00  0.2242E+00
      8.037  0.2054E-01  0.2057E-01  0.2260E+00  0.2261E+00
      8.130  0.2088E-01  0.2090E-01  0.2279E+00  0.2280E+00
      8.222  0.2039E-01  0.2040E-01  0.2299E+00  0.2299E+00
      8.315  0.1969E-01  0.1980E-01  0.2317E+00  0.2318E+00
      8.408  0.1964E-01  0.1968E-01  0.2335E+00  0.2336E+00
      8.501  0.2080E-01  0.2057E-01  0.2354E+00  0.2355E+00
      8.593  0.1850E-01  0.1830E-01  0.2373E+00  0.2373E+00
      8.686  0.1482E-01  0.1467E-01  0.2388E+00  0.2388E+00
      8.779  0.1485E-01  0.1494E-01  0.2401E+00  0.2401E+00
      8.872  0.2239E-01  0.2252E-01  0.2418E+00  0.2418E+00
      8.964  0.3453E-01  0.3453E-01  0.2445E+00  0.2445E+00
      9.057  0.1500E-01  0.1505E-01  0.2469E+00  0.2470E+00
      9.150  0.1823E-01  0.1823E-01  0.2485E+00  0.2485E+00
      9.242  0.2412E-01  0.2422E-01  0.2504E+00  0.2505E+00
      9.335  0.3043E-01  0.3057E-01  0.2530E+00  0.2530E+00
      9.428  0.2869E-01  0.2871E-01  0.2558E+00  0.2558E+00
      9.521  0.2455E-01  0.2458E-01  0.2582E+00  0.2583E+00
      9.613  0.2294E-01  0.2289E-01  0.2604E+00  0.2605E+00
      9.706  0.2111E-01  0.2108E-01  0.2625E+00  0.2625E+00
      9.799  0.2055E-01  0.2053E-01  0.2644E+00  0.2644E+00
      9.892  0.1776E-01  0.1778E-01  0.2661E+00  0.2662E+00
      9.984  0.1926E-01  0.1933E-01  0.2678E+00  0.2679E+00
     10.077  0.2136E-01  0.2139E-01  0.2697E+00  0.2698E+00
     10.170  0.1993E-01  0.1990E-01  0.2717E+00  0.2717E+00
     10.263  0.1957E-01  0.1965E-01  0.2735E+00  0.2735E+00
     10.355  0.2135E-01  0.2144E-01  0.2754E+00  0.2755E+00
     10.448  0.2295E-01  0.2299E-01  0.2774E+00  0.2775E+00
     10.541  0.2514E-01  0.2579E-01  0.2796E+00  0.2797E+00
     10.634  0.2400E-01  0.2386E-01  0.2820E+00  0.2820E+00
     10.726  0.2122E-01  0.2118E-01  0.2840E+00  0.2841E+00
     10.819  0.1996E-01  0.2000E-01  0.2859E+00  0.2860E+00
     10.912  0.2003E-01  0.2006E-01  0.2878E+00  0.2879E+00
     11.005  0.2056E-01  0.2060E-01  0.2897E+00  0.2897E+00
     11.097  0.2312E-01  0.2323E-01  0.2917E+00  0.2918E+00
     11.190  0.2304E-01  0.2306E-01  0.2939E+00  0.2940E+00
     11.283  0.2592E-01  0.2588E-01  0.2961E+00  0.2962E+00
     11.376  0.2364E-01  0.2363E-01  0.2984E+00  0.2985E+00
     11.468  0.2248E-01  0.2236E-01  0.3006E+00  0.3007E+00
     11.561  0.2012E-01  0.2000E-01  0.3026E+00  0.3026E+00
     11.654  0.1821E-01  0.1813E-01  0.3043E+00  0.3044E+00
     11.747  0.1821E-01  0.1821E-01  0.3060E+00  0.3061E+00
     11.839  0.1890E-01  0.1894E-01  0.3077E+00  0.3078E+00
     11.932  0.1902E-01  0.1913E-01  0.3096E+00  0.3096E+00
     12.025  0.1785E-01  0.1775E-01  0.3113E+00  0.3114E+00
     12.118  0.1516E-01  0.1511E-01  0.3128E+00  0.3129E+00
     12.210  0.1281E-01  0.1282E-01  0.3141E+00  0.3142E+00
     12.303  0.1362E-01  0.1385E-01  0.3153E+00  0.3154E+00
     12.396  0.1581E-01  0.1578E-01  0.3167E+00  0.3168E+00
     12.489  0.1334E-01  0.1300E-01  0.3181E+00  0.3182E+00
     12.581  0.1103E-01  0.1099E-01  0.3192E+00  0.3193E+00
     12.674  0.1108E-01  0.1109E-01  0.3202E+00  0.3203E+00
     12.767  0.1347E-01  0.1359E-01  0.3214E+00  0.3214E+00
     12.860  0.8455E-02  0.7978E-02  0.3225E+00  0.3225E+00
     12.952  0.2953E-02  0.2875E-02  0.3230E+00  0.3230E+00
     13.045  0.1222E-02  0.1160E-02  0.3232E+00  0.3232E+00
     13.138  0.5364E-04  0.4234E-04  0.3232E+00  0.3232E+00
     13.231  0.0000E+00  0.0000E+00  0.3232E+00  0.3232E+00
     13.323  0.0000E+00  0.0000E+00  0.3232E+00  0.3232E+00
     13.416  0.0000E+00  0.0000E+00  0.3232E+00  0.3232E+00
     13.509  0.0000E+00  0.0000E+00  0.3232E+00  0.3232E+00
     13.602  0.0000E+00  0.0000E+00  0.3232E+00  0.3232E+00
     13.694  0.0000E+00  0.0000E+00  0.3232E+00  0.3232E+00
     13.787  0.0000E+00  0.0000E+00  0.3232E+00  0.3232E+00
     13.880  0.0000E+00  0.0000E+00  0.3232E+00  0.3232E+00
     13.972  0.0000E+00  0.0000E+00  0.3232E+00  0.3232E+00
     14.065  0.0000E+00  0.0000E+00  0.3232E+00  0.3232E+00
     14.158  0.0000E+00  0.0000E+00  0.3232E+00  0.3232E+00
     14.251  0.0000E+00  0.0000E+00  0.3232E+00  0.3232E+00
     14.343  0.0000E+00  0.0000E+00  0.3232E+00  0.3232E+00
     14.436  0.0000E+00  0.0000E+00  0.3232E+00  0.3232E+00
     14.43621752    -13.38732329  301     -2.39181084      1.00000000
    -13.387  0.0000E+00  0.0000E+00  0.0000E+00  0.0000E+00  0.0000E+00  0.0000E+00  0.0000E+00  0.0000E+00  0.0000E+00  0.0000E+00  0.0000E+00  0.0000E+00  0.0000E+00  0.0000E+00  0.0000E+00  0.0000E+00  0.0000E+00  0.0000E+00
    -13.295  0.0000E+00  0.0000E+00  0.0000E+00  0.0000E+00  0.0000E+00  0.0000E+00  0.0000E+00  0.0000E+00  0.0000E+00  0.0000E+00  0.0000E+00  0.0000E+00  0.0000E+00  0.0000E+00  0.0000E+00  0.0000E+00  0.0000E+00  0.0000E+00
    -13.202  0.0000E+00  0.0000E+00  0.0000E+00  0.0000E+00  0.0000E+00  0.0000E+00  0.0000E+00  0.0000E+00  0.0000E+00  0.0000E+00  0.0000E+00  0.0000E+00  0.0000E+00  0.0000E+00  0.0000E+00  0.0000E+00  0.0000E+00  0.0000E+00
    -13.109  0.0000E+00  0.0000E+00  0.0000E+00  0.0000E+00  0.0000E+00  0.0000E+00  0.0000E+00  0.0000E+00  0.0000E+00  0.0000E+00  0.0000E+00  0.0000E+00  0.0000E+00  0.0000E+00  0.0000E+00  0.0000E+00  0.0000E+00  0.0000E+00
    -13.016  0.0000E+00  0.0000E+00  0.0000E+00  0.0000E+00  0.0000E+00  0.0000E+00  0.0000E+00  0.0000E+00  0.0000E+00  0.0000E+00  0.0000E+00  0.0000E+00  0.0000E+00  0.0000E+00  0.0000E+00  0.0000E+00  0.0000E+00  0.0000E+00
    -12.924  0.0000E+00  0.0000E+00  0.0000E+00  0.0000E+00  0.0000E+00  0.0000E+00  0.0000E+00  0.0000E+00  0.0000E+00  0.0000E+00  0.0000E+00  0.0000E+00  0.0000E+00  0.0000E+00  0.0000E+00  0.0000E+00  0.0000E+00  0.0000E+00
    -12.831  0.0000E+00  0.0000E+00  0.0000E+00  0.0000E+00  0.0000E+00  0.0000E+00  0.0000E+00  0.0000E+00  0.0000E+00  0.0000E+00  0.0000E+00  0.0000E+00  0.0000E+00  0.0000E+00  0.0000E+00  0.0000E+00  0.0000E+00  0.0000E+00
    -12.738  0.0000E+00  0.0000E+00  0.0000E+00  0.0000E+00  0.0000E+00  0.0000E+00  0.0000E+00  0.0000E+00  0.0000E+00  0.0000E+00  0.0000E+00  0.0000E+00  0.0000E+00  0.0000E+00  0.0000E+00  0.0000E+00  0.0000E+00  0.0000E+00
    -12.645  0.0000E+00  0.0000E+00  0.0000E+00  0.0000E+00  0.0000E+00  0.0000E+00  0.0000E+00  0.0000E+00  0.0000E+00  0.0000E+00  0.0000E+00  0.0000E+00  0.0000E+00  0.0000E+00  0.0000E+00  0.0000E+00  0.0000E+00  0.0000E+00
    -12.553  0.0000E+00  0.0000E+00  0.0000E+00  0.0000E+00  0.0000E+00  0.0000E+00  0.0000E+00  0.0000E+00  0.0000E+00  0.0000E+00  0.0000E+00  0.0000E+00  0.0000E+00  0.0000E+00  0.0000E+00  0.0000E+00  0.0000E+00  0.0000E+00
    -12.460  0.0000E+00  0.0000E+00  0.0000E+00  0.0000E+00  0.0000E+00  0.0000E+00  0.0000E+00  0.0000E+00  0.0000E+00  0.0000E+00  0.0000E+00  0.0000E+00  0.0000E+00  0.0000E+00  0.0000E+00  0.0000E+00  0.0000E+00  0.0000E+00
    -12.367  0.0000E+00  0.0000E+00  0.0000E+00  0.0000E+00  0.0000E+00  0.0000E+00  0.0000E+00  0.0000E+00  0.0000E+00  0.0000E+00  0.0000E+00  0.0000E+00  0.0000E+00  0.0000E+00  0.0000E+00  0.0000E+00  0.0000E+00  0.0000E+00
    -12.274  0.0000E+00  0.0000E+00  0.0000E+00  0.0000E+00  0.0000E+00  0.0000E+00  0.0000E+00  0.0000E+00  0.0000E+00  0.0000E+00  0.0000E+00  0.0000E+00  0.0000E+00  0.0000E+00  0.0000E+00  0.0000E+00  0.0000E+00  0.0000E+00
    -12.182  0.0000E+00  0.0000E+00  0.0000E+00  0.0000E+00  0.0000E+00  0.0000E+00  0.0000E+00  0.0000E+00  0.0000E+00  0.0000E+00  0.0000E+00  0.0000E+00  0.0000E+00  0.0000E+00  0.0000E+00  0.0000E+00  0.0000E+00  0.0000E+00
    -12.089  0.3429E-03  0.3440E-03  0.9122E-05  0.9151E-05  0.6729E-06  0.6756E-06  0.5561E-05  0.5578E-05  0.0000E+00  0.0000E+00  0.0000E+00  0.0000E+00  0.0000E+00  0.0000E+00  0.0000E+00  0.0000E+00  0.0000E+00  0.0000E+00
    -11.996  0.2024E-02  0.2024E-02  0.6399E-04  0.6398E-04  0.4241E-05  0.4244E-05  0.3531E-04  0.3532E-04  0.0000E+00  0.0000E+00  0.0000E+00  0.0000E+00  0.0000E+00  0.0000E+00  0.0000E+00  0.0000E+00  0.0000E+00  0.0000E+00
    -11.903  0.2045E-02  0.2045E-02  0.6469E-04  0.6468E-04  0.4304E-05  0.4307E-05  0.3606E-04  0.3607E-04  0.0000E+00  0.0000E+00  0.0000E+00  0.0000E+00  0.0000E+00  0.0000E+00  0.0000E+00  0.0000E+00  0.0000E+00  0.0000E+00
    -11.811  0.1531E-02  0.1530E-02  0.4977E-04  0.4975E-04  0.3297E-05  0.3298E-05  0.2770E-04  0.2770E-04  0.0000E+00  0.0000E+00  0.0000E+00  0.0000E+00  0.0000E+00  0.0000E+00  0.0000E+00  0.0000E+00  0.0000E+00  0.0000E+00
    -11.718  0.1182E-02  0.1184E-02  0.3927E-04  0.3935E-04  0.2142E-05  0.2146E-05  0.2159E-04  0.2163E-04  0.0000E+00  0.0000E+00  0.0000E+00  0.0000E+00  0.0000E+00  0.0000E+00  0.0000E+00  0.0000E+00  0.0000E+00  0.0000E+00
    -11.625  0.1725E-02  0.1725E-02  0.6161E-04  0.6161E-04  0.2994E-05  0.2995E-05  0.3181E-04  0.3182E-04  0.0000E+00  0.0000E+00  0.0000E+00  0.0000E+00  0.0000E+00  0.0000E+00  0.0000E+00  0.0000E+00  0.0000E+00  0.0000E+00
    -11.532  0.1753E-02  0.1754E-02  0.6250E-04  0.6250E-04  0.3080E-05  0.3081E-05  0.3270E-04  0.3271E-04  0.0000E+00  0.0000E+00  0.0000E+00  0.0000E+00  0.0000E+00  0.0000E+00  0.0000E+00  0.0000E+00  0.0000E+00  0.0000E+00
    -11.440  0.1423E-02  0.1423E-02  0.4880E-04  0.4879E-04  0.2695E-05  0.2695E-05  0.2714E-04  0.2714E-04  0.0000E+00  0.0000E+00  0.0000E+00  0.0000E+00  0.0000E+00  0.0000E+00  0.0000E+00  0.0000E+00  0.0000E+00  0.0000E+00
    -11.347  0.1251E-02  0.1251E-02  0.4104E-04  0.4104E-04  0.2428E-05  0.2429E-05  0.2422E-04  0.2422E-04  0.0000E+00  0.0000E+00  0.0000E+00  0.0000E+00  0.0000E+00  0.0000E+00  0.0000E+00  0.0000E+00  0.0000E+00  0.0000E+00
    -11.254  0.1277E-02  0.1277E-02  0.4177E-04  0.4177E-04  0.2485E-05  0.2486E-05  0.2489E-04  0.2490E-04  0.0000E+00  0.0000E+00  0.0000E+00  0.0000E+00  0.0000E+00  0.0000E+00  0.0000E+00  0.0000E+00  0.0000E+00  0.0000E+00
    -11.161  0.1303E-02  0.1303E-02  0.4250E-04  0.4250E-04  0.2542E-05  0.2543E-05  0.2557E-04  0.2557E-04  0.0000E+00  0.0000E+00  0.0000E+00  0.0000E+00  0.0000E+00  0.0000E+00  0.0000E+00  0.0000E+00  0.0000E+00  0.0000E+00
    -11.069  0.1297E-02  0.1297E-02  0.4209E-04  0.4209E-04  0.2526E-05  0.2527E-05  0.2577E-04  0.2578E-04  0.0000E+00  0.0000E+00  0.0000E+00  0.0000E+00  0.0000E+00  0.0000E+00  0.0000E+00  0.0000E+00  0.0000E+00  0.0000E+00
    -10.976  0.1242E-02  0.1242E-02  0.3913E-04  0.3913E-04  0.2427E-05  0.2427E-05  0.2585E-04  0.2586E-04  0.0000E+00  0.0000E+00  0.0000E+00  0.0000E+00  0.0000E+00  0.0000E+00  0.0000E+00  0.0000E+00  0.0000E+00  0.0000E+00
    -10.883  0.1278E-02  0.1279E-02  0.4007E-04  0.4007E-04  0.2501E-05  0.2502E-05  0.2676E-04  0.2677E-04  0.0000E+00  0.0000E+00  0.0000E+00  0.0000E+00  0.0000E+00  0.0000E+00  0.0000E+00  0.0000E+00  0.0000E+00  0.0000E+00
    -10.790  0.1315E-02  0.1315E-02  0.4101E-04  0.4101E-04  0.2576E-05  0.2576E-05  0.2767E-04  0.2767E-04  0.0000E+00  0.0000E+00  0.0000E+00  0.0000E+00  0.0000E+00  0.0000E+00  0.0000E+00  0.0000E+00  0.0000E+00  0.0000E+00
    -10.698  0.1352E-02  0.1352E-02  0.4147E-04  0.4147E-04  0.2647E-05  0.2647E-05  0.2865E-04  0.2865E-04  0.0000E+00  0.0000E+00  0.0000E+00  0.0000E+00  0.0000E+00  0.0000E+00  0.0000E+00  0.0000E+00  0.0000E+00  0.0000E+00
    -10.605  0.1396E-02  0.1396E-02  0.4150E-04  0.4150E-04  0.2785E-05  0.2786E-05  0.3028E-04  0.3029E-04  0.0000E+00  0.0000E+00  0.0000E+00  0.0000E+00  0.0000E+00  0.0000E+00  0.0000E+00  0.0000E+00  0.0000E+00  0.0000E+00
    -10.512  0.1443E-02  0.1444E-02  0.4273E-04  0.4273E-04  0.2883E-05  0.2884E-05  0.3145E-04  0.3145E-04  0.0000E+00  0.0000E+00  0.0000E+00  0.0000E+00  0.0000E+00  0.0000E+00  0.0000E+00  0.0000E+00  0.0000E+00  0.0000E+00
    -10.419  0.1491E-02  0.1491E-02  0.4396E-04  0.4396E-04  0.2980E-05  0.2981E-05  0.3262E-04  0.3262E-04  0.0000E+00  0.0000E+00  0.0000E+00  0.0000E+00  0.0000E+00  0.0000E+00  0.0000E+00  0.0000E+00  0.0000E+00  0.0000E+00
    -10.327  0.1538E-02  0.1539E-02  0.4519E-04  0.4518E-04  0.3078E-05  0.3078E-05  0.3378E-04  0.3379E-04  0.0000E+00  0.0000E+00  0.0000E+00  0.0000E+00  0.0000E+00  0.0000E+00  0.0000E+00  0.0000E+00  0.0000E+00  0.0000E+00
    -10.234  0.4488E-02  0.4493E-02  0.9424E-04  0.9431E-04  0.9285E-05  0.9292E-05  0.8104E-04  0.8110E-04  0.0000E+00  0.0000E+00  0.0000E+00  0.0000E+00  0.0000E+00  0.0000E+00  0.0000E+00  0.0000E+00  0.0000E+00  0.0000E+00
    -10.141  0.2044E-01  0.2044E-01  0.3576E-03  0.3577E-03  0.4288E-04  0.4288E-04  0.3350E-03  0.3351E-03  0.0000E+00  0.0000E+00  0.0000E+00  0.0000E+00  0.0000E+00  0.0000E+00  0.0000E+00  0.0000E+00  0.0000E+00  0.0000E+00
    -10.048  0.5229E-01  0.5230E-01  0.8902E-03  0.8903E-03  0.1131E-03  0.1131E-03  0.8512E-03  0.8512E-03  0.0000E+00  0.0000E+00  0.0000E+00  0.0000E+00  0.0000E+00  0.0000E+00  0.0000E+00  0.0000E+00  0.0000E+00  0.0000E+00
     -9.956  0.7545E-01  0.7544E-01  0.1276E-02  0.1276E-02  0.1630E-03  0.1629E-03  0.1236E-02  0.1236E-02  0.0000E+00  0.0000E+00  0.0000E+00  0.0000E+00  0.0000E+00  0.0000E+00  0.0000E+00  0.0000E+00  0.0000E+00  0.0000E+00
     -9.863  0.6814E-01  0.6812E-01  0.1160E-02  0.1160E-02  0.1466E-03  0.1465E-03  0.1138E-02  0.1138E-02  0.0000E+00  0.0000E+00  0.0000E+00  0.0000E+00  0.0000E+00  0.0000E+00  0.0000E+00  0.0000E+00  0.0000E+00  0.0000E+00
     -9.770  0.4653E-01  0.4652E-01  0.8113E-03  0.8110E-03  0.9996E-04  0.9991E-04  0.8046E-03  0.8044E-03  0.0000E+00  0.0000E+00  0.0000E+00  0.0000E+00  0.0000E+00  0.0000E+00  0.0000E+00  0.0000E+00  0.0000E+00  0.0000E+00
     -9.678  0.3989E-01  0.3989E-01  0.7068E-03  0.7067E-03  0.8559E-04  0.8557E-04  0.7074E-03  0.7073E-03  0.0000E+00  0.0000E+00  0.0000E+00  0.0000E+00  0.0000E+00  0.0000E+00  0.0000E+00  0.0000E+00  0.0000E+00  0.0000E+00
     -9.585  0.3949E-01  0.3948E-01  0.7042E-03  0.7041E-03  0.8467E-04  0.8464E-04  0.7094E-03  0.7093E-03  0.0000E+00  0.0000E+00  0.0000E+00  0.0000E+00  0.0000E+00  0.0000E+00  0.0000E+00  0.0000E+00  0.0000E+00  0.0000E+00
     -9.492  0.5735E-01  0.5738E-01  0.1041E-02  0.1042E-02  0.1228E-03  0.1228E-03  0.1017E-02  0.1017E-02  0.0000E+00  0.0000E+00  0.0000E+00  0.0000E+00  0.0000E+00  0.0000E+00  0.0000E+00  0.0000E+00  0.0000E+00  0.0000E+00
     -9.399  0.6368E-01  0.6368E-01  0.1202E-02  0.1202E-02  0.1342E-03  0.1342E-03  0.1150E-02  0.1150E-02  0.0000E+00  0.0000E+00  0.0000E+00  0.0000E+00  0.0000E+00  0.0000E+00  0.0000E+00  0.0000E+00  0.0000E+00  0.0000E+00
     -9.307  0.5789E-01  0.5789E-01  0.1141E-02  0.1141E-02  0.1153E-03  0.1153E-03  0.1079E-02  0.1078E-02  0.0000E+00  0.0000E+00  0.0000E+00  0.0000E+00  0.0000E+00  0.0000E+00  0.0000E+00  0.0000E+00  0.0000E+00  0.0000E+00
     -9.214  0.6033E-01  0.6032E-01  0.1221E-02  0.1221E-02  0.1158E-03  0.1159E-03  0.1139E-02  0.1139E-02  0.0000E+00  0.0000E+00  0.0000E+00  0.0000E+00  0.0000E+00  0.0000E+00  0.0000E+00  0.0000E+00  0.0000E+00  0.0000E+00
     -9.121  0.6409E-01  0.6408E-01  0.1323E-02  0.1323E-02  0.1190E-03  0.1190E-03  0.1220E-02  0.1220E-02  0.0000E+00  0.0000E+00  0.0000E+00  0.0000E+00  0.0000E+00  0.0000E+00  0.0000E+00  0.0000E+00  0.0000E+00  0.0000E+00
     -9.028  0.6297E-01  0.6296E-01  0.1298E-02  0.1298E-02  0.1177E-03  0.1177E-03  0.1212E-02  0.1212E-02  0.0000E+00  0.0000E+00  0.0000E+00  0.0000E+00  0.0000E+00  0.0000E+00  0.0000E+00  0.0000E+00  0.0000E+00  0.0000E+00
     -8.936  0.5812E-01  0.5812E-01  0.1219E-02  0.1219E-02  0.1183E-03  0.1184E-03  0.1148E-02  0.1148E-02  0.0000E+00  0.0000E+00  0.0000E+00  0.0000E+00  0.0000E+00  0.0000E+00  0.0000E+00  0.0000E+00  0.0000E+00  0.0000E+00
     -8.843  0.8535E-01  0.8540E-01  0.2131E-02  0.2132E-02  0.3118E-03  0.3120E-03  0.1756E-02  0.1757E-02  0.0000E+00  0.0000E+00  0.0000E+00  0.0000E+00  0.0000E+00  0.0000E+00  0.0000E+00  0.0000E+00  0.0000E+00  0.0000E+00
     -8.750  0.8272E-01  0.8272E-01  0.1969E-02  0.1969E-02  0.2475E-03  0.2474E-03  0.1725E-02  0.1725E-02  0.0000E+00  0.0000E+00  0.0000E+00  0.0000E+00  0.0000E+00  0.0000E+00  0.0000E+00  0.0000E+00  0.0000E+00  0.0000E+00