 running on   16 total cores
 distrk:  each k-point on   16 cores,    1 groups
 distr:  one band on    1 cores,   16 groups
 using from now: INCAR     
 vasp.5.4.4.18Apr17-6-g9f103f2a35 (build Nov 01 2019 12:17:22) complex          
  
 POSCAR found type information on POSCAR  H 
 POSCAR found :  1 types and      18 ions

 ----------------------------------------------------------------------------- 
|                                                                             |
|           W    W    AA    RRRRR   N    N  II  N    N   GGGG   !!!           |
|           W    W   A  A   R    R  NN   N  II  NN   N  G    G  !!!           |
|           W    W  A    A  R    R  N N  N  II  N N  N  G       !!!           |
|           W WW W  AAAAAA  RRRRR   N  N N  II  N  N N  G  GGG   !            |
|           WW  WW  A    A  R   R   N   NN  II  N   NN  G    G                |
|           W    W  A    A  R    R  N    N  II  N    N   GGGG   !!!           |
|                                                                             |
|      For optimal performance we recommend to set                            |
|        NCORE= 4 - approx SQRT( number of cores)                             |
|      NCORE specifies how many cores store one orbital (NPAR=cpu/NCORE).     |
|      This setting can  greatly improve the performance of VASP for DFT.     |
|      The default,   NCORE=1            might be grossly inefficient         |
|      on modern multi-core architectures or massively parallel machines.     |
|      Do your own testing !!!!                                               |
|      Unfortunately you need to use the default for GW and RPA calculations. |
|      (for HF NCORE is supported but not extensively tested yet)             |
|                                                                             |
 ----------------------------------------------------------------------------- 

 LDA part: xc-table for Pade appr. of Perdew
 POSCAR, INCAR and KPOINTS ok, starting setup
 FFT: planning ...
 WAVECAR not read
 entering main loop
       N       E                     dE             d eps       ncg     rms          rms(c)
DAV:   1    -0.103596398976E+02   -0.10360E+02   -0.71905E+03  6400   0.457E+02
DAV:   2    -0.513794976344E+02   -0.41020E+02   -0.39603E+02  8496   0.844E+01
DAV:   3    -0.527762904870E+02   -0.13968E+01   -0.13952E+01  8400   0.135E+01
DAV:   4    -0.527786947453E+02   -0.24043E-02   -0.24041E-02  7968   0.688E-01
DAV:   5    -0.527787009012E+02   -0.61558E-05   -0.61551E-05  6768   0.352E-02    0.181E+01
RMM:   6    -0.566627650794E+02   -0.38841E+01   -0.23900E+00  6400   0.477E+00    0.748E+00
RMM:   7    -0.575467617462E+02   -0.88400E+00   -0.14991E+00  6400   0.404E+00    0.333E+00
RMM:   8    -0.574585015790E+02    0.88260E-01   -0.26799E-01  6400   0.182E+00    0.102E+00
RMM:   9    -0.574917120800E+02   -0.33211E-01   -0.26355E-02  6400   0.625E-01    0.461E-01
RMM:  10    -0.574977787714E+02   -0.60667E-02   -0.23158E-03  6374   0.198E-01    0.170E-01
RMM:  11    -0.574995858902E+02   -0.18071E-02   -0.99266E-04  5665   0.131E-01    0.816E-02
RMM:  12    -0.575001998768E+02   -0.61399E-03   -0.44683E-04  5385   0.922E-02
   1 F= -.57500200E+02 E0= -.57500200E+02  d E =-.575002E+02  mag=    -0.0002
 curvature:   0.00 expect dE= 0.000E+00 dE for cont linesearch  0.000E+00
 trial: gam= 0.00000 g(F)=  0.189E-02 g(S)=  0.148E+00 ort = 0.000E+00 (trialstep = 0.100E+01)
 search vector abs. value=  0.150E+00
 bond charge predicted
       N       E                     dE             d eps       ncg     rms          rms(c)
DAV:   1    -0.576386733188E+02   -0.13909E+00   -0.31280E-01  9040   0.232E+00    0.464E-01
RMM:   2    -0.576362279470E+02    0.24454E-02   -0.40839E-03  6354   0.236E-01    0.266E-01
RMM:   3    -0.576350466144E+02    0.11813E-02   -0.12456E-03  4249   0.108E-01    0.148E-02
RMM:   4    -0.576350557002E+02   -0.90858E-05   -0.23997E-05  2926   0.214E-02
   2 F= -.57635056E+02 E0= -.57635056E+02  d E =-.134856E+00  mag=    -0.0000
 ZBRENT: can't locate minimum, use default step
 trial-energy change:   -0.134856  1 .order   -0.136060   -0.150160   -0.121960
 step:   4.0000(harm=  5.3249)  dis= 0.00923  next Energy=   -57.899991 (dE=-0.400E+00)
 bond charge predicted
       N       E                     dE             d eps       ncg     rms          rms(c)
DAV:   1    -0.579076592562E+02   -0.27261E+00   -0.26636E+00  7184   0.656E+00    0.134E+00
RMM:   2    -0.578862369182E+02    0.21422E-01   -0.36557E-02  6400   0.684E-01    0.767E-01
RMM:   3    -0.578757984140E+02    0.10439E-01   -0.11457E-02  6400   0.313E-01    0.453E-02
RMM:   4    -0.578758374064E+02   -0.38992E-04   -0.65778E-05  3590   0.359E-02
   3 F= -.57875837E+02 E0= -.57875837E+02  d E =-.375638E+00  mag=     0.0000
 curvature:  -2.41 expect dE=-0.800E+00 dE for cont linesearch -0.319E-01
 ZBRENT: increasing intervall
 opt :  10.0000  next Energy=   -57.678760 (dE=-0.179E+00)
 bond charge predicted
       N       E                     dE             d eps       ncg     rms          rms(c)
DAV:   1    -0.578740601735E+02    0.17382E-02   -0.94791E+00  7600   0.117E+01    0.246E+00
RMM:   2    -0.577944308755E+02    0.79629E-01   -0.14594E-01  6400   0.127E+00    0.141E+00
RMM:   3    -0.577554813465E+02    0.38950E-01   -0.46347E-02  6400   0.594E-01    0.931E-02
RMM:   4    -0.577556516414E+02   -0.17029E-03   -0.29510E-04  4370   0.733E-02
   4 F= -.57755652E+02 E0= -.57755652E+02  d E =-.255452E+00  mag=     0.0000
 curvature:  14.91 expect dE= 0.232E+02 dE for cont linesearch  0.737E+00
 ZBRENT: bracketing found
 ZBRENT: interpolating
 opt :   6.0455  next Energy=   -57.921409 (dE=-0.421E+00)
 bond charge predicted
       N       E                     dE             d eps       ncg     rms          rms(c)
DAV:   1    -0.579741651359E+02   -0.21868E+00   -0.44473E+00  7136   0.858E+00    0.172E+00
RMM:   2    -0.579357544876E+02    0.38411E-01   -0.57010E-02  6400   0.835E-01    0.979E-01
RMM:   3    -0.579186585768E+02    0.17096E-01   -0.19443E-02  6400   0.398E-01    0.592E-02
RMM:   4    -0.579186547909E+02    0.37859E-05   -0.18602E-04  4760   0.676E-02
   5 F= -.57918655E+02 E0= -.57918655E+02  d E =-.418455E+00  mag=    -0.0000
 curvature:  -0.92 expect dE=-0.590E+00 dE for cont linesearch -0.773E-04
 trial: gam= 4.28634 g(F)=  0.591E+00 g(S)=  0.489E-01 ort =-0.355E-02 (trialstep = 0.896E-01)
 search vector abs. value=  0.337E+01
 bond charge predicted
       N       E                     dE             d eps       ncg     rms          rms(c)
DAV:   1    -0.579718056437E+02   -0.53147E-01   -0.22244E-01  8064   0.164E+00    0.312E-01
RMM:   2    -0.579706674544E+02    0.11382E-02   -0.34611E-03  6183   0.214E-01    0.181E-01
RMM:   3    -0.579701362863E+02    0.53117E-03   -0.72496E-04  5263   0.876E-02
   6 F= -.57970136E+02 E0= -.57970136E+02  d E =-.514815E-01  mag=     0.0000
 ZBRENT: can't locate minimum, use default step
 trial-energy change:   -0.051481  1 .order   -0.051455   -0.055965   -0.046945
 step:   0.3582(harm=  0.5557)  dis= 0.02733  next Energy=   -58.092265 (dE=-0.174E+00)
 bond charge predicted
       N       E                     dE             d eps       ncg     rms          rms(c)
DAV:   1    -0.580806829062E+02   -0.11002E+00   -0.20156E+00  6736   0.490E+00    0.949E-01
RMM:   2    -0.580701146431E+02    0.10568E-01   -0.33471E-02  6400   0.651E-01    0.551E-01
RMM:   3    -0.580644737235E+02    0.56409E-02   -0.70434E-03  6391   0.224E-01    0.317E-02
RMM:   4    -0.580644765215E+02   -0.27980E-05   -0.51301E-05  3892   0.355E-02
   7 F= -.58064477E+02 E0= -.58064477E+02  d E =-.145822E+00  mag=     0.0000
 curvature:  -1.23 expect dE=-0.947E-01 dE for cont linesearch -0.111E-01
 ZBRENT: extrapolating
 opt :   0.4923  next Energy=   -58.076171 (dE=-0.158E+00)
 bond charge predicted
       N       E                     dE             d eps       ncg     rms          rms(c)
DAV:   1    -0.580789599451E+02   -0.14486E-01   -0.51697E-01  9040   0.249E+00    0.492E-01
RMM:   2    -0.580760260723E+02    0.29339E-02   -0.84385E-03  6286   0.326E-01    0.284E-01
RMM:   3    -0.580745845958E+02    0.14415E-02   -0.19471E-03  5995   0.125E-01    0.205E-02
RMM:   4    -0.580745564359E+02    0.28160E-04   -0.82735E-05  4385   0.482E-02
   8 F= -.58074556E+02 E0= -.58074556E+02  d E =-.155902E+00  mag=     0.0000
 curvature:  -1.29 expect dE=-0.881E-01 dE for cont linesearch -0.130E-03
 trial: gam= 0.16406 g(F)=  0.250E-01 g(S)=  0.430E-01 ort =-0.184E-01 (trialstep = 0.170E+00)
 search vector abs. value=  0.153E+00
 bond charge predicted
       N       E                     dE             d eps       ncg     rms          rms(c)
DAV:   1    -0.580852710034E+02   -0.10686E-01   -0.20795E-02  8832   0.528E-01    0.892E-02
RMM:   2    -0.580852264515E+02    0.44552E-04   -0.46224E-04  3335   0.850E-02
   9 F= -.58085226E+02 E0= -.58085226E+02  d E =-.106700E-01  mag=     0.0000
 ZBRENT: can't locate minimum, use default step
 trial-energy change:   -0.010670  1 .order   -0.010951   -0.011067   -0.010836
 step:   0.6804(harm=  8.1437)  dis= 0.00671  next Energy=   -58.339469 (dE=-0.265E+00)
 bond charge predicted
       N       E                     dE             d eps       ncg     rms          rms(c)
DAV:   1    -0.581145963677E+02   -0.29325E-01   -0.18335E-01  8352   0.157E+00    0.260E-01
RMM:   2    -0.581142107463E+02    0.38562E-03   -0.42747E-03  6373   0.248E-01
  10 F= -.58114211E+02 E0= -.58114211E+02  d E =-.396543E-01  mag=    -0.0000
 curvature:  -1.18 expect dE=-0.657E-01 dE for cont linesearch -0.267E-01
 ZBRENT: increasing intervall
 opt :   1.7011  next Energy=   -58.168862 (dE=-0.943E-01)
 bond charge predicted
       N       E                     dE             d eps       ncg     rms          rms(c)
DAV:   1    -0.581593803042E+02   -0.44784E-01   -0.71773E-01  8480   0.309E+00    0.511E-01
RMM:   2    -0.581577917706E+02    0.15885E-02   -0.16120E-02  6400   0.479E-01    0.313E-01
RMM:   3    -0.581565948997E+02    0.11969E-02   -0.25042E-03  6399   0.160E-01    0.322E-02
RMM:   4    -0.581565209791E+02    0.73921E-04   -0.26270E-04  5203   0.842E-02
  11 F= -.58156521E+02 E0= -.58156521E+02  d E =-.819645E-01  mag=    -0.0000
 curvature:  -2.43 expect dE=-0.190E+00 dE for cont linesearch -0.176E-01
 ZBRENT: increasing intervall
 opt :   3.7424  next Energy=   -58.172826 (dE=-0.983E-01)
 bond charge predicted
       N       E                     dE             d eps       ncg     rms          rms(c)
DAV:   1    -0.581939866727E+02   -0.37392E-01   -0.28781E+00  8384   0.605E+00    0.101E+00
RMM:   2    -0.581877513024E+02    0.62354E-02   -0.73613E-02  6400   0.997E-01    0.626E-01
RMM:   3    -0.581819289990E+02    0.58223E-02   -0.10142E-02  6400   0.301E-01    0.621E-02
RMM:   4    -0.581819048384E+02    0.24161E-04   -0.51234E-04  5461   0.113E-01
  12 F= -.58181905E+02 E0= -.58181905E+02  d E =-.107348E+00  mag=    -0.0000
 curvature:  -2.24 expect dE=-0.649E+00 dE for cont linesearch -0.516E-03
 trial: gam= 4.22235 g(F)=  0.243E+00 g(S)=  0.456E-01 ort =-0.592E-02 (trialstep = 0.456E-01)
 search vector abs. value=  0.296E+01
 bond charge predicted
       N       E                     dE             d eps       ncg     rms          rms(c)
DAV:   1    -0.581935068065E+02   -0.11578E-01   -0.33005E-02  9056   0.671E-01    0.121E-01
RMM:   2    -0.581934037326E+02    0.10307E-03   -0.16106E-03  5924   0.182E-01
  13 F= -.58193404E+02 E0= -.58193404E+02  d E =-.114989E-01  mag=    -0.0000
 ZBRENT: can't locate minimum, use default step
 trial-energy change:   -0.011499  1 .order   -0.011698   -0.012041   -0.011355
 step:   0.1824(harm=  0.8005)  dis= 0.00552  next Energy=   -58.287567 (dE=-0.106E+00)
 bond charge predicted
       N       E                     dE             d eps       ncg     rms          rms(c)
DAV:   1    -0.582209707744E+02   -0.27464E-01   -0.28099E-01  8352   0.195E+00    0.361E-01
RMM:   2    -0.582204464895E+02    0.52428E-03   -0.83357E-03  6400   0.369E-01
  14 F= -.58220446E+02 E0= -.58220446E+02  d E =-.385417E-01  mag=    -0.0000
 curvature:  -1.48 expect dE=-0.195E+00 dE for cont linesearch -0.185E-01
 ZBRENT: increasing intervall
 opt :   0.4561  next Energy=   -58.257639 (dE=-0.757E-01)
 bond charge predicted
       N       E                     dE             d eps       ncg     rms          rms(c)
DAV:   1    -0.582433941382E+02   -0.22423E-01   -0.10923E+00  8720   0.383E+00    0.705E-01
RMM:   2    -0.582420637375E+02    0.13304E-02   -0.28435E-02  6400   0.645E-01    0.428E-01
RMM:   3    -0.582360122441E+02    0.60515E-02   -0.74972E-03  6400   0.329E-01    0.847E-02
RMM:   4    -0.582396737103E+02   -0.36615E-02   -0.29736E-03  6203   0.248E-01    0.348E-02
RMM:   5    -0.582393951089E+02    0.27860E-03   -0.48004E-04  5464   0.107E-01
  15 F= -.58239395E+02 E0= -.58239395E+02  d E =-.574903E-01  mag=     0.0000
 curvature:  -2.98 expect dE=-0.202E+00 dE for cont linesearch -0.221E-04
 trial: gam= 0.11278 g(F)=  0.519E-01 g(S)=  0.159E-01 ort =-0.469E-02 (trialstep = 0.128E+00)
 search vector abs. value=  0.104E+00
 bond charge predicted
       N       E                     dE             d eps       ncg     rms          rms(c)
DAV:   1    -0.582472892190E+02   -0.76155E-02   -0.21036E-02  9456   0.512E-01    0.642E-02
RMM:   2    -0.582473225639E+02   -0.33345E-04   -0.80013E-04  3612   0.972E-02
  16 F= -.58247323E+02 E0= -.58247323E+02  d E =-.792746E-02  mag=     0.0000
 ZBRENT: can't locate minimum, use default step
 trial-energy change:   -0.007927  1 .order   -0.007995   -0.008587   -0.007403
 step:   0.5109(harm=  0.9260)  dis= 0.01163  next Energy=   -58.270524 (dE=-0.311E-01)
 bond charge predicted
       N       E                     dE             d eps       ncg     rms          rms(c)
DAV:   1    -0.582636186639E+02   -0.16329E-01   -0.18720E-01  8144   0.153E+00    0.195E-01
RMM:   2    -0.582638805738E+02   -0.26191E-03   -0.68598E-03  6148   0.284E-01
  17 F= -.58263881E+02 E0= -.58263881E+02  d E =-.244855E-01  mag=    -0.0000
 curvature:  -0.52 expect dE=-0.163E-01 dE for cont linesearch -0.446E-02
 trial: gam= 0.03997 g(F)=  0.241E-01 g(S)=  0.692E-02 ort = 0.298E-01 (trialstep = 0.204E+00)
 search vector abs. value=  0.336E-01
 bond charge predicted
       N       E                     dE             d eps       ncg     rms          rms(c)
DAV:   1    -0.582697685673E+02   -0.61499E-02   -0.26672E-02  8336   0.580E-01    0.687E-02
RMM:   2    -0.582697852546E+02   -0.16687E-04   -0.91659E-04  5088   0.117E-01
  18 F= -.58269785E+02 E0= -.58269785E+02  d E =-.590468E-02  mag=    -0.0000
 ZBRENT: can't locate minimum, use default step
 trial-energy change:   -0.005905  1 .order   -0.005899   -0.006591   -0.005207
 step:   0.8174(harm=  0.9730)  dis= 0.01273  next Energy=   -58.279572 (dE=-0.157E-01)
 bond charge predicted
       N       E                     dE             d eps       ncg     rms          rms(c)
DAV:   1    -0.582778291280E+02   -0.80606E-02   -0.21992E-01  7280   0.168E+00    0.187E-01
RMM:   2    -0.582782169592E+02   -0.38783E-03   -0.95599E-03  6378   0.344E-01    0.119E-01
RMM:   3    -0.582782192826E+02   -0.23234E-05   -0.80756E-04  5566   0.119E-01
  19 F= -.58278219E+02 E0= -.58278219E+02  d E =-.143387E-01  mag=     0.0000
 curvature:  -0.49 expect dE=-0.133E-01 dE for cont linesearch -0.381E-04
 trial: gam= 0.86819 g(F)=  0.156E-01 g(S)=  0.117E-01 ort = 0.162E-02 (trialstep = 0.198E+00)
 search vector abs. value=  0.555E-01
 bond charge predicted
       N       E                     dE             d eps       ncg     rms          rms(c)
DAV:   1    -0.582830066238E+02   -0.47897E-02   -0.21029E-02  7856   0.513E-01    0.540E-02
RMM:   2    -0.582830484599E+02   -0.41836E-04   -0.14136E-03  5681   0.146E-01
  20 F= -.58283048E+02 E0= -.58283048E+02  d E =-.482918E-02  mag=     0.0000
 trial-energy change:   -0.004829  1 .order   -0.004937   -0.005692   -0.004182
 step:   0.7465(harm=  0.7465)  dis= 0.01289  next Energy=   -58.288946 (dE=-0.107E-01)
 bond charge predicted
       N       E                     dE             d eps       ncg     rms          rms(c)
DAV:   1    -0.582883600516E+02   -0.53534E-02   -0.15462E-01  7952   0.139E+00    0.147E-01
RMM:   2    -0.582889398614E+02   -0.57981E-03   -0.88408E-03  6298   0.332E-01
  21 F= -.58288940E+02 E0= -.58288940E+02  d E =-.107206E-01  mag=    -0.0000
 curvature:  -0.72 expect dE=-0.581E-02 dE for cont linesearch -0.941E-05
 trial: gam= 0.32916 g(F)=  0.562E-02 g(S)=  0.244E-02 ort =-0.851E-03 (trialstep = 0.308E+00)
 search vector abs. value=  0.135E-01
 bond charge predicted
       N       E                     dE             d eps       ncg     rms          rms(c)
DAV:   1    -0.582914385692E+02   -0.30785E-02   -0.80055E-03  7072   0.347E-01    0.490E-02
RMM:   2    -0.582912794964E+02    0.15907E-03   -0.12131E-03  5806   0.172E-01
  22 F= -.58291279E+02 E0= -.58291279E+02  d E =-.233963E-02  mag=    -0.0000
 ZBRENT: can't locate minimum, use default step
 trial-energy change:   -0.002340  1 .order   -0.002250   -0.002397   -0.002103
 step:   1.2311(harm=  2.5150)  dis= 0.00257  next Energy=   -58.298732 (dE=-0.979E-02)
 bond charge predicted
       N       E                     dE             d eps       ncg     rms          rms(c)
DAV:   1    -0.582961653195E+02   -0.47268E-02   -0.58456E-02  8016   0.902E-01    0.128E-01
RMM:   2    -0.582960223709E+02    0.14295E-03   -0.25545E-03  6242   0.227E-01
  23 F= -.58296022E+02 E0= -.58296022E+02  d E =-.708251E-02  mag=    -0.0000
 curvature:  -1.44 expect dE=-0.409E-02 dE for cont linesearch -0.165E-02
 trial: gam=-0.18469 g(F)=  0.212E-02 g(S)=  0.711E-03 ort = 0.393E-02 (trialstep = 0.492E+00)
 search vector abs. value=  0.184E-02
 reached required accuracy - stopping structural energy minimisation
