   8   8   1   0
  0.8273925E+01  0.3430786E-09  0.3441763E-09  0.5605765E-09  0.5000000E-15
  1.000000000000000E-004
  CAR 
 unknown system                          
     23.57292702    -35.01402557  301      3.44590521      1.00000000
    -35.014  0.0000E+00  0.0000E+00  0.0000E+00  0.0000E+00
    -34.819  0.0000E+00  0.0000E+00  0.0000E+00  0.0000E+00
    -34.623  0.0000E+00  0.0000E+00  0.0000E+00  0.0000E+00
    -34.428  0.0000E+00  0.0000E+00  0.0000E+00  0.0000E+00
    -34.233  0.0000E+00  0.0000E+00  0.0000E+00  0.0000E+00
    -34.038  0.0000E+00  0.0000E+00  0.0000E+00  0.0000E+00
    -33.842  0.0000E+00  0.0000E+00  0.0000E+00  0.0000E+00
    -33.647  0.0000E+00  0.0000E+00  0.0000E+00  0.0000E+00
    -33.452  0.0000E+00  0.0000E+00  0.0000E+00  0.0000E+00
    -33.256  0.0000E+00  0.0000E+00  0.0000E+00  0.0000E+00
    -33.061  0.0000E+00  0.0000E+00  0.0000E+00  0.0000E+00
    -32.866  0.0000E+00  0.0000E+00  0.0000E+00  0.0000E+00
    -32.671  0.0000E+00  0.0000E+00  0.0000E+00  0.0000E+00
    -32.475  0.0000E+00  0.0000E+00  0.0000E+00  0.0000E+00
    -32.280  0.1045E+00  0.1045E+00  0.6872E-02  0.6871E-02
    -32.085  0.0000E+00  0.0000E+00  0.1010E-01  0.1010E-01
    -31.889  0.0000E+00  0.0000E+00  0.1010E-01  0.1010E-01
    -31.694  0.0000E+00  0.0000E+00  0.1010E-01  0.1010E-01
    -31.499  0.0000E+00  0.0000E+00  0.1010E-01  0.1010E-01
    -31.304  0.0000E+00  0.0000E+00  0.1010E-01  0.1010E-01
    -31.108  0.0000E+00  0.0000E+00  0.1010E-01  0.1010E-01
    -30.913  0.0000E+00  0.0000E+00  0.1010E-01  0.1010E-01
    -30.718  0.0000E+00  0.0000E+00  0.1010E-01  0.1010E-01
    -30.522  0.0000E+00  0.0000E+00  0.1010E-01  0.1010E-01
    -30.327  0.0000E+00  0.0000E+00  0.1010E-01  0.1010E-01
    -30.132  0.0000E+00  0.0000E+00  0.1010E-01  0.1010E-01
    -29.936  0.0000E+00  0.0000E+00  0.1010E-01  0.1010E-01
    -29.741  0.0000E+00  0.0000E+00  0.1010E-01  0.1010E-01
    -29.546  0.0000E+00  0.0000E+00  0.1010E-01  0.1010E-01
    -29.351  0.0000E+00  0.0000E+00  0.1010E-01  0.1010E-01
    -29.155  0.0000E+00  0.0000E+00  0.1010E-01  0.1010E-01
    -28.960  0.0000E+00  0.0000E+00  0.1010E-01  0.1010E-01
    -28.765  0.0000E+00  0.0000E+00  0.1010E-01  0.1010E-01
    -28.569  0.0000E+00  0.0000E+00  0.1010E-01  0.1010E-01
    -28.374  0.0000E+00  0.0000E+00  0.1010E-01  0.1010E-01
    -28.179  0.0000E+00  0.0000E+00  0.1010E-01  0.1010E-01
    -27.984  0.9226E-01  0.9227E-01  0.1813E-01  0.1813E-01
    -27.788  0.0000E+00  0.0000E+00  0.4040E-01  0.4040E-01
    -27.593  0.0000E+00  0.0000E+00  0.4040E-01  0.4040E-01
    -27.398  0.0000E+00  0.0000E+00  0.4040E-01  0.4040E-01
    -27.202  0.0000E+00  0.0000E+00  0.4040E-01  0.4040E-01
    -27.007  0.0000E+00  0.0000E+00  0.4040E-01  0.4040E-01
    -26.812  0.0000E+00  0.0000E+00  0.4040E-01  0.4040E-01
    -26.617  0.0000E+00  0.0000E+00  0.4040E-01  0.4040E-01
    -26.421  0.0000E+00  0.0000E+00  0.4040E-01  0.4040E-01
    -26.226  0.0000E+00  0.0000E+00  0.4040E-01  0.4040E-01
    -26.031  0.0000E+00  0.0000E+00  0.4040E-01  0.4040E-01
    -25.835  0.0000E+00  0.0000E+00  0.4040E-01  0.4040E-01
    -25.640  0.0000E+00  0.0000E+00  0.4040E-01  0.4040E-01
    -25.445  0.0000E+00  0.0000E+00  0.4040E-01  0.4040E-01
    -25.250  0.0000E+00  0.0000E+00  0.4040E-01  0.4040E-01
    -25.054  0.0000E+00  0.0000E+00  0.4040E-01  0.4040E-01
    -24.859  0.0000E+00  0.0000E+00  0.4040E-01  0.4040E-01
    -24.664  0.0000E+00  0.0000E+00  0.4040E-01  0.4040E-01
    -24.468  0.0000E+00  0.0000E+00  0.4040E-01  0.4040E-01
    -24.273  0.0000E+00  0.0000E+00  0.4040E-01  0.4040E-01
    -24.078  0.0000E+00  0.0000E+00  0.4040E-01  0.4040E-01
    -23.883  0.0000E+00  0.0000E+00  0.4040E-01  0.4040E-01
    -23.687  0.0000E+00  0.0000E+00  0.4040E-01  0.4040E-01
    -23.492  0.0000E+00  0.0000E+00  0.4040E-01  0.4040E-01
    -23.297  0.0000E+00  0.0000E+00  0.4040E-01  0.4040E-01
    -23.101  0.0000E+00  0.0000E+00  0.4040E-01  0.4040E-01
    -22.906  0.0000E+00  0.0000E+00  0.4040E-01  0.4040E-01
    -22.711  0.0000E+00  0.0000E+00  0.4040E-01  0.4040E-01
    -22.515  0.0000E+00  0.0000E+00  0.4040E-01  0.4040E-01
    -22.320  0.0000E+00  0.0000E+00  0.4040E-01  0.4040E-01
    -22.125  0.0000E+00  0.0000E+00  0.4040E-01  0.4040E-01
    -21.930  0.0000E+00  0.0000E+00  0.4040E-01  0.4040E-01
    -21.734  0.0000E+00  0.0000E+00  0.4040E-01  0.4040E-01
    -21.539  0.0000E+00  0.0000E+00  0.4040E-01  0.4040E-01
    -21.344  0.0000E+00  0.0000E+00  0.4040E-01  0.4040E-01
    -21.148  0.0000E+00  0.0000E+00  0.4040E-01  0.4040E-01
    -20.953  0.0000E+00  0.0000E+00  0.4040E-01  0.4040E-01
    -20.758  0.0000E+00  0.0000E+00  0.4040E-01  0.4040E-01
    -20.563  0.0000E+00  0.0000E+00  0.4040E-01  0.4040E-01
    -20.367  0.0000E+00  0.0000E+00  0.4040E-01  0.4040E-01
    -20.172  0.0000E+00  0.0000E+00  0.4040E-01  0.4040E-01
    -19.977  0.0000E+00  0.0000E+00  0.4040E-01  0.4040E-01
    -19.781  0.0000E+00  0.0000E+00  0.4040E-01  0.4040E-01
    -19.586  0.0000E+00  0.0000E+00  0.4040E-01  0.4040E-01
    -19.391  0.0000E+00  0.0000E+00  0.4040E-01  0.4040E-01
    -19.196  0.0000E+00  0.0000E+00  0.4040E-01  0.4040E-01
    -19.000  0.0000E+00  0.0000E+00  0.4040E-01  0.4040E-01
    -18.805  0.0000E+00  0.0000E+00  0.4040E-01  0.4040E-01
    -18.610  0.0000E+00  0.0000E+00  0.4040E-01  0.4040E-01
    -18.414  0.0000E+00  0.0000E+00  0.4040E-01  0.4040E-01
    -18.219  0.0000E+00  0.0000E+00  0.4040E-01  0.4040E-01
    -18.024  0.0000E+00  0.0000E+00  0.4040E-01  0.4040E-01
    -17.829  0.0000E+00  0.0000E+00  0.4040E-01  0.4040E-01
    -17.633  0.0000E+00  0.0000E+00  0.4040E-01  0.4040E-01
    -17.438  0.0000E+00  0.0000E+00  0.4040E-01  0.4040E-01
    -17.243  0.0000E+00  0.0000E+00  0.4040E-01  0.4040E-01
    -17.047  0.0000E+00  0.0000E+00  0.4040E-01  0.4040E-01
    -16.852  0.0000E+00  0.0000E+00  0.4040E-01  0.4040E-01
    -16.657  0.0000E+00  0.0000E+00  0.4040E-01  0.4040E-01
    -16.461  0.0000E+00  0.0000E+00  0.4040E-01  0.4040E-01
    -16.266  0.0000E+00  0.0000E+00  0.4040E-01  0.4040E-01
    -16.071  0.0000E+00  0.0000E+00  0.4040E-01  0.4040E-01
    -15.876  0.0000E+00  0.0000E+00  0.4040E-01  0.4040E-01
    -15.680  0.0000E+00  0.0000E+00  0.4040E-01  0.4040E-01
    -15.485  0.0000E+00  0.0000E+00  0.4040E-01  0.4040E-01
    -15.290  0.0000E+00  0.0000E+00  0.4040E-01  0.4040E-01
    -15.094  0.0000E+00  0.0000E+00  0.4040E-01  0.4040E-01
    -14.899  0.0000E+00  0.0000E+00  0.4040E-01  0.4040E-01
    -14.704  0.6040E-01  0.6042E-01  0.4541E-01  0.4541E-01
    -14.509  0.3481E-01  0.3481E-01  0.5012E-01  0.5012E-01
    -14.313  0.6010E-01  0.6008E-01  0.5504E-01  0.5504E-01
    -14.118  0.2062E-01  0.2062E-01  0.7034E-01  0.7034E-01
    -13.923  0.0000E+00  0.0000E+00  0.7071E-01  0.7071E-01
    -13.727  0.0000E+00  0.0000E+00  0.7071E-01  0.7071E-01
    -13.532  0.0000E+00  0.0000E+00  0.7071E-01  0.7071E-01
    -13.337  0.0000E+00  0.0000E+00  0.7071E-01  0.7071E-01
    -13.142  0.0000E+00  0.0000E+00  0.7071E-01  0.7071E-01
    -12.946  0.0000E+00  0.0000E+00  0.7071E-01  0.7071E-01
    -12.751  0.0000E+00  0.0000E+00  0.7071E-01  0.7071E-01
    -12.556  0.0000E+00  0.0000E+00  0.7071E-01  0.7071E-01
    -12.360  0.0000E+00  0.0000E+00  0.7071E-01  0.7071E-01
    -12.165  0.0000E+00  0.0000E+00  0.7071E-01  0.7071E-01
    -11.970  0.0000E+00  0.0000E+00  0.7071E-01  0.7071E-01
    -11.775  0.0000E+00  0.0000E+00  0.7071E-01  0.7071E-01
    -11.579  0.0000E+00  0.0000E+00  0.7071E-01  0.7071E-01
    -11.384  0.0000E+00  0.0000E+00  0.7071E-01  0.7071E-01
    -11.189  0.0000E+00  0.0000E+00  0.7071E-01  0.7071E-01
    -10.993  0.0000E+00  0.0000E+00  0.7071E-01  0.7071E-01
    -10.798  0.0000E+00  0.0000E+00  0.7071E-01  0.7071E-01
    -10.603  0.0000E+00  0.0000E+00  0.7071E-01  0.7071E-01
    -10.408  0.0000E+00  0.0000E+00  0.7071E-01  0.7071E-01
    -10.212  0.0000E+00  0.0000E+00  0.7071E-01  0.7071E-01
    -10.017  0.0000E+00  0.0000E+00  0.7071E-01  0.7071E-01
     -9.822  0.0000E+00  0.0000E+00  0.7071E-01  0.7071E-01
     -9.626  0.0000E+00  0.0000E+00  0.7071E-01  0.7071E-01
     -9.431  0.0000E+00  0.0000E+00  0.7071E-01  0.7071E-01
     -9.236  0.0000E+00  0.0000E+00  0.7071E-01  0.7071E-01
     -9.040  0.0000E+00  0.0000E+00  0.7071E-01  0.7071E-01
     -8.845  0.0000E+00  0.0000E+00  0.7071E-01  0.7071E-01
     -8.650  0.0000E+00  0.0000E+00  0.7071E-01  0.7071E-01
     -8.455  0.0000E+00  0.0000E+00  0.7071E-01  0.7071E-01
     -8.259  0.0000E+00  0.0000E+00  0.7071E-01  0.7071E-01
     -8.064  0.0000E+00  0.0000E+00  0.7071E-01  0.7071E-01
     -7.869  0.0000E+00  0.0000E+00  0.7071E-01  0.7071E-01
     -7.673  0.0000E+00  0.0000E+00  0.7071E-01  0.7071E-01
     -7.478  0.0000E+00  0.0000E+00  0.7071E-01  0.7071E-01
     -7.283  0.0000E+00  0.0000E+00  0.7071E-01  0.7071E-01
     -7.088  0.0000E+00  0.0000E+00  0.7071E-01  0.7071E-01
     -6.892  0.0000E+00  0.0000E+00  0.7071E-01  0.7071E-01
     -6.697  0.0000E+00  0.0000E+00  0.7071E-01  0.7071E-01
     -6.502  0.0000E+00  0.0000E+00  0.7071E-01  0.7071E-01
     -6.306  0.0000E+00  0.0000E+00  0.7071E-01  0.7071E-01
     -6.111  0.0000E+00  0.0000E+00  0.7071E-01  0.7071E-01
     -5.916  0.0000E+00  0.0000E+00  0.7071E-01  0.7071E-01
     -5.721  0.2294E-03  0.2294E-03  0.7072E-01  0.7072E-01
     -5.525  0.9138E-03  0.9138E-03  0.7083E-01  0.7083E-01
     -5.330  0.1500E-02  0.1500E-02  0.7107E-01  0.7107E-01
     -5.135  0.1836E-02  0.1836E-02  0.7139E-01  0.7139E-01
     -4.939  0.2421E-02  0.2421E-02  0.7181E-01  0.7181E-01
     -4.744  0.3129E-02  0.3129E-02  0.7235E-01  0.7235E-01
     -4.549  0.3608E-02  0.3608E-02  0.7301E-01  0.7301E-01
     -4.354  0.4252E-02  0.4252E-02  0.7378E-01  0.7378E-01
     -4.158  0.4790E-02  0.4790E-02  0.7466E-01  0.7466E-01
     -3.963  0.7992E-02  0.7992E-02  0.7585E-01  0.7585E-01
     -3.768  0.5706E-02  0.5706E-02  0.7724E-01  0.7724E-01
     -3.572  0.4531E-02  0.4531E-02  0.7818E-01  0.7818E-01
     -3.377  0.4607E-02  0.4607E-02  0.7906E-01  0.7906E-01
     -3.182  0.5057E-02  0.5057E-02  0.8003E-01  0.8003E-01
     -2.986  0.4887E-02  0.4887E-02  0.8102E-01  0.8102E-01
     -2.791  0.4677E-02  0.4677E-02  0.8194E-01  0.8194E-01
     -2.596  0.5532E-02  0.5532E-02  0.8294E-01  0.8294E-01
     -2.401  0.9560E-02  0.9560E-02  0.8430E-01  0.8430E-01
     -2.205  0.1043E-01  0.1043E-01  0.8638E-01  0.8638E-01
     -2.010  0.1571E-01  0.1571E-01  0.8894E-01  0.8894E-01
     -1.815  0.1883E-01  0.1883E-01  0.9235E-01  0.9235E-01
     -1.619  0.2070E-01  0.2070E-01  0.9633E-01  0.9633E-01
     -1.424  0.1773E-01  0.1773E-01  0.1006E+00  0.1006E+00
     -1.229  0.2150E-01  0.2150E-01  0.1045E+00  0.1045E+00
     -1.034  0.1633E-01  0.1633E-01  0.1078E+00  0.1078E+00
     -0.838  0.1332E-01  0.1332E-01  0.1106E+00  0.1106E+00
     -0.643  0.1011E-01  0.1011E-01  0.1129E+00  0.1129E+00
     -0.448  0.9266E-02  0.9266E-02  0.1147E+00  0.1147E+00
     -0.252  0.9426E-02  0.9426E-02  0.1166E+00  0.1166E+00
     -0.057  0.8217E-02  0.8217E-02  0.1183E+00  0.1183E+00
      0.138  0.3482E-02  0.3482E-02  0.1192E+00  0.1192E+00
      0.333  0.3517E-02  0.3517E-02  0.1199E+00  0.1199E+00
      0.529  0.3533E-02  0.3533E-02  0.1205E+00  0.1205E+00
      0.724  0.3902E-02  0.3902E-02  0.1213E+00  0.1213E+00
      0.919  0.4031E-02  0.4031E-02  0.1220E+00  0.1220E+00
      1.115  0.4558E-02  0.4558E-02  0.1229E+00  0.1229E+00
      1.310  0.4853E-02  0.4853E-02  0.1238E+00  0.1238E+00
      1.505  0.5063E-02  0.5063E-02  0.1248E+00  0.1248E+00
      1.700  0.7607E-02  0.7607E-02  0.1260E+00  0.1260E+00
      1.896  0.7644E-02  0.7644E-02  0.1275E+00  0.1275E+00
      2.091  0.8173E-02  0.8173E-02  0.1290E+00  0.1290E+00
      2.286  0.7621E-02  0.7621E-02  0.1306E+00  0.1306E+00
      2.482  0.6776E-02  0.6776E-02  0.1320E+00  0.1320E+00
      2.677  0.5745E-02  0.5745E-02  0.1333E+00  0.1333E+00
      2.872  0.3864E-02  0.3864E-02  0.1342E+00  0.1342E+00
      3.067  0.3193E-02  0.3193E-02  0.1349E+00  0.1349E+00
      3.263  0.4105E-02  0.4105E-02  0.1355E+00  0.1355E+00
      3.458  0.4878E-02  0.4878E-02  0.1364E+00  0.1364E+00
      3.653  0.5827E-02  0.5827E-02  0.1375E+00  0.1375E+00
      3.849  0.5131E-02  0.5131E-02  0.1386E+00  0.1386E+00
      4.044  0.6893E-02  0.6893E-02  0.1396E+00  0.1396E+00
      4.239  0.4667E-02  0.4667E-02  0.1409E+00  0.1409E+00
      4.435  0.4105E-02  0.4105E-02  0.1416E+00  0.1416E+00
      4.630  0.7976E-02  0.7976E-02  0.1428E+00  0.1428E+00
      4.825  0.9034E-02  0.9034E-02  0.1447E+00  0.1447E+00
      5.020  0.1227E-01  0.1227E-01  0.1471E+00  0.1471E+00
      5.216  0.1358E-01  0.1358E-01  0.1493E+00  0.1493E+00
      5.411  0.2347E-01  0.2347E-01  0.1535E+00  0.1535E+00
      5.606  0.9414E-02  0.9414E-02  0.1558E+00  0.1558E+00
      5.802  0.8030E-02  0.8030E-02  0.1582E+00  0.1582E+00
      5.997  0.8884E-02  0.8884E-02  0.1598E+00  0.1598E+00
      6.192  0.1220E-01  0.1220E-01  0.1619E+00  0.1619E+00
      6.387  0.1385E-01  0.1385E-01  0.1642E+00  0.1642E+00
      6.583  0.1398E-01  0.1398E-01  0.1670E+00  0.1670E+00
      6.778  0.8330E-02  0.8330E-02  0.1692E+00  0.1692E+00
      6.973  0.1273E-01  0.1273E-01  0.1710E+00  0.1710E+00
      7.169  0.2057E-01  0.2057E-01  0.1743E+00  0.1743E+00
      7.364  0.1353E-01  0.1353E-01  0.1778E+00  0.1778E+00
      7.559  0.1219E-01  0.1219E-01  0.1807E+00  0.1807E+00
      7.754  0.2077E-01  0.2077E-01  0.1832E+00  0.1832E+00
      7.950  0.1810E-01  0.1810E-01  0.1878E+00  0.1878E+00
      8.145  0.1278E-01  0.1278E-01  0.1907E+00  0.1907E+00
      8.340  0.1799E-01  0.1799E-01  0.1939E+00  0.1939E+00
      8.536  0.2127E-01  0.2127E-01  0.1977E+00  0.1977E+00
      8.731  0.1157E-01  0.1157E-01  0.2013E+00  0.2013E+00
      8.926  0.1336E-01  0.1336E-01  0.2033E+00  0.2033E+00
      9.121  0.2859E-01  0.2859E-01  0.2076E+00  0.2076E+00
      9.317  0.7736E-02  0.7736E-02  0.2114E+00  0.2114E+00
      9.512  0.1590E-01  0.1590E-01  0.2135E+00  0.2135E+00
      9.707  0.1719E-01  0.1719E-01  0.2172E+00  0.2172E+00
      9.903  0.1442E-01  0.1442E-01  0.2204E+00  0.2204E+00
     10.098  0.1334E-01  0.1334E-01  0.2229E+00  0.2229E+00
     10.293  0.1426E-01  0.1426E-01  0.2256E+00  0.2256E+00
     10.489  0.2234E-01  0.2234E-01  0.2289E+00  0.2289E+00
     10.684  0.1691E-01  0.1691E-01  0.2333E+00  0.2333E+00
     10.879  0.1279E-01  0.1279E-01  0.2363E+00  0.2363E+00
     11.074  0.1059E-01  0.1059E-01  0.2385E+00  0.2385E+00
     11.270  0.9501E-02  0.9502E-02  0.2406E+00  0.2406E+00
     11.465  0.6023E-02  0.6023E-02  0.2418E+00  0.2418E+00
     11.660  0.1132E-01  0.1132E-01  0.2433E+00  0.2433E+00
     11.856  0.1011E-01  0.1011E-01  0.2453E+00  0.2453E+00
     12.051  0.1083E-01  0.1083E-01  0.2474E+00  0.2474E+00
     12.246  0.1622E-01  0.1622E-01  0.2497E+00  0.2497E+00
     12.441  0.7226E-02  0.7226E-02  0.2517E+00  0.2517E+00
     12.637  0.7519E-02  0.7519E-02  0.2530E+00  0.2530E+00
     12.832  0.1807E-01  0.1807E-01  0.2550E+00  0.2550E+00
     13.027  0.1750E-01  0.1750E-01  0.2586E+00  0.2586E+00
     13.223  0.1396E-01  0.1396E-01  0.2617E+00  0.2617E+00
     13.418  0.4297E-02  0.4297E-02  0.2633E+00  0.2633E+00
     13.613  0.3758E-02  0.3758E-02  0.2640E+00  0.2640E+00
     13.808  0.8136E-02  0.8136E-02  0.2651E+00  0.2651E+00
     14.004  0.8630E-02  0.8630E-02  0.2667E+00  0.2667E+00
     14.199  0.1227E-01  0.1227E-01  0.2689E+00  0.2689E+00
     14.394  0.1155E-01  0.1155E-01  0.2713E+00  0.2713E+00
     14.590  0.8988E-02  0.8988E-02  0.2733E+00  0.2733E+00
     14.785  0.9851E-02  0.9851E-02  0.2750E+00  0.2750E+00
     14.980  0.1054E-01  0.1054E-01  0.2771E+00  0.2771E+00
     15.175  0.9847E-02  0.9847E-02  0.2791E+00  0.2791E+00
     15.371  0.7815E-02  0.7815E-02  0.2807E+00  0.2807E+00
     15.566  0.5279E-02  0.5279E-02  0.2821E+00  0.2821E+00
     15.761  0.3682E-02  0.3682E-02  0.2829E+00  0.2829E+00
     15.957  0.3782E-02  0.3782E-02  0.2836E+00  0.2836E+00
     16.152  0.6699E-02  0.6699E-02  0.2846E+00  0.2846E+00
     16.347  0.1107E-01  0.1107E-01  0.2863E+00  0.2863E+00
     16.542  0.8958E-02  0.8958E-02  0.2883E+00  0.2883E+00
     16.738  0.1049E-01  0.1049E-01  0.2901E+00  0.2901E+00
     16.933  0.1136E-01  0.1136E-01  0.2924E+00  0.2924E+00
     17.128  0.1021E-01  0.1021E-01  0.2945E+00  0.2945E+00
     17.324  0.1040E-01  0.1040E-01  0.2965E+00  0.2965E+00
     17.519  0.1287E-01  0.1287E-01  0.2988E+00  0.2988E+00
     17.714  0.8130E-02  0.8130E-02  0.3008E+00  0.3008E+00
     17.910  0.3321E-02  0.3321E-02  0.3022E+00  0.3022E+00
     18.105  0.3377E-02  0.3377E-02  0.3029E+00  0.3029E+00
     18.300  0.4540E-02  0.4540E-02  0.3036E+00  0.3036E+00
     18.495  0.1116E-01  0.1116E-01  0.3051E+00  0.3051E+00
     18.691  0.1260E-01  0.1260E-01  0.3074E+00  0.3074E+00
     18.886  0.1287E-01  0.1288E-01  0.3099E+00  0.3099E+00
     19.081  0.1148E-01  0.1148E-01  0.3122E+00  0.3122E+00
     19.277  0.1779E-01  0.1782E-01  0.3151E+00  0.3151E+00
     19.472  0.1204E-01  0.1203E-01  0.3180E+00  0.3180E+00
     19.667  0.9057E-02  0.9038E-02  0.3200E+00  0.3200E+00
     19.862  0.6552E-02  0.6542E-02  0.3217E+00  0.3217E+00
     20.058  0.3281E-02  0.3279E-02  0.3227E+00  0.3227E+00
     20.253  0.8574E-03  0.8572E-03  0.3230E+00  0.3230E+00
     20.448  0.3920E-03  0.3920E-03  0.3231E+00  0.3231E+00
     20.644  0.1981E-03  0.1981E-03  0.3232E+00  0.3232E+00
     20.839  0.8607E-04  0.8607E-04  0.3232E+00  0.3232E+00
     21.034  0.0000E+00  0.0000E+00  0.3232E+00  0.3232E+00
     21.229  0.0000E+00  0.0000E+00  0.3232E+00  0.3232E+00
     21.425  0.0000E+00  0.0000E+00  0.3232E+00  0.3232E+00
     21.620  0.0000E+00  0.0000E+00  0.3232E+00  0.3232E+00
     21.815  0.0000E+00  0.0000E+00  0.3232E+00  0.3232E+00
     22.011  0.0000E+00  0.0000E+00  0.3232E+00  0.3232E+00
     22.206  0.0000E+00  0.0000E+00  0.3232E+00  0.3232E+00
     22.401  0.0000E+00  0.0000E+00  0.3232E+00  0.3232E+00
     22.596  0.0000E+00  0.0000E+00  0.3232E+00  0.3232E+00
     22.792  0.0000E+00  0.0000E+00  0.3232E+00  0.3232E+00
     22.987  0.0000E+00  0.0000E+00  0.3232E+00  0.3232E+00
     23.182  0.0000E+00  0.0000E+00  0.3232E+00  0.3232E+00
     23.378  0.0000E+00  0.0000E+00  0.3232E+00  0.3232E+00
     23.573  0.0000E+00  0.0000E+00  0.3232E+00  0.3232E+00
     23.57292702    -35.01402557  301      3.44590521      1.00000000
    -35.014  0.0000E+00  0.0000E+00  0.0000E+00  0.0000E+00  0.0000E+00  0.0000E+00  0.0000E+00  0.0000E+00  0.0000E+00  0.0000E+00  0.0000E+00  0.0000E+00  0.0000E+00  0.0000E+00  0.0000E+00  0.0000E+00  0.0000E+00  0.0000E+00
    -34.819  0.0000E+00  0.0000E+00  0.0000E+00  0.0000E+00  0.0000E+00  0.0000E+00  0.0000E+00  0.0000E+00  0.0000E+00  0.0000E+00  0.0000E+00  0.0000E+00  0.0000E+00  0.0000E+00  0.0000E+00  0.0000E+00  0.0000E+00  0.0000E+00
    -34.623  0.0000E+00  0.0000E+00  0.0000E+00  0.0000E+00  0.0000E+00  0.0000E+00  0.0000E+00  0.0000E+00  0.0000E+00  0.0000E+00  0.0000E+00  0.0000E+00  0.0000E+00  0.0000E+00  0.0000E+00  0.0000E+00  0.0000E+00  0.0000E+00
    -34.428  0.0000E+00  0.0000E+00  0.0000E+00  0.0000E+00  0.0000E+00  0.0000E+00  0.0000E+00  0.0000E+00  0.0000E+00  0.0000E+00  0.0000E+00  0.0000E+00  0.0000E+00  0.0000E+00  0.0000E+00  0.0000E+00  0.0000E+00  0.0000E+00
    -34.233  0.0000E+00  0.0000E+00  0.0000E+00  0.0000E+00  0.0000E+00  0.0000E+00  0.0000E+00  0.0000E+00  0.0000E+00  0.0000E+00  0.0000E+00  0.0000E+00  0.0000E+00  0.0000E+00  0.0000E+00  0.0000E+00  0.0000E+00  0.0000E+00
    -34.038  0.0000E+00  0.0000E+00  0.0000E+00  0.0000E+00  0.0000E+00  0.0000E+00  0.0000E+00  0.0000E+00  0.0000E+00  0.0000E+00  0.0000E+00  0.0000E+00  0.0000E+00  0.0000E+00  0.0000E+00  0.0000E+00  0.0000E+00  0.0000E+00
    -33.842  0.0000E+00  0.0000E+00  0.0000E+00  0.0000E+00  0.0000E+00  0.0000E+00  0.0000E+00  0.0000E+00  0.0000E+00  0.0000E+00  0.0000E+00  0.0000E+00  0.0000E+00  0.0000E+00  0.0000E+00  0.0000E+00  0.0000E+00  0.0000E+00
    -33.647  0.0000E+00  0.0000E+00  0.0000E+00  0.0000E+00  0.0000E+00  0.0000E+00  0.0000E+00  0.0000E+00  0.0000E+00  0.0000E+00  0.0000E+00  0.0000E+00  0.0000E+00  0.0000E+00  0.0000E+00  0.0000E+00  0.0000E+00  0.0000E+00
    -33.452  0.0000E+00  0.0000E+00  0.0000E+00  0.0000E+00  0.0000E+00  0.0000E+00  0.0000E+00  0.0000E+00  0.0000E+00  0.0000E+00  0.0000E+00  0.0000E+00  0.0000E+00  0.0000E+00  0.0000E+00  0.0000E+00  0.0000E+00  0.0000E+00
    -33.256  0.0000E+00  0.0000E+00  0.0000E+00  0.0000E+00  0.0000E+00  0.0000E+00  0.0000E+00  0.0000E+00  0.0000E+00  0.0000E+00  0.0000E+00  0.0000E+00  0.0000E+00  0.0000E+00  0.0000E+00  0.0000E+00  0.0000E+00  0.0000E+00
    -33.061  0.0000E+00  0.0000E+00  0.0000E+00  0.0000E+00  0.0000E+00  0.0000E+00  0.0000E+00  0.0000E+00  0.0000E+00  0.0000E+00  0.0000E+00  0.0000E+00  0.0000E+00  0.0000E+00  0.0000E+00  0.0000E+00  0.0000E+00  0.0000E+00
    -32.866  0.0000E+00  0.0000E+00  0.0000E+00  0.0000E+00  0.0000E+00  0.0000E+00  0.0000E+00  0.0000E+00  0.0000E+00  0.0000E+00  0.0000E+00  0.0000E+00  0.0000E+00  0.0000E+00  0.0000E+00  0.0000E+00  0.0000E+00  0.0000E+00
    -32.671  0.0000E+00  0.0000E+00  0.0000E+00  0.0000E+00  0.0000E+00  0.0000E+00  0.0000E+00  0.0000E+00  0.0000E+00  0.0000E+00  0.0000E+00  0.0000E+00  0.0000E+00  0.0000E+00  0.0000E+00  0.0000E+00  0.0000E+00  0.0000E+00
    -32.475  0.0000E+00  0.0000E+00  0.0000E+00  0.0000E+00  0.0000E+00  0.0000E+00  0.0000E+00  0.0000E+00  0.0000E+00  0.0000E+00  0.0000E+00  0.0000E+00  0.0000E+00  0.0000E+00  0.0000E+00  0.0000E+00  0.0000E+00  0.0000E+00
    -32.280  0.1013E+02  0.1013E+02  0.6625E-04  0.6626E-04  0.6564E-06  0.6564E-06  0.6563E-04  0.6563E-04  0.2106E-06  0.2106E-06  0.1601E-07  0.1601E-07  0.7283E-04  0.7284E-04  0.2431E-05  0.2431E-05  0.3806E-04  0.3807E-04
    -32.085  0.0000E+00  0.0000E+00  0.0000E+00  0.0000E+00  0.0000E+00  0.0000E+00  0.0000E+00  0.0000E+00  0.0000E+00  0.0000E+00  0.0000E+00  0.0000E+00  0.0000E+00  0.0000E+00  0.0000E+00  0.0000E+00  0.0000E+00  0.0000E+00
    -31.889  0.0000E+00  0.0000E+00  0.0000E+00  0.0000E+00  0.0000E+00  0.0000E+00  0.0000E+00  0.0000E+00  0.0000E+00  0.0000E+00  0.0000E+00  0.0000E+00  0.0000E+00  0.0000E+00  0.0000E+00  0.0000E+00  0.0000E+00  0.0000E+00
    -31.694  0.0000E+00  0.0000E+00  0.0000E+00  0.0000E+00  0.0000E+00  0.0000E+00  0.0000E+00  0.0000E+00  0.0000E+00  0.0000E+00  0.0000E+00  0.0000E+00  0.0000E+00  0.0000E+00  0.0000E+00  0.0000E+00  0.0000E+00  0.0000E+00
    -31.499  0.0000E+00  0.0000E+00  0.0000E+00  0.0000E+00  0.0000E+00  0.0000E+00  0.0000E+00  0.0000E+00  0.0000E+00  0.0000E+00  0.0000E+00  0.0000E+00  0.0000E+00  0.0000E+00  0.0000E+00  0.0000E+00  0.0000E+00  0.0000E+00
    -31.304  0.0000E+00  0.0000E+00  0.0000E+00  0.0000E+00  0.0000E+00  0.0000E+00  0.0000E+00  0.0000E+00  0.0000E+00  0.0000E+00  0.0000E+00  0.0000E+00  0.0000E+00  0.0000E+00  0.0000E+00  0.0000E+00  0.0000E+00  0.0000E+00
    -31.108  0.0000E+00  0.0000E+00  0.0000E+00  0.0000E+00  0.0000E+00  0.0000E+00  0.0000E+00  0.0000E+00  0.0000E+00  0.0000E+00  0.0000E+00  0.0000E+00  0.0000E+00  0.0000E+00  0.0000E+00  0.0000E+00  0.0000E+00  0.0000E+00
    -30.913  0.0000E+00  0.0000E+00  0.0000E+00  0.0000E+00  0.0000E+00  0.0000E+00  0.0000E+00  0.0000E+00  0.0000E+00  0.0000E+00  0.0000E+00  0.0000E+00  0.0000E+00  0.0000E+00  0.0000E+00  0.0000E+00  0.0000E+00  0.0000E+00
    -30.718  0.0000E+00  0.0000E+00  0.0000E+00  0.0000E+00  0.0000E+00  0.0000E+00  0.0000E+00  0.0000E+00  0.0000E+00  0.0000E+00  0.0000E+00  0.0000E+00  0.0000E+00  0.0000E+00  0.0000E+00  0.0000E+00  0.0000E+00  0.0000E+00
    -30.522  0.0000E+00  0.0000E+00  0.0000E+00  0.0000E+00  0.0000E+00  0.0000E+00  0.0000E+00  0.0000E+00  0.0000E+00  0.0000E+00  0.0000E+00  0.0000E+00  0.0000E+00  0.0000E+00  0.0000E+00  0.0000E+00  0.0000E+00  0.0000E+00
    -30.327  0.0000E+00  0.0000E+00  0.0000E+00  0.0000E+00  0.0000E+00  0.0000E+00  0.0000E+00  0.0000E+00  0.0000E+00  0.0000E+00  0.0000E+00  0.0000E+00  0.0000E+00  0.0000E+00  0.0000E+00  0.0000E+00  0.0000E+00  0.0000E+00
    -30.132  0.0000E+00  0.0000E+00  0.0000E+00  0.0000E+00  0.0000E+00  0.0000E+00  0.0000E+00  0.0000E+00  0.0000E+00  0.0000E+00  0.0000E+00  0.0000E+00  0.0000E+00  0.0000E+00  0.0000E+00  0.0000E+00  0.0000E+00  0.0000E+00
    -29.936  0.0000E+00  0.0000E+00  0.0000E+00  0.0000E+00  0.0000E+00  0.0000E+00  0.0000E+00  0.0000E+00  0.0000E+00  0.0000E+00  0.0000E+00  0.0000E+00  0.0000E+00  0.0000E+00  0.0000E+00  0.0000E+00  0.0000E+00  0.0000E+00
    -29.741  0.0000E+00  0.0000E+00  0.0000E+00  0.0000E+00  0.0000E+00  0.0000E+00  0.0000E+00  0.0000E+00  0.0000E+00  0.0000E+00  0.0000E+00  0.0000E+00  0.0000E+00  0.0000E+00  0.0000E+00  0.0000E+00  0.0000E+00  0.0000E+00
    -29.546  0.0000E+00  0.0000E+00  0.0000E+00  0.0000E+00  0.0000E+00  0.0000E+00  0.0000E+00  0.0000E+00  0.0000E+00  0.0000E+00  0.0000E+00  0.0000E+00  0.0000E+00  0.0000E+00  0.0000E+00  0.0000E+00  0.0000E+00  0.0000E+00
    -29.351  0.0000E+00  0.0000E+00  0.0000E+00  0.0000E+00  0.0000E+00  0.0000E+00  0.0000E+00  0.0000E+00  0.0000E+00  0.0000E+00  0.0000E+00  0.0000E+00  0.0000E+00  0.0000E+00  0.0000E+00  0.0000E+00  0.0000E+00  0.0000E+00
    -29.155  0.0000E+00  0.0000E+00  0.0000E+00  0.0000E+00  0.0000E+00  0.0000E+00  0.0000E+00  0.0000E+00  0.0000E+00  0.0000E+00  0.0000E+00  0.0000E+00  0.0000E+00  0.0000E+00  0.0000E+00  0.0000E+00  0.0000E+00  0.0000E+00
    -28.960  0.0000E+00  0.0000E+00  0.0000E+00  0.0000E+00  0.0000E+00  0.0000E+00  0.0000E+00  0.0000E+00  0.0000E+00  0.0000E+00  0.0000E+00  0.0000E+00  0.0000E+00  0.0000E+00  0.0000E+00  0.0000E+00  0.0000E+00  0.0000E+00
    -28.765  0.0000E+00  0.0000E+00  0.0000E+00  0.0000E+00  0.0000E+00  0.0000E+00  0.0000E+00  0.0000E+00  0.0000E+00  0.0000E+00  0.0000E+00  0.0000E+00  0.0000E+00  0.0000E+00  0.0000E+00  0.0000E+00  0.0000E+00  0.0000E+00
    -28.569  0.0000E+00  0.0000E+00  0.0000E+00  0.0000E+00  0.0000E+00  0.0000E+00  0.0000E+00  0.0000E+00  0.0000E+00  0.0000E+00  0.0000E+00  0.0000E+00  0.0000E+00  0.0000E+00  0.0000E+00  0.0000E+00  0.0000E+00  0.0000E+00
    -28.374  0.0000E+00  0.0000E+00  0.0000E+00  0.0000E+00  0.0000E+00  0.0000E+00  0.0000E+00  0.0000E+00  0.0000E+00  0.0000E+00  0.0000E+00  0.0000E+00  0.0000E+00  0.0000E+00  0.0000E+00  0.0000E+00  0.0000E+00  0.0000E+00
    -28.179  0.0000E+00  0.0000E+00  0.0000E+00  0.0000E+00  0.0000E+00  0.0000E+00  0.0000E+00  0.0000E+00  0.0000E+00  0.0000E+00  0.0000E+00  0.0000E+00  0.0000E+00  0.0000E+00  0.0000E+00  0.0000E+00  0.0000E+00  0.0000E+00
    -27.984  0.2122E-03  0.2123E-03  0.1647E-04  0.1646E-04  0.5197E-04  0.5198E-04  0.1550E-04  0.1550E-04  0.8783E-06  0.8783E-06  0.8846E-05  0.8845E-05  0.5296E-05  0.5296E-05  0.8045E-05  0.8046E-05  0.1004E-05  0.1005E-05
    -27.788  0.0000E+00  0.0000E+00  0.0000E+00  0.0000E+00  0.0000E+00  0.0000E+00  0.0000E+00  0.0000E+00  0.0000E+00  0.0000E+00  0.0000E+00  0.0000E+00  0.0000E+00  0.0000E+00  0.0000E+00  0.0000E+00  0.0000E+00  0.0000E+00
    -27.593  0.0000E+00  0.0000E+00  0.0000E+00  0.0000E+00  0.0000E+00  0.0000E+00  0.0000E+00  0.0000E+00  0.0000E+00  0.0000E+00  0.0000E+00  0.0000E+00  0.0000E+00  0.0000E+00  0.0000E+00  0.0000E+00  0.0000E+00  0.0000E+00
    -27.398  0.0000E+00  0.0000E+00  0.0000E+00  0.0000E+00  0.0000E+00  0.0000E+00  0.0000E+00  0.0000E+00  0.0000E+00  0.0000E+00  0.0000E+00  0.0000E+00  0.0000E+00  0.0000E+00  0.0000E+00  0.0000E+00  0.0000E+00  0.0000E+00
    -27.202  0.0000E+00  0.0000E+00  0.0000E+00  0.0000E+00  0.0000E+00  0.0000E+00  0.0000E+00  0.0000E+00  0.0000E+00  0.0000E+00  0.0000E+00  0.0000E+00  0.0000E+00  0.0000E+00  0.0000E+00  0.0000E+00  0.0000E+00  0.0000E+00
    -27.007  0.0000E+00  0.0000E+00  0.0000E+00  0.0000E+00  0.0000E+00  0.0000E+00  0.0000E+00  0.0000E+00  0.0000E+00  0.0000E+00  0.0000E+00  0.0000E+00  0.0000E+00  0.0000E+00  0.0000E+00  0.0000E+00  0.0000E+00  0.0000E+00
    -26.812  0.0000E+00  0.0000E+00  0.0000E+00  0.0000E+00  0.0000E+00  0.0000E+00  0.0000E+00  0.0000E+00  0.0000E+00  0.0000E+00  0.0000E+00  0.0000E+00  0.0000E+00  0.0000E+00  0.0000E+00  0.0000E+00  0.0000E+00  0.0000E+00
    -26.617  0.0000E+00  0.0000E+00  0.0000E+00  0.0000E+00  0.0000E+00  0.0000E+00  0.0000E+00  0.0000E+00  0.0000E+00  0.0000E+00  0.0000E+00  0.0000E+00  0.0000E+00  0.0000E+00  0.0000E+00  0.0000E+00  0.0000E+00  0.0000E+00
    -26.421  0.0000E+00  0.0000E+00  0.0000E+00  0.0000E+00  0.0000E+00  0.0000E+00  0.0000E+00  0.0000E+00  0.0000E+00  0.0000E+00  0.0000E+00  0.0000E+00  0.0000E+00  0.0000E+00  0.0000E+00  0.0000E+00  0.0000E+00  0.0000E+00
    -26.226  0.0000E+00  0.0000E+00  0.0000E+00  0.0000E+00  0.0000E+00  0.0000E+00  0.0000E+00  0.0000E+00  0.0000E+00  0.0000E+00  0.0000E+00  0.0000E+00  0.0000E+00  0.0000E+00  0.0000E+00  0.0000E+00  0.0000E+00  0.0000E+00
    -26.031  0.0000E+00  0.0000E+00  0.0000E+00  0.0000E+00  0.0000E+00  0.0000E+00  0.0000E+00  0.0000E+00  0.0000E+00  0.0000E+00  0.0000E+00  0.0000E+00  0.0000E+00  0.0000E+00  0.0000E+00  0.0000E+00  0.0000E+00  0.0000E+00
    -25.835  0.0000E+00  0.0000E+00  0.0000E+00  0.0000E+00  0.0000E+00  0.0000E+00  0.0000E+00  0.0000E+00  0.0000E+00  0.0000E+00  0.0000E+00  0.0000E+00  0.0000E+00  0.0000E+00  0.0000E+00  0.0000E+00  0.0000E+00  0.0000E+00
    -25.640  0.0000E+00  0.0000E+00  0.0000E+00  0.0000E+00  0.0000E+00  0.0000E+00  0.0000E+00  0.0000E+00  0.0000E+00  0.0000E+00  0.0000E+00  0.0000E+00  0.0000E+00  0.0000E+00  0.0000E+00  0.0000E+00  0.0000E+00  0.0000E+00
    -25.445  0.0000E+00  0.0000E+00  0.0000E+00  0.0000E+00  0.0000E+00  0.0000E+00  0.0000E+00  0.0000E+00  0.0000E+00  0.0000E+00  0.0000E+00  0.0000E+00  0.0000E+00  0.0000E+00  0.0000E+00  0.0000E+00  0.0000E+00  0.0000E+00
    -25.250  0.0000E+00  0.0000E+00  0.0000E+00  0.0000E+00  0.0000E+00  0.0000E+00  0.0000E+00  0.0000E+00  0.0000E+00  0.0000E+00  0.0000E+00  0.0000E+00  0.0000E+00  0.0000E+00  0.0000E+00  0.0000E+00  0.0000E+00  0.0000E+00