       N       E                     dE             d eps       ncg     rms          rms(c)
DAV:   1     0.132613267262E+03    0.13261E+03   -0.12567E+04 12672   0.798E+02
DAV:   2    -0.277730494188E+02   -0.16039E+03   -0.15077E+03 14784   0.232E+02
DAV:   3    -0.344272595536E+02   -0.66542E+01   -0.66006E+01 22048   0.439E+01
DAV:   4    -0.344901251320E+02   -0.62866E-01   -0.63102E-01 14096   0.288E+00
DAV:   5    -0.344914055483E+02   -0.12804E-02   -0.12942E-02 19440   0.340E-01    0.340E+01
RMM:   6    -0.340248525945E+02    0.46655E+00   -0.28731E+00 13395   0.757E+00    0.145E+01
RMM:   7    -0.337462567602E+02    0.27860E+00   -0.39146E-01 13471   0.419E+00    0.743E+00
RMM:   8    -0.337276490630E+02    0.18608E-01   -0.82612E-02 13923   0.187E+00    0.404E+00
RMM:   9    -0.337293381195E+02   -0.16891E-02   -0.20330E-02 13366   0.904E-01    0.171E+00
RMM:  10    -0.337302822117E+02   -0.94409E-03   -0.67570E-03 13408   0.575E-01    0.702E-01
RMM:  11    -0.337305202106E+02   -0.23800E-03   -0.11766E-03 11404   0.223E-01
   1 F= -.33730520E+02 E0= -.33730520E+02  d E =-.337305E+02  mag=     0.0026
       N       E                     dE             d eps       ncg     rms          rms(c)
DAV:   1    -0.338906976314E+02   -0.16042E+00   -0.23882E+00 18720   0.102E+01    0.403E+00
RMM:   2    -0.337775357412E+02    0.11316E+00   -0.19947E-01 12847   0.252E+00    0.883E-01
RMM:   3    -0.337607650539E+02    0.16771E-01   -0.20470E-02 13762   0.121E+00    0.788E-01
RMM:   4    -0.337581232207E+02    0.26418E-02   -0.89613E-03 13339   0.512E-01    0.802E-01
RMM:   5    -0.337586234779E+02   -0.50026E-03   -0.54245E-03 12696   0.407E-01    0.118E-01
RMM:   6    -0.337588418257E+02   -0.21835E-03   -0.35734E-03 12104   0.253E-01
   2 F= -.33758842E+02 E0= -.33758842E+02  d E =-.283216E-01  mag=     0.0001
       N       E                     dE             d eps       ncg     rms          rms(c)
DAV:   1    -0.338025750168E+02   -0.43952E-01   -0.74867E-01 12896   0.572E+00    0.223E+00
RMM:   2    -0.337673925707E+02    0.35182E-01   -0.60497E-02 12795   0.141E+00    0.472E-01
RMM:   3    -0.337626553017E+02    0.47373E-02   -0.62453E-03 13443   0.664E-01    0.415E-01
RMM:   4    -0.337620144382E+02    0.64086E-03   -0.30833E-03 12259   0.323E-01    0.434E-01
RMM:   5    -0.337623247108E+02   -0.31027E-03   -0.17082E-03 10995   0.235E-01
   3 F= -.33762325E+02 E0= -.33762325E+02  d E =-.318045E-01  mag=    -0.0000
       N       E                     dE             d eps       ncg     rms          rms(c)
DAV:   1    -0.337775960403E+02   -0.15582E-01   -0.79205E-01 16736   0.584E+00    0.690E-01
RMM:   2    -0.337724154330E+02    0.51806E-02   -0.32175E-02 13506   0.830E-01    0.277E-01
RMM:   3    -0.337708511498E+02    0.15643E-02   -0.13108E-03 11418   0.363E-01    0.253E-01
RMM:   4    -0.337705761233E+02    0.27503E-03   -0.77914E-04 10687   0.161E-01
   4 F= -.33770576E+02 E0= -.33770576E+02  d E =-.825141E-02  mag=    -0.0000
       N       E                     dE             d eps       ncg     rms          rms(c)
DAV:   1    -0.337898308152E+02   -0.18980E-01   -0.19373E+00 17552   0.916E+00    0.101E+00
RMM:   2    -0.337767832553E+02    0.13048E-01   -0.78417E-02 13482   0.130E+00    0.489E-01
RMM:   3    -0.337729052943E+02    0.38780E-02   -0.35683E-03 12945   0.576E-01    0.399E-01
RMM:   4    -0.337720469432E+02    0.85835E-03   -0.23060E-03 12843   0.255E-01    0.260E-01
RMM:   5    -0.337720432543E+02    0.36889E-05   -0.84774E-04 10463   0.237E-01
   5 F= -.33772043E+02 E0= -.33772043E+02  d E =-.971854E-02  mag=    -0.0000
       N       E                     dE             d eps       ncg     rms          rms(c)
DAV:   1    -0.337695721738E+02    0.24748E-02   -0.11376E+00 15840   0.759E+00    0.356E-01
RMM:   2    -0.337735089301E+02   -0.39368E-02   -0.46972E-02 12672   0.917E-01    0.325E-01
RMM:   3    -0.337723559692E+02    0.11530E-02   -0.11558E-03 11372   0.378E-01    0.102E-01
RMM:   4    -0.337723587535E+02   -0.27843E-05   -0.19788E-04  8181   0.905E-02
   6 F= -.33772359E+02 E0= -.33772359E+02  d E =-.315499E-03  mag=    -0.0000
       N       E                     dE             d eps       ncg     rms          rms(c)
DAV:   1    -0.337731996500E+02   -0.84368E-03   -0.24326E-01 16064   0.353E+00    0.205E-01
RMM:   2    -0.337740636010E+02   -0.86395E-03   -0.10522E-02 11894   0.434E-01    0.175E-01
RMM:   3    -0.337737731867E+02    0.29041E-03   -0.26913E-04  8747   0.190E-01
   7 F= -.33773773E+02 E0= -.33773773E+02  d E =-.172993E-02  mag=     0.0000
