  10  10   0   0
  0.1257867E+02  0.6014954E-09  0.6063887E-09  0.4319841E-09  0.5000000E-15
  1.000000000000000E-004
  CAR 
 unknown system                          
      9.91413573    -35.21087466  301      2.53512637      1.00000000
    -35.211  0.0000E+00  0.0000E+00
    -35.060  0.0000E+00  0.0000E+00
    -34.910  0.0000E+00  0.0000E+00
    -34.760  0.0000E+00  0.0000E+00
    -34.609  0.0000E+00  0.0000E+00
    -34.459  0.0000E+00  0.0000E+00
    -34.308  0.0000E+00  0.0000E+00
    -34.158  0.0000E+00  0.0000E+00
    -34.008  0.1414E-30  0.2127E-31
    -33.857  0.1305E-20  0.1963E-21
    -33.707  0.1174E-12  0.1766E-13
    -33.556  0.9265E-07  0.1394E-07
    -33.406  0.4395E-03  0.6613E-04
    -33.255 -0.1525E-01 -0.2228E-02
    -33.105  0.3497E+00  0.5038E-01
    -32.955  0.1079E+00  0.6661E-01
    -32.804  0.3331E-03  0.6666E-01
    -32.654  0.4159E-04  0.6667E-01
    -32.503  0.1242E-08  0.6667E-01
    -32.353  0.2655E-15  0.6667E-01
    -32.203  0.0000E+00  0.6667E-01
    -32.052  0.0000E+00  0.6667E-01
    -31.902  0.0000E+00  0.6667E-01
    -31.751  0.0000E+00  0.6667E-01
    -31.601  0.0000E+00  0.6667E-01
    -31.450  0.0000E+00  0.6667E-01
    -31.300  0.0000E+00  0.6667E-01
    -31.150  0.0000E+00  0.6667E-01
    -30.999  0.0000E+00  0.6667E-01
    -30.849  0.0000E+00  0.6667E-01
    -30.698  0.0000E+00  0.6667E-01
    -30.548  0.0000E+00  0.6667E-01
    -30.398  0.0000E+00  0.6667E-01
    -30.247  0.0000E+00  0.6667E-01
    -30.097  0.0000E+00  0.6667E-01
    -29.946  0.0000E+00  0.6667E-01
    -29.796  0.0000E+00  0.6667E-01
    -29.645  0.5650E-28  0.6667E-01
    -29.495  0.1793E-18  0.6667E-01
    -29.345  0.5167E-11  0.6667E-01
    -29.194  0.1142E-05  0.6667E-01
    -29.044  0.8980E-03  0.6680E-01
    -28.893 -0.6571E-02  0.6581E-01
    -28.743  0.2359E+00  0.1013E+00
    -28.593 -0.7756E-02  0.1001E+00
    -28.442 -0.4364E-02  0.9947E-01
    -28.292  0.4525E+00  0.1675E+00
    -28.141 -0.7319E-02  0.1664E+00
    -27.991  0.1599E-02  0.1667E+00
    -27.840  0.3130E-05  0.1667E+00
    -27.690  0.2177E-10  0.1667E+00
    -27.540  0.0000E+00  0.1667E+00
    -27.389  0.0000E+00  0.1667E+00
    -27.239  0.0000E+00  0.1667E+00
    -27.088  0.0000E+00  0.1667E+00
    -26.938  0.0000E+00  0.1667E+00
    -26.788  0.0000E+00  0.1667E+00
    -26.637  0.0000E+00  0.1667E+00
    -26.487  0.0000E+00  0.1667E+00
    -26.336  0.0000E+00  0.1667E+00
    -26.186  0.0000E+00  0.1667E+00
    -26.035  0.0000E+00  0.1667E+00
    -25.885  0.0000E+00  0.1667E+00
    -25.735  0.0000E+00  0.1667E+00
    -25.584  0.0000E+00  0.1667E+00
    -25.434  0.0000E+00  0.1667E+00
    -25.283  0.0000E+00  0.1667E+00
    -25.133  0.0000E+00  0.1667E+00
    -24.983  0.0000E+00  0.1667E+00
    -24.832  0.0000E+00  0.1667E+00
    -24.682  0.0000E+00  0.1667E+00
    -24.531  0.0000E+00  0.1667E+00
    -24.381  0.0000E+00  0.1667E+00
    -24.230  0.0000E+00  0.1667E+00
    -24.080  0.0000E+00  0.1667E+00
    -23.930  0.0000E+00  0.1667E+00
    -23.779  0.0000E+00  0.1667E+00
    -23.629  0.0000E+00  0.1667E+00
    -23.478  0.0000E+00  0.1667E+00
    -23.328  0.0000E+00  0.1667E+00
    -23.178  0.0000E+00  0.1667E+00
    -23.027  0.0000E+00  0.1667E+00
    -22.877  0.0000E+00  0.1667E+00
    -22.726  0.0000E+00  0.1667E+00
    -22.576  0.0000E+00  0.1667E+00
    -22.425  0.0000E+00  0.1667E+00
    -22.275  0.0000E+00  0.1667E+00
    -22.125  0.0000E+00  0.1667E+00
    -21.974  0.0000E+00  0.1667E+00
    -21.824  0.0000E+00  0.1667E+00
    -21.673  0.0000E+00  0.1667E+00
    -21.523  0.0000E+00  0.1667E+00
    -21.373  0.0000E+00  0.1667E+00
    -21.222  0.0000E+00  0.1667E+00
    -21.072  0.0000E+00  0.1667E+00
    -20.921  0.0000E+00  0.1667E+00
    -20.771  0.0000E+00  0.1667E+00
    -20.620  0.0000E+00  0.1667E+00
    -20.470  0.0000E+00  0.1667E+00
    -20.320  0.0000E+00  0.1667E+00
    -20.169  0.0000E+00  0.1667E+00
    -20.019  0.0000E+00  0.1667E+00
    -19.868  0.0000E+00  0.1667E+00
    -19.718  0.0000E+00  0.1667E+00
    -19.568  0.0000E+00  0.1667E+00
    -19.417  0.0000E+00  0.1667E+00
    -19.267  0.0000E+00  0.1667E+00
    -19.116  0.0000E+00  0.1667E+00
    -18.966  0.0000E+00  0.1667E+00
    -18.815  0.0000E+00  0.1667E+00
    -18.665  0.0000E+00  0.1667E+00
    -18.515  0.0000E+00  0.1667E+00
    -18.364  0.0000E+00  0.1667E+00
    -18.214  0.0000E+00  0.1667E+00
    -18.063  0.0000E+00  0.1667E+00
    -17.913  0.0000E+00  0.1667E+00
    -17.763  0.0000E+00  0.1667E+00
    -17.612  0.0000E+00  0.1667E+00
    -17.462  0.0000E+00  0.1667E+00
    -17.311  0.0000E+00  0.1667E+00
    -17.161  0.0000E+00  0.1667E+00
    -17.010  0.0000E+00  0.1667E+00
    -16.860  0.0000E+00  0.1667E+00
    -16.710  0.0000E+00  0.1667E+00
    -16.559  0.0000E+00  0.1667E+00
    -16.409  0.5594E-36  0.1667E+00
    -16.258  0.2827E-25  0.1667E+00
    -16.108  0.1473E-16  0.1667E+00
    -15.958  0.7789E-10  0.1667E+00
    -15.807  0.3807E-05  0.1667E+00
    -15.657  0.7905E-03  0.1668E+00
    -15.506  0.1800E-02  0.1671E+00
    -15.356  0.2861E+00  0.2101E+00
    -15.205  0.4613E+00  0.2795E+00
    -15.055  0.5218E+00  0.3580E+00
    -14.905  0.5726E-01  0.3666E+00
    -14.754  0.5959E-03  0.3667E+00
    -14.604  0.3250E-04  0.3667E+00
    -14.453  0.1659E-08  0.3667E+00
    -14.303  0.7289E-15  0.3667E+00
    -14.153  0.0000E+00  0.3667E+00
    -14.002  0.0000E+00  0.3667E+00
    -13.852  0.0000E+00  0.3667E+00
    -13.701  0.0000E+00  0.3667E+00
    -13.551  0.0000E+00  0.3667E+00
    -13.400  0.0000E+00  0.3667E+00
    -13.250  0.0000E+00  0.3667E+00
    -13.100  0.0000E+00  0.3667E+00
    -12.949  0.0000E+00  0.3667E+00
    -12.799  0.0000E+00  0.3667E+00
    -12.648  0.0000E+00  0.3667E+00
    -12.498  0.0000E+00  0.3667E+00
    -12.348  0.0000E+00  0.3667E+00
    -12.197  0.0000E+00  0.3667E+00
    -12.047  0.0000E+00  0.3667E+00
    -11.896  0.0000E+00  0.3667E+00
    -11.746  0.0000E+00  0.3667E+00
    -11.595  0.0000E+00  0.3667E+00
    -11.445  0.0000E+00  0.3667E+00
    -11.295  0.0000E+00  0.3667E+00
    -11.144  0.0000E+00  0.3667E+00
    -10.994  0.0000E+00  0.3667E+00
    -10.843  0.0000E+00  0.3667E+00
    -10.693  0.0000E+00  0.3667E+00
    -10.543  0.0000E+00  0.3667E+00
    -10.392  0.0000E+00  0.3667E+00
    -10.242  0.0000E+00  0.3667E+00
    -10.091  0.0000E+00  0.3667E+00
     -9.941  0.0000E+00  0.3667E+00
     -9.790  0.0000E+00  0.3667E+00
     -9.640  0.0000E+00  0.3667E+00
     -9.490  0.0000E+00  0.3667E+00
     -9.339  0.0000E+00  0.3667E+00
     -9.189  0.0000E+00  0.3667E+00
     -9.038  0.0000E+00  0.3667E+00
     -8.888  0.0000E+00  0.3667E+00
     -8.738  0.0000E+00  0.3667E+00
     -8.587  0.0000E+00  0.3667E+00
     -8.437  0.0000E+00  0.3667E+00
     -8.286  0.0000E+00  0.3667E+00
     -8.136  0.0000E+00  0.3667E+00
     -7.985  0.0000E+00  0.3667E+00
     -7.835  0.0000E+00  0.3667E+00
     -7.685  0.0000E+00  0.3667E+00
     -7.534  0.0000E+00  0.3667E+00
     -7.384  0.0000E+00  0.3667E+00
     -7.233  0.0000E+00  0.3667E+00
     -7.083  0.0000E+00  0.3667E+00
     -6.933  0.0000E+00  0.3667E+00
     -6.782  0.0000E+00  0.3667E+00
     -6.632  0.0000E+00  0.3667E+00
     -6.481  0.0000E+00  0.3667E+00
     -6.331  0.0000E+00  0.3667E+00
     -6.180  0.0000E+00  0.3667E+00
     -6.030  0.3204E-29  0.3667E+00
     -5.880  0.4976E-20  0.3667E+00
     -5.729  0.6886E-13  0.3667E+00
     -5.579  0.6994E-08  0.3667E+00
     -5.428  0.2541E-05  0.3667E+00
     -5.278 -0.1046E-04  0.3667E+00
     -5.128  0.2061E-02  0.3670E+00
     -4.977  0.4488E-02  0.3677E+00
     -4.827  0.9997E-02  0.3692E+00
     -4.676  0.9117E-02  0.3705E+00
     -4.526  0.1626E-01  0.3730E+00
     -4.375  0.1651E-01  0.3755E+00
     -4.225  0.2666E-01  0.3795E+00
     -4.075  0.2736E-01  0.3836E+00
     -3.924  0.2438E-01  0.3872E+00
     -3.774  0.2822E-01  0.3915E+00
     -3.623  0.3305E-01  0.3965E+00
     -3.473  0.2082E-01  0.3996E+00
     -3.323  0.2723E-02  0.4000E+00
     -3.172 -0.3768E-04  0.4000E+00
     -3.022 -0.2081E-04  0.4000E+00
     -2.871  0.2564E-02  0.4004E+00
     -2.721  0.2204E-01  0.4037E+00
     -2.570  0.4019E-01  0.4097E+00
     -2.420  0.6672E-01  0.4198E+00
     -2.270  0.9993E-01  0.4348E+00
     -2.119  0.8041E-01  0.4469E+00
     -1.969  0.6365E-01  0.4565E+00
     -1.818  0.1076E+00  0.4727E+00
     -1.668  0.1062E+00  0.4886E+00
     -1.518  0.6946E-01  0.4991E+00
     -1.367  0.7242E-01  0.5100E+00
     -1.217  0.1239E+00  0.5286E+00
     -1.066  0.2077E+00  0.5599E+00
     -0.916  0.8514E-01  0.5727E+00
     -0.765  0.4202E-01  0.5790E+00
     -0.615  0.2794E-01  0.5832E+00
     -0.465  0.2733E-01  0.5873E+00
     -0.314  0.3462E-01  0.5925E+00
     -0.164  0.4795E-01  0.5997E+00
     -0.013  0.1779E-02  0.6000E+00
      0.137  0.7789E-04  0.6000E+00
      0.287  0.1721E-05  0.6000E+00
      0.438  0.1118E-09  0.6000E+00
      0.588  0.6175E-16  0.6000E+00
      0.739  0.3146E-29  0.6000E+00
      0.889  0.5661E-20  0.6000E+00
      1.040  0.9249E-13  0.6000E+00
      1.190  0.1190E-07  0.6000E+00
      1.340  0.6734E-05  0.6000E+00
      1.491 -0.4230E-04  0.6000E+00
      1.641  0.3490E-02  0.6005E+00
      1.792  0.1004E-01  0.6020E+00
      1.942  0.1988E-01  0.6050E+00
      2.092  0.4434E-01  0.6117E+00
      2.243  0.5547E-01  0.6200E+00
      2.393  0.6059E-01  0.6291E+00
      2.544  0.2797E-01  0.6334E+00
      2.694 -0.1498E-03  0.6333E+00
      2.845  0.2271E-03  0.6334E+00
      2.995  0.1689E-01  0.6359E+00
      3.145  0.2806E-01  0.6401E+00
      3.296  0.5480E-01  0.6484E+00
      3.446  0.5902E-01  0.6573E+00
      3.597  0.9150E-01  0.6710E+00
      3.747  0.5905E-01  0.6799E+00
      3.897  0.7159E-01  0.6907E+00
      4.048  0.8807E-01  0.7039E+00
      4.198  0.7366E-01  0.7150E+00
      4.349  0.8176E-01  0.7273E+00
      4.499  0.8540E-01  0.7401E+00
      4.650  0.8755E-01  0.7533E+00
      4.800  0.7781E-01  0.7650E+00
      4.950  0.4298E-01  0.7715E+00
      5.101  0.4173E-01  0.7778E+00
      5.251  0.5760E-01  0.7864E+00
      5.402  0.5429E-01  0.7946E+00
      5.552  0.5269E-01  0.8025E+00
      5.702  0.5773E-01  0.8112E+00
      5.853  0.5970E-01  0.8202E+00
      6.003  0.4633E-01  0.8271E+00
      6.154  0.4913E-01  0.8345E+00
      6.304  0.5280E-01  0.8425E+00
      6.455  0.5019E-01  0.8500E+00
      6.605  0.6659E-01  0.8600E+00
      6.755  0.7666E-01  0.8716E+00
      6.906  0.8133E-01  0.8838E+00
      7.056  0.6463E-01  0.8935E+00
      7.207  0.8805E-01  0.9068E+00
      7.357  0.6418E-01  0.9164E+00
      7.507  0.5173E-01  0.9242E+00
      7.658  0.3489E-01  0.9295E+00
      7.808  0.2400E-01  0.9331E+00
      7.959  0.1825E-02  0.9333E+00
      8.109 -0.1459E-04  0.9333E+00
      8.260  0.2366E-05  0.9333E+00
      8.410  0.6917E-09  0.9333E+00
      8.560  0.1327E-14  0.9333E+00
      8.711  0.0000E+00  0.9333E+00
      8.861  0.0000E+00  0.9333E+00
      9.012  0.0000E+00  0.9333E+00
      9.162  0.0000E+00  0.9333E+00
      9.312  0.0000E+00  0.9333E+00
      9.463  0.0000E+00  0.9333E+00
      9.613  0.0000E+00  0.9333E+00
      9.764  0.0000E+00  0.9333E+00
      9.914  0.0000E+00  0.9333E+00
