Automatically generated mesh
      61
Reciprocal lattice
    0.00000000000000    0.00000000000000    0.00000000000000             1
    0.20000000000000    0.00000000000000    0.00000000000000             2
    0.40000000000000    0.00000000000000    0.00000000000000             2
    0.00000000000000    0.33333333333333    0.00000000000000             2
    0.20000000000000    0.33333333333333    0.00000000000000             2
    0.40000000000000    0.33333333333333    0.00000000000000             2
   -0.40000000000000    0.33333333333333    0.00000000000000             2
   -0.20000000000000    0.33333333333333    0.00000000000000             2
    0.00000000000000    0.00000000000000    0.12500000000000             2
    0.20000000000000    0.00000000000000    0.12500000000000             2
    0.40000000000000    0.00000000000000    0.12500000000000             2
   -0.40000000000000    0.00000000000000    0.12500000000000             2
   -0.20000000000000    0.00000000000000    0.12500000000000             2
    0.00000000000000    0.33333333333333    0.12500000000000             2
    0.20000000000000    0.33333333333333    0.12500000000000             2
    0.40000000000000    0.33333333333333    0.12500000000000             2
   -0.40000000000000    0.33333333333333    0.12500000000000             2
   -0.20000000000000    0.33333333333333    0.12500000000000             2
    0.00000000000000   -0.33333333333333    0.12500000000000             2
    0.20000000000000   -0.33333333333333    0.12500000000000             2
    0.40000000000000   -0.33333333333333    0.12500000000000             2
   -0.40000000000000   -0.33333333333333    0.12500000000000             2
   -0.20000000000000   -0.33333333333333    0.12500000000000             2
    0.00000000000000    0.00000000000000    0.25000000000000             2
    0.20000000000000    0.00000000000000    0.25000000000000             2
    0.40000000000000    0.00000000000000    0.25000000000000             2
   -0.40000000000000    0.00000000000000    0.25000000000000             2
   -0.20000000000000    0.00000000000000    0.25000000000000             2
    0.00000000000000    0.33333333333333    0.25000000000000             2
    0.20000000000000    0.33333333333333    0.25000000000000             2
    0.40000000000000    0.33333333333333    0.25000000000000             2
   -0.40000000000000    0.33333333333333    0.25000000000000             2
   -0.20000000000000    0.33333333333333    0.25000000000000             2
    0.00000000000000   -0.33333333333333    0.25000000000000             2
    0.20000000000000   -0.33333333333333    0.25000000000000             2
    0.40000000000000   -0.33333333333333    0.25000000000000             2
   -0.40000000000000   -0.33333333333333    0.25000000000000             2
   -0.20000000000000   -0.33333333333333    0.25000000000000             2
    0.00000000000000    0.00000000000000    0.37500000000000             2
    0.20000000000000    0.00000000000000    0.37500000000000             2
    0.40000000000000    0.00000000000000    0.37500000000000             2
   -0.40000000000000    0.00000000000000    0.37500000000000             2
   -0.20000000000000    0.00000000000000    0.37500000000000             2
    0.00000000000000    0.33333333333333    0.37500000000000             2
    0.20000000000000    0.33333333333333    0.37500000000000             2
    0.40000000000000    0.33333333333333    0.37500000000000             2
   -0.40000000000000    0.33333333333333    0.37500000000000             2
   -0.20000000000000    0.33333333333333    0.37500000000000             2
    0.00000000000000   -0.33333333333333    0.37500000000000             2
    0.20000000000000   -0.33333333333333    0.37500000000000             2
    0.40000000000000   -0.33333333333333    0.37500000000000             2
   -0.40000000000000   -0.33333333333333    0.37500000000000             2
   -0.20000000000000   -0.33333333333333    0.37500000000000             2
    0.00000000000000    0.00000000000000    0.50000000000000             1
    0.20000000000000    0.00000000000000    0.50000000000000             2
    0.40000000000000    0.00000000000000    0.50000000000000             2
    0.00000000000000    0.33333333333333    0.50000000000000             2
    0.20000000000000    0.33333333333333    0.50000000000000             2
    0.40000000000000    0.33333333333333    0.50000000000000             2
   -0.40000000000000    0.33333333333333    0.50000000000000             2
   -0.20000000000000    0.33333333333333    0.50000000000000             2
Tetrahedra
       358    0.00138888888889
         2         1         4         5        15
         2         1         2         5        15
         2         1         2        10        15
         2         1         4        14        15
         2         1         9        14        15
         2         1         9        10        15
         2         2         5         6        16
         2         2         3         6        16
         2         2         3        11        16
         2         2         5        15        16
         2         2        10        15        16
         2         2        10        11        16
         2         3         6         7        17
         2         3         3         7        17
         2         3         3        12        17
         2         3         6        16        17
         2         3        11        16        17
         2         3        11        12        17
         2         3         7         8        18
         2         2         3         8        18
         2         2         3        13        18
         2         3         7        17        18
         2         3        12        17        18
         2         3        12        13        18
         2         2         4         8        14
         2         1         2         4        14
         2         1         2         9        14
         2         2         8        14        18
         2         2        13        14        18
         2         2         9        13        14
         2         4         4         8        20
         2         4         5         8        20
         2         4         5        15        20
         2         4         4        19        20
         2         4        14        19        20
         2         4        14        15        20
         2         5         7         8        21
         2         5         6         7        21
         2         5         6        16        21
         2         5         8        20        21
         2         5        15        20        21
         2         5        15        16        21
         4         6         6         7        22
         2         6         7        17        22
         2         6         7        21        22
         2         6        16        21        22
         2         6        16        17        22
         2         5         6         7        23
         2         5         7         8        23
         2         7         8        18        23
         2         6         7        22        23
         2         7        17        22        23
         2         7        17        18        23
         2         4         5         8        19
         2         4         4         8        19
         2         4         8        14        19
         2         5         8        19        23
         2         8        18        19        23
         2         8        14        18        19
         2         1         2         4        10
         2         2         4         8        10
         2         4         8        10        20
         2         1         4         9        10
         2         4         9        10        19
         2         4        10        19        20
         2         2         3         8        11
         2         3         7         8        11
         2         7         8        11        21
         2         2         8        10        11
         2         8        10        11        20
         2         8        11        20        21
         2         3         3         7        12
         2         3         6         7        12
         2         6         7        12        22
         2         3         7        11        12
         2         7        11        12        21
         2         7        12        21        22
         2         2         3         6        13
         2         2         5         6        13
         2         5         6        13        23
         2         3         6        12        13
         2         6        12        13        22
         2         6        13        22        23
         2         1         2         5         9
         2         1         4         5         9
         2         4         5         9        19
         2         2         5         9        13
         2         5         9        13        23
         2         5         9        19        23
         2         9        14        15        30
         2         9        10        15        30
         2         9        10        25        30
         2         9        14        29        30
         2         9        24        29        30
         2         9        24        25        30
         2        10        15        16        31
         2        10        11        16        31
         2        10        11        26        31
         2        10        15        30        31
         2        10        25        30        31
         2        10        25        26        31
         2        11        16        17        32
         2        11        12        17        32
         2        11        12        27        32
         2        11        16        31        32
         2        11        26        31        32
         2        11        26        27        32
         2        12        17        18        33
         2        12        13        18        33
         2        12        13        28        33
         2        12        17        32        33
         2        12        27        32        33
         2        12        27        28        33
         2        13        14        18        29
         2         9        13        14        29
         2         9        13        24        29
         2        13        18        29        33
         2        13        28        29        33
         2        13        24        28        29
         2        14        19        20        35
         2        14        15        20        35
         2        14        15        30        35
         2        14        19        34        35
         2        14        29        34        35
         2        14        29        30        35
         2        15        20        21        36
         2        15        16        21        36
         2        15        16        31        36
         2        15        20        35        36
         2        15        30        35        36
         2        15        30        31        36
         2        16        21        22        37
         2        16        17        22        37
         2        16        17        32        37
         2        16        21        36        37
         2        16        31        36        37
         2        16        31        32        37
         2        17        22        23        38
         2        17        18        23        38
         2        17        18        33        38
         2        17        22        37        38
         2        17        32        37        38
         2        17        32        33        38
         2        18        19        23        34
         2        14        18        19        34
         2        14        18        29        34
         2        18        23        34        38
         2        18        33        34        38
         2        18        29        33        34
         2         9        10        19        25
         2        10        19        20        25
         2        19        20        25        35
         2         9        19        24        25
         2        19        24        25        34
         2        19        25        34        35
         2        10        11        20        26
         2        11        20        21        26
         2        20        21        26        36
         2        10        20        25        26
         2        20        25        26        35
         2        20        26        35        36
         2        11        12        21        27
         2        12        21        22        27
         2        21        22        27        37
         2        11        21        26        27
         2        21        26        27        36
         2        21        27        36        37
         2        12        13        22        28
         2        13        22        23        28
         2        22        23        28        38
         2        12        22        27        28
         2        22        27        28        37
         2        22        28        37        38
         2         9        13        23        24
         2         9        19        23        24
         2        19        23        24        34
         2        13        23        24        28
         2        23        24        28        38
         2        23        24        34        38
         2        24        29        30        45
         2        24        25        30        45
         2        24        25        40        45
         2        24        29        44        45
         2        24        39        44        45
         2        24        39        40        45
         2        25        30        31        46
         2        25        26        31        46
         2        25        26        41        46
         2        25        30        45        46
         2        25        40        45        46
         2        25        40        41        46
         2        26        31        32        47
         2        26        27        32        47
         2        26        27        42        47
         2        26        31        46        47
         2        26        41        46        47
         2        26        41        42        47
         2        27        32        33        48
         2        27        28        33        48
         2        27        28        43        48
         2        27        32        47        48
         2        27        42        47        48
         2        27        42        43        48
         2        28        29        33        44
         2        24        28        29        44
         2        24        28        39        44
         2        28        33        44        48
         2        28        43        44        48
         2        28        39        43        44
         2        29        34        35        50
         2        29        30        35        50
         2        29        30        45        50
         2        29        34        49        50
         2        29        44        49        50
         2        29        44        45        50
         2        30        35        36        51
         2        30        31        36        51
         2        30        31        46        51
         2        30        35        50        51
         2        30        45        50        51
         2        30        45        46        51
         2        31        36        37        52
         2        31        32        37        52
         2        31        32        47        52
         2        31        36        51        52
         2        31        46        51        52
         2        31        46        47        52
         2        32        37        38        53
         2        32        33        38        53
         2        32        33        48        53
         2        32        37        52        53
         2        32        47        52        53
         2        32        47        48        53
         2        33        34        38        49
         2        29        33        34        49
         2        29        33        44        49
         2        33        38        49        53
         2        33        48        49        53
         2        33        44        48        49
         2        24        25        34        40
         2        25        34        35        40
         2        34        35        40        50
         2        24        34        39        40
         2        34        39        40        49
         2        34        40        49        50
         2        25        26        35        41
         2        26        35        36        41
         2        35        36        41        51
         2        25        35        40        41
         2        35        40        41        50
         2        35        41        50        51
         2        26        27        36        42
         2        27        36        37        42
         2        36        37        42        52
         2        26        36        41        42
         2        36        41        42        51
         2        36        42        51        52
         2        27        28        37        43
         2        28        37        38        43
         2        37        38        43        53
         2        27        37        42        43
         2        37        42        43        52
         2        37        43        52        53
         2        24        28        38        39
         2        24        34        38        39
         2        34        38        39        49
         2        28        38        39        43
         2        38        39        43        53
         2        38        39        49        53
         2        39        44        45        58
         2        39        40        45        58
         2        39        40        55        58
         2        39        44        57        58
         2        39        54        57        58
         2        39        54        55        58
         2        40        45        46        59
         2        40        41        46        59
         2        40        41        56        59
         2        40        45        58        59
         2        40        55        58        59
         2        40        55        56        59
         2        41        46        47        60
         2        41        42        47        60
         2        41        42        56        60
         2        41        46        59        60
         2        41        56        59        60
         2        41        56        56        60
         2        42        47        48        61
         2        42        43        48        61
         2        42        43        55        61
         2        42        47        60        61
         2        42        56        60        61
         2        42        55        56        61
         2        43        44        48        57
         2        39        43        44        57
         2        39        43        54        57
         2        43        48        57        61
         2        43        55        57        61
         2        43        54        55        57
         2        44        49        50        61
         2        44        45        50        61
         2        44        45        58        61
         2        44        49        57        61
         2        44        57        57        61
         2        44        57        58        61
         2        45        50        51        60
         2        45        46        51        60
         2        45        46        59        60
         2        45        50        60        61
         2        45        58        60        61
         2        45        58        59        60
         2        46        51        52        59
         2        46        47        52        59
         2        46        47        59        60
         2        46        51        59        60
         4        46        59        59        60
         2        47        52        53        58
         2        47        48        53        58
         2        47        48        58        61
         2        47        52        58        59
         2        47        58        59        60
         2        47        58        60        61
         2        48        49        53        57
         2        44        48        49        57
         2        44        48        57        57
         2        48        53        57        58
         2        48        57        58        61
         2        48        57        57        61
         2        39        40        49        55
         2        40        49        50        55
         2        49        50        55        61
         2        39        49        54        55
         2        49        54        55        57
         2        49        55        57        61
         2        40        41        50        56
         2        41        50        51        56
         2        50        51        56        60
         2        40        50        55        56
         2        50        55        56        61
         2        50        56        60        61
         2        41        42        51        56
         2        42        51        52        56
         2        51        52        56        59
         2        41        51        56        56
         2        51        56        56        60
         2        51        56        59        60
         2        42        43        52        55
         2        43        52        53        55
         2        52        53        55        58
         2        42        52        55        56
         2        52        55        56        59
         2        52        55        58        59
         2        39        43        53        54
         2        39        49        53        54
         2        49        53        54        57
         2        43        53        54        55
         2        53        54        55        58
         2        53        54        57        58
