unknown system                          
           1
     5.625452   -0.492140    0.004269
     0.434830    3.991723   -0.236087
    -0.257987    0.197553    6.059922
   Sr   Nb   H 
   2   1   9
Direct configuration=     1
   0.61225700  0.61663500  0.23267600
   0.08393800  0.68215800  0.80396800
   0.12881900  0.15328600  0.33774200
   0.89265100  0.95750900  0.47362900
   0.21838900  0.62944500  0.38746800
   0.44800000  0.12259800  0.40806800
   0.62978100  0.63780300  0.84034200
   0.90571000  0.39989200  0.46907000
   0.30187100  0.10409600  0.07491100
   0.91448400  0.98409600  0.12695700
   0.19852000  0.17122000  0.63707000
   0.00060200  0.42800100  0.13859300
unknown system                          
           1
     5.673519   -0.497228    0.004232
     0.438211    4.029144   -0.237429
    -0.260205    0.200330    6.109620
   Sr   Nb   H 
   2   1   9
Direct configuration=     2
   0.61258453  0.61688215  0.23282945
   0.08366149  0.68205826  0.80385927
   0.12805876  0.15265359  0.33799077
   0.89332423  0.95775256  0.47340528
   0.21841685  0.62955312  0.38727312
   0.44768943  0.12277721  0.40786181
   0.62999800  0.63788298  0.84052277
   0.90600576  0.39977890  0.46893329
   0.30151805  0.10429053  0.07492660
   0.91488896  0.98427943  0.12740554
   0.19843468  0.17125908  0.63662002
   0.00044126  0.42757118  0.13886607
unknown system                          
           1
     5.709313   -0.501017    0.004204
     0.440729    4.057010   -0.238429
    -0.261857    0.202397    6.146629
   Sr   Nb   H 
   2   1   9
Direct configuration=     3
   0.61282640  0.61706451  0.23294277
   0.08345732  0.68198466  0.80377896
   0.12749738  0.15218684  0.33817458
   0.89382133  0.95793241  0.47324002
   0.21843742  0.62963294  0.38712917
   0.44746013  0.12290942  0.40770949
   0.63015823  0.63794199  0.84065628
   0.90622412  0.39969553  0.46883234
   0.30125746  0.10443398  0.07493810
   0.91518800  0.98441473  0.12773683
   0.19837167  0.17128800  0.63628765
   0.00032255  0.42725399  0.13906781
unknown system                          
           1
     5.722753   -0.500241    0.007810
     0.443956    4.077387   -0.238004
    -0.258423    0.204089    6.157061
   Sr   Nb   H 
   2   1   9
Direct configuration=     4
   0.61329283  0.61752216  0.23323579
   0.08285888  0.68191282  0.80342508
   0.12804698  0.15562257  0.33761661
   0.89520123  0.95809409  0.47265182
   0.21819158  0.62885905  0.38658799
   0.44510004  0.12312426  0.40674878
   0.63075349  0.63801979  0.84158655
   0.90744728  0.39844449  0.46786568
   0.29967077  0.10448836  0.07633918
   0.91627017  0.98437668  0.12905268
   0.19756982  0.17105912  0.63498151
   0.00061891  0.42521560  0.14040233
unknown system                          
           1
     5.729360   -0.499859    0.009582
     0.445542    4.087403   -0.237795
    -0.256735    0.204921    6.162188
   Sr   Nb   H 
   2   1   9
Direct configuration=     5
   0.61352143  0.61774582  0.23337937
   0.08256554  0.68187788  0.80325162
   0.12831636  0.15730286  0.33734222
   0.89587807  0.95817298  0.47236277
   0.21807127  0.62848073  0.38632262
   0.44394299  0.12323005  0.40627804
   0.63104509  0.63805752  0.84204284
   0.90804752  0.39783258  0.46739116
   0.29889225  0.10451503  0.07702713
   0.91680043  0.98435757  0.12969804
   0.19717705  0.17094761  0.63434086
   0.00076401  0.42421836  0.14105734
unknown system                          
           1
     5.733696   -0.503255    0.015188
     0.444339    4.100199   -0.237317
    -0.250953    0.205701    6.161723
   Sr   Nb   H 
   2   1   9
Direct configuration=     6
   0.61420814  0.61852450  0.23390548
   0.08185740  0.68190928  0.80280762
   0.12807617  0.15575248  0.33779658
   0.89788818  0.95897130  0.47142476
   0.21782969  0.62802943  0.38558439
   0.44199551  0.12377768  0.40515554
   0.63182022  0.63818812  0.84319375
   0.90883760  0.39757575  0.46655280
   0.29733611  0.10486456  0.07816137
   0.91829532  0.98460611  0.13125453
   0.19626800  0.17111631  0.63305407
   0.00060966  0.42342349  0.14160310
unknown system                          
           1
     5.735499   -0.504667    0.017518
     0.443839    4.105517   -0.237119
    -0.248549    0.206025    6.161529
   Sr   Nb   H 
   2   1   9
Direct configuration=     7
   0.61449321  0.61884727  0.23412383
   0.08156354  0.68192212  0.80262335
   0.12797597  0.15511000  0.33798563
   0.89872336  0.95930282  0.47103412
   0.21772959  0.62784247  0.38527770
   0.44118742  0.12400410  0.40468967
   0.63214164  0.63824233  0.84367179
   0.90916596  0.39746970  0.46620410
   0.29668955  0.10500873  0.07863332
   0.91891546  0.98470935  0.13190086
   0.19589110  0.17118609  0.63251958
   0.00054520  0.42309404  0.14183005
unknown system                          
           1
     5.743065   -0.507596    0.020929
     0.442279    4.106578   -0.236797
    -0.245289    0.206416    6.163471
   Sr   Nb   H 
   2   1   9
Direct configuration=     8
   0.61489014  0.61954608  0.23474352
   0.08110655  0.68193993  0.80241828
   0.12814315  0.15474629  0.33728415
   0.89914766  0.95888812  0.47102289
   0.21755505  0.62758148  0.38477715
   0.44112551  0.12427983  0.40410361
   0.63279235  0.63833129  0.84448328
   0.90905072  0.39794407  0.46602857
   0.29600885  0.10504106  0.07871308
   0.91955745  0.98422037  0.13251631
   0.19536388  0.17132071  0.63267097
   0.00028069  0.42289979  0.14173217
unknown system                          
           1
     5.761398   -0.514695    0.029196
     0.438498    4.109150   -0.236017
    -0.237389    0.207363    6.168178
   Sr   Nb   H 
   2   1   9
Direct configuration=     9
   0.61585026  0.62123939  0.23624409
   0.08000099  0.68198251  0.80192209
   0.12854843  0.15386563  0.33558472
   0.90017412  0.95788404  0.47099522
   0.21713321  0.62694912  0.38356486
   0.44097670  0.12494796  0.40268395
   0.63436592  0.63854741  0.84644822
   0.90877244  0.39909322  0.46560342
   0.29436155  0.10511843  0.07890717
   0.92110977  0.98303638  0.13400644
   0.19408798  0.17164606  0.63303836
  -0.00035938  0.42242885  0.14149543
