       N       E                     dE             d eps       ncg     rms          rms(c)
DAV:   1     0.125949620887E+03    0.12595E+03   -0.10712E+04 15840   0.711E+02
DAV:   2    -0.337172982949E+02   -0.15967E+03   -0.15263E+03 18904   0.280E+02
DAV:   3    -0.435862113098E+02   -0.98689E+01   -0.97673E+01 24496   0.553E+01
DAV:   4    -0.439857460516E+02   -0.39953E+00   -0.39887E+00 22496   0.991E+00
DAV:   5    -0.439916338349E+02   -0.58878E-02   -0.58875E-02 23384   0.952E-01    0.325E+01
DAV:   6    -0.418952876422E+02    0.20963E+01   -0.22529E+00 22016   0.112E+01    0.160E+01
DAV:   7    -0.412948165684E+02    0.60047E+00   -0.19465E+00 20256   0.785E+00    0.512E+00
DAV:   8    -0.412586550432E+02    0.36162E-01   -0.41382E-01 21296   0.411E+00    0.214E+00
DAV:   9    -0.412615539480E+02   -0.28989E-02   -0.45914E-02 19544   0.144E+00    0.610E-01
DAV:  10    -0.412624513377E+02   -0.89739E-03   -0.14944E-02 21504   0.818E-01    0.217E-01
DAV:  11    -0.412628994236E+02   -0.44809E-03   -0.27322E-03 19880   0.365E-01    0.709E-02
DAV:  12    -0.412631848871E+02   -0.28546E-03   -0.39840E-04 18224   0.122E-01    0.448E-02
DAV:  13    -0.412632622815E+02   -0.77394E-04   -0.79104E-05 14480   0.532E-02
   1 F= -.41263262E+02 E0= -.41263210E+02  d E =-.412633E+02
       N       E                     dE             d eps       ncg     rms          rms(c)
DAV:   1    -0.225060284320E+02    0.18757E+02   -0.40844E+03 18544   0.221E+02    0.322E+01
DAV:   2    -0.426449078888E+02   -0.20139E+02   -0.24853E+02 22064   0.897E+01    0.233E+01
DAV:   3    -0.394844884524E+02    0.31604E+01   -0.20444E+01 22616   0.313E+01    0.103E+01
DAV:   4    -0.391367888502E+02    0.34770E+00   -0.18778E+00 21368   0.876E+00    0.906E+00
DAV:   5    -0.390417078754E+02    0.95081E-01   -0.68099E-01 26136   0.479E+00    0.502E+00
DAV:   6    -0.391487589986E+02   -0.10705E+00   -0.15121E-01 21888   0.204E+00    0.269E+00
DAV:   7    -0.392073117397E+02   -0.58553E-01   -0.57254E-02 22616   0.126E+00    0.708E-01
DAV:   8    -0.392175609588E+02   -0.10249E-01   -0.11579E-02 17136   0.580E-01    0.316E-01
DAV:   9    -0.392183060249E+02   -0.74507E-03   -0.12593E-03 21056   0.199E-01    0.140E-01
DAV:  10    -0.392185424202E+02   -0.23640E-03   -0.55361E-04 20208   0.129E-01    0.283E-02
DAV:  11    -0.392185677789E+02   -0.25359E-04   -0.39501E-05 12456   0.375E-02
   2 F= -.39218568E+02 E0= -.39218583E+02  d E =0.204469E+01
       N       E                     dE             d eps       ncg     rms          rms(c)
DAV:   1    -0.392139162134E+02    0.46262E-02   -0.15085E+01 14832   0.318E+01    0.190E+00
DAV:   2    -0.394439473499E+02   -0.23003E+00   -0.24674E+00 14840   0.866E+00    0.145E+00
DAV:   3    -0.394126868447E+02    0.31261E-01   -0.14454E-01 22048   0.220E+00    0.745E-01
DAV:   4    -0.394111835527E+02    0.15033E-02   -0.72918E-03 19648   0.516E-01    0.522E-01
DAV:   5    -0.394108545451E+02    0.32901E-03   -0.33174E-03 22352   0.414E-01    0.226E-01
DAV:   6    -0.394109881445E+02   -0.13360E-03   -0.70415E-04 21168   0.153E-01    0.113E-01
DAV:   7    -0.394110129858E+02   -0.24841E-04   -0.57165E-05 12544   0.533E-02
   3 F= -.39411013E+02 E0= -.39410942E+02  d E =0.185225E+01
       N       E                     dE             d eps       ncg     rms          rms(c)
DAV:   1    -0.389952141185E+02    0.41577E+00   -0.62751E+01 14832   0.640E+01    0.434E+00
DAV:   2    -0.398646828163E+02   -0.86947E+00   -0.94883E+00 14832   0.174E+01    0.269E+00
DAV:   3    -0.397791487493E+02    0.85534E-01   -0.47909E-01 22048   0.411E+00    0.176E+00
DAV:   4    -0.397692487859E+02    0.99000E-02   -0.31010E-02 20288   0.103E+00    0.123E+00
DAV:   5    -0.397675226640E+02    0.17261E-02   -0.12742E-02 20944   0.778E-01    0.601E-01
DAV:   6    -0.397681018591E+02   -0.57920E-03   -0.30751E-03 23528   0.315E-01    0.321E-01
DAV:   7    -0.397682388012E+02   -0.13694E-03   -0.22575E-04 16360   0.101E-01    0.117E-01
DAV:   8    -0.397682460317E+02   -0.72305E-05   -0.58246E-05 10920   0.556E-02
   4 F= -.39768246E+02 E0= -.39767784E+02  d E =0.149502E+01
       N       E                     dE             d eps       ncg     rms          rms(c)
DAV:   1    -0.370907351262E+02    0.26775E+01   -0.28116E+02 14832   0.131E+02    0.682E+00
DAV:   2    -0.402530905750E+02   -0.31624E+01   -0.34172E+01 14832   0.318E+01    0.319E+00
DAV:   3    -0.402295256381E+02    0.23565E-01   -0.72771E-01 22168   0.556E+00    0.283E+00
DAV:   4    -0.402094641122E+02    0.20062E-01   -0.63022E-02 20592   0.143E+00    0.214E+00
DAV:   5    -0.402058114479E+02    0.36527E-02   -0.25679E-02 23984   0.113E+00    0.117E+00
DAV:   6    -0.402071355132E+02   -0.13241E-02   -0.63822E-03 24736   0.485E-01    0.352E-01
DAV:   7    -0.402072780155E+02   -0.14250E-03   -0.44890E-04 18176   0.129E-01    0.109E-01
DAV:   8    -0.402072753897E+02    0.26259E-05   -0.63682E-05 11256   0.656E-02
   5 F= -.40207275E+02 E0= -.40207011E+02  d E =0.105599E+01
       N       E                     dE             d eps       ncg     rms          rms(c)
DAV:   1    -0.394827448000E+02    0.72453E+00   -0.61458E+01 14832   0.631E+01    0.400E+00
DAV:   2    -0.402901060914E+02   -0.80736E+00   -0.88996E+00 14832   0.170E+01    0.208E+00
DAV:   3    -0.402757774019E+02    0.14329E-01   -0.20917E-01 22008   0.287E+00    0.172E+00
DAV:   4    -0.402716415617E+02    0.41358E-02   -0.17066E-02 20776   0.789E-01    0.131E+00
DAV:   5    -0.402709219192E+02    0.71964E-03   -0.83618E-03 22144   0.650E-01    0.635E-01
DAV:   6    -0.402715527536E+02   -0.63083E-03   -0.26144E-03 23592   0.282E-01    0.180E-01
DAV:   7    -0.402715739869E+02   -0.21233E-04   -0.13302E-04 13872   0.895E-02
   6 F= -.40271574E+02 E0= -.40271662E+02  d E =0.991688E+00
       N       E                     dE             d eps       ncg     rms          rms(c)
DAV:   1    -0.425668950127E+02   -0.22953E+01   -0.18990E+02 15048   0.113E+02    0.134E+01
DAV:   2    -0.439137468671E+02   -0.13469E+01   -0.34912E+01 19240   0.363E+01    0.109E+01
DAV:   3    -0.423339810382E+02    0.15798E+01   -0.60129E+00 23264   0.168E+01    0.345E+00
DAV:   4    -0.422452495535E+02    0.88731E-01   -0.53770E-01 25936   0.485E+00    0.223E+00
DAV:   5    -0.422428324871E+02    0.24171E-02   -0.76804E-02 26896   0.164E+00    0.142E+00
DAV:   6    -0.422459302429E+02   -0.30978E-02   -0.17703E-02 27568   0.632E-01    0.444E-01
DAV:   7    -0.422466850550E+02   -0.75481E-03   -0.20481E-03 25624   0.301E-01    0.139E-01
DAV:   8    -0.422466334965E+02    0.51558E-04   -0.15783E-04 14200   0.880E-02
   7 F= -.42246633E+02 E0= -.42246538E+02  d E =-.197506E+01
       N       E                     dE             d eps       ncg     rms          rms(c)
DAV:   1    -0.426926336469E+02   -0.44595E+00   -0.78889E+01 17304   0.737E+01    0.918E+00
DAV:   2    -0.429952358495E+02   -0.30260E+00   -0.10909E+01 17576   0.219E+01    0.514E+00
DAV:   3    -0.426513491383E+02    0.34389E+00   -0.16154E+00 24936   0.873E+00    0.235E+00
DAV:   4    -0.426034330366E+02    0.47916E-01   -0.23837E-01 26976   0.353E+00    0.140E+00
DAV:   5    -0.426045078602E+02   -0.10748E-02   -0.17665E-02 23576   0.714E-01    0.861E-01
DAV:   6    -0.426065290468E+02   -0.20212E-02   -0.94096E-03 26840   0.459E-01    0.189E-01
DAV:   7    -0.426065588590E+02   -0.29812E-04   -0.32395E-04 18176   0.126E-01
   8 F= -.42606559E+02 E0= -.42606375E+02  d E =-.233498E+01
       N       E                     dE             d eps       ncg     rms          rms(c)
DAV:   1    -0.442695586804E+02   -0.16630E+01   -0.23816E+01 15000   0.329E+01    0.566E+00
DAV:   2    -0.440064045960E+02    0.26315E+00   -0.30914E+00 22992   0.143E+01    0.392E+00
DAV:   3    -0.437603175154E+02    0.24609E+00   -0.99489E-01 23848   0.692E+00    0.129E+00
DAV:   4    -0.437368730055E+02    0.23445E-01   -0.10574E-01 26864   0.229E+00    0.104E+00
DAV:   5    -0.437377202911E+02   -0.84729E-03   -0.94332E-03 21456   0.490E-01    0.731E-01
DAV:   6    -0.437389273089E+02   -0.12070E-02   -0.49827E-03 26784   0.329E-01    0.134E-01
DAV:   7    -0.437389860249E+02   -0.58716E-04   -0.21591E-04 16312   0.109E-01
   9 F= -.43738986E+02 E0= -.43738835E+02  d E =-.113243E+01
       N       E                     dE             d eps       ncg     rms          rms(c)
DAV:   1    -0.473990809251E+02   -0.36602E+01   -0.20438E+02 15744   0.987E+01    0.171E+01
DAV:   2    -0.445906940763E+02    0.28084E+01   -0.19184E+01 21856   0.357E+01    0.739E+00
DAV:   3    -0.438276483275E+02    0.76305E+00   -0.31021E+00 26512   0.145E+01    0.373E+00
DAV:   4    -0.435992926399E+02    0.22836E+00   -0.10285E+00 26344   0.788E+00    0.317E+00
DAV:   5    -0.436034291506E+02   -0.41365E-02   -0.98183E-02 19680   0.189E+00    0.223E+00
DAV:   6    -0.436131920306E+02   -0.97629E-02   -0.42007E-02 25984   0.925E-01    0.509E-01
DAV:   7    -0.436145144550E+02   -0.13224E-02   -0.24662E-03 19408   0.321E-01    0.279E-01
DAV:   8    -0.436145722553E+02   -0.57800E-04   -0.43087E-04 20464   0.126E-01
  10 F= -.43614572E+02 E0= -.43614634E+02  d E =-.100801E+01
       N       E                     dE             d eps       ncg     rms          rms(c)
DAV:   1    -0.468932074136E+02   -0.32787E+01   -0.94547E+01 15768   0.693E+01    0.154E+01
DAV:   2    -0.461101358422E+02    0.78307E+00   -0.20835E+01 24016   0.362E+01    0.865E+00
DAV:   3    -0.445306514541E+02    0.15795E+01   -0.32915E+00 23632   0.130E+01    0.418E+00
DAV:   4    -0.444454240276E+02    0.85227E-01   -0.37452E-01 19760   0.345E+00    0.376E+00
DAV:   5    -0.444641563266E+02   -0.18732E-01   -0.14838E-01 25936   0.247E+00    0.211E+00
DAV:   6    -0.444484316362E+02    0.15725E-01   -0.11825E-01 29272   0.214E+00    0.531E-01
DAV:   7    -0.444480541906E+02    0.37745E-03   -0.21234E-02 23120   0.109E+00    0.353E-01
DAV:   8    -0.444474373470E+02    0.61684E-03   -0.27997E-03 23144   0.355E-01    0.660E-02
DAV:   9    -0.444474473628E+02   -0.10016E-04   -0.21283E-04 16168   0.931E-02
  11 F= -.44447447E+02 E0= -.44447445E+02  d E =-.184089E+01
       N       E                     dE             d eps       ncg     rms          rms(c)
DAV:   1    -0.452252508565E+02   -0.77781E+00   -0.30457E+01 15760   0.385E+01    0.661E+00
DAV:   2    -0.448311758103E+02    0.39408E+00   -0.33627E+00 22104   0.156E+01    0.359E+00
DAV:   3    -0.446323769043E+02    0.19880E+00   -0.75177E-01 23824   0.664E+00    0.156E+00
DAV:   4    -0.445970811348E+02    0.35296E-01   -0.14714E-01 26960   0.280E+00    0.139E+00
DAV:   5    -0.445987157805E+02   -0.16346E-02   -0.14643E-02 19696   0.650E-01    0.981E-01
DAV:   6    -0.446004400258E+02   -0.17242E-02   -0.71804E-03 26904   0.398E-01    0.140E-01
DAV:   7    -0.446005361967E+02   -0.96171E-04   -0.38450E-04 18680   0.134E-01
  12 F= -.44600536E+02 E0= -.44600635E+02  d E =-.199398E+01
       N       E                     dE             d eps       ncg     rms          rms(c)
DAV:   1    -0.448059703738E+02   -0.20553E+00   -0.56846E+00 15536   0.168E+01    0.317E+00
DAV:   2    -0.447481489870E+02    0.57821E-01   -0.89291E-01 23472   0.779E+00    0.191E+00
DAV:   3    -0.446790050101E+02    0.69144E-01   -0.18708E-01 23784   0.318E+00    0.771E-01
DAV:   4    -0.446734161764E+02    0.55888E-02   -0.20749E-02 21344   0.945E-01    0.714E-01
DAV:   5    -0.446737655839E+02   -0.34941E-03   -0.53964E-03 24304   0.374E-01    0.395E-01
DAV:   6    -0.446739198303E+02   -0.15425E-03   -0.10969E-03 27712   0.162E-01    0.738E-02
DAV:   7    -0.446739454241E+02   -0.25594E-04   -0.16658E-04 13296   0.908E-02
  13 F= -.44673945E+02 E0= -.44673996E+02  d E =-.206739E+01
       N       E                     dE             d eps       ncg     rms          rms(c)
DAV:   1    -0.453815949972E+02   -0.70768E+00   -0.60926E+01 17040   0.700E+01    0.392E+00
DAV:   2    -0.459691931308E+02   -0.58760E+00   -0.71878E+00 15392   0.165E+01    0.351E+00
DAV:   3    -0.459239464244E+02    0.45247E-01   -0.28129E-01 21736   0.362E+00    0.205E+00
DAV:   4    -0.459154649706E+02    0.84815E-02   -0.43686E-02 20712   0.153E+00    0.109E+00
DAV:   5    -0.459148757093E+02    0.58926E-03   -0.98575E-03 22120   0.612E-01    0.434E-01
DAV:   6    -0.459149223933E+02   -0.46684E-04   -0.15712E-03 21088   0.305E-01    0.704E-02
DAV:   7    -0.459149234558E+02   -0.10625E-05   -0.17964E-04 15336   0.958E-02
  14 F= -.45914923E+02 E0= -.45914858E+02  d E =-.124098E+01
       N       E                     dE             d eps       ncg     rms          rms(c)
DAV:   1    -0.453525595917E+02    0.56236E+00   -0.11774E+02 14840   0.966E+01    0.562E+00
DAV:   2    -0.467203301820E+02   -0.13678E+01   -0.16160E+01 14864   0.242E+01    0.390E+00
DAV:   3    -0.466655196096E+02    0.54811E-01   -0.48626E-01 22160   0.439E+00    0.229E+00
DAV:   4    -0.466503130605E+02    0.15207E-01   -0.61791E-02 22024   0.192E+00    0.155E+00
DAV:   5    -0.466460714208E+02    0.42416E-02   -0.19051E-02 21832   0.829E-01    0.560E-01
DAV:   6    -0.466464518218E+02   -0.38040E-03   -0.29402E-03 18840   0.367E-01    0.132E-01
DAV:   7    -0.466464941088E+02   -0.42287E-04   -0.31039E-04 18664   0.124E-01
  15 F= -.46646494E+02 E0= -.46646607E+02  d E =-.197255E+01
       N       E                     dE             d eps       ncg     rms          rms(c)
DAV:   1    -0.469844139293E+02   -0.33796E+00   -0.30195E+01 15136   0.491E+01    0.280E+00
DAV:   2    -0.473305486215E+02   -0.34613E+00   -0.42885E+00 14912   0.125E+01    0.158E+00
DAV:   3    -0.473202515322E+02    0.10297E-01   -0.93167E-02 22992   0.196E+00    0.997E-01
DAV:   4    -0.473158722591E+02    0.43793E-02   -0.24832E-02 20144   0.122E+00    0.452E-01
DAV:   5    -0.473150650636E+02    0.80720E-03   -0.70197E-03 20424   0.600E-01    0.144E-01
DAV:   6    -0.473150515165E+02    0.13547E-04   -0.73463E-04 17856   0.204E-01
  16 F= -.47315052E+02 E0= -.47315088E+02  d E =-.668557E+00
       N       E                     dE             d eps       ncg     rms          rms(c)
DAV:   1    -0.472706748167E+02    0.44390E-01   -0.10272E+01 15448   0.286E+01    0.164E+00
DAV:   2    -0.473891449591E+02   -0.11847E+00   -0.14672E+00 15040   0.730E+00    0.896E-01
DAV:   3    -0.473856831306E+02    0.34618E-02   -0.30174E-02 22960   0.111E+00    0.571E-01
DAV:   4    -0.473841701237E+02    0.15130E-02   -0.74252E-03 20456   0.639E-01    0.153E-01
DAV:   5    -0.473842162378E+02   -0.46114E-04   -0.17060E-03 19672   0.292E-01    0.798E-02
DAV:   6    -0.473841975564E+02    0.18681E-04   -0.13223E-04 13024   0.968E-02
  17 F= -.47384198E+02 E0= -.47384150E+02  d E =-.737703E+00
       N       E                     dE             d eps       ncg     rms          rms(c)
DAV:   1    -0.475798611525E+02   -0.19564E+00   -0.29500E+00 16272   0.145E+01    0.103E+00
DAV:   2    -0.475991825707E+02   -0.19321E-01   -0.29806E-01 15480   0.354E+00    0.536E-01
DAV:   3    -0.475972755048E+02    0.19071E-02   -0.75171E-03 23304   0.589E-01    0.283E-01
DAV:   4    -0.475968501436E+02    0.42536E-03   -0.21464E-03 20912   0.344E-01    0.136E-01
DAV:   5    -0.475967892865E+02    0.60857E-04   -0.41014E-04 19672   0.162E-01
  18 F= -.47596789E+02 E0= -.47596760E+02  d E =-.212592E+00
       N       E                     dE             d eps       ncg     rms          rms(c)
DAV:   1    -0.479012168106E+02   -0.30437E+00   -0.26463E+01 16104   0.434E+01    0.314E+00
DAV:   2    -0.480623498851E+02   -0.16113E+00   -0.26666E+00 15696   0.107E+01    0.158E+00
DAV:   3    -0.480452867689E+02    0.17063E-01   -0.68547E-02 23168   0.184E+00    0.817E-01
DAV:   4    -0.480420661233E+02    0.32206E-02   -0.17619E-02 20928   0.978E-01    0.392E-01
DAV:   5    -0.480417329877E+02    0.33314E-03   -0.32737E-03 21792   0.449E-01    0.155E-01
DAV:   6    -0.480417818298E+02   -0.48842E-04   -0.35792E-04 18840   0.143E-01
  19 F= -.48041782E+02 E0= -.48041703E+02  d E =-.657584E+00
       N       E                     dE             d eps       ncg     rms          rms(c)
DAV:   1    -0.472559570297E+02    0.78578E+00   -0.10582E+02 14832   0.864E+01    0.714E+00
DAV:   2    -0.478708764007E+02   -0.61492E+00   -0.11089E+01 17768   0.225E+01    0.338E+00
DAV:   3    -0.477881933420E+02    0.82683E-01   -0.33000E-01 22152   0.426E+00    0.164E+00
DAV:   4    -0.477714628951E+02    0.16730E-01   -0.78293E-02 20592   0.197E+00    0.676E-01
DAV:   5    -0.477718763344E+02   -0.41344E-03   -0.10153E-02 19112   0.711E-01    0.321E-01
DAV:   6    -0.477720747310E+02   -0.19840E-03   -0.14322E-03 24968   0.290E-01    0.111E-01
DAV:   7    -0.477720973864E+02   -0.22655E-04   -0.17546E-04 14400   0.103E-01
  20 F= -.47772097E+02 E0= -.47771371E+02  d E =-.387900E+00
       N       E                     dE             d eps       ncg     rms          rms(c)
DAV:   1    -0.479546059576E+02   -0.18253E+00   -0.51668E+01 17304   0.600E+01    0.441E+00
DAV:   2    -0.481986547741E+02   -0.24405E+00   -0.47631E+00 17136   0.140E+01    0.274E+00
DAV:   3    -0.481566753565E+02    0.41979E-01   -0.12427E-01 22656   0.252E+00    0.149E+00
DAV:   4    -0.481464504404E+02    0.10225E-01   -0.45175E-02 21424   0.157E+00    0.818E-01
DAV:   5    -0.481456514652E+02    0.79898E-03   -0.88746E-03 21744   0.718E-01    0.237E-01
DAV:   6    -0.481457866374E+02   -0.13517E-03   -0.87879E-04 21584   0.207E-01    0.103E-01
DAV:   7    -0.481458007394E+02   -0.14102E-04   -0.85998E-05 12952   0.762E-02
  21 F= -.48145801E+02 E0= -.48145501E+02  d E =-.761603E+00
       N       E                     dE             d eps       ncg     rms          rms(c)
DAV:   1    -0.483603796410E+02   -0.21459E+00   -0.45486E+00 17304   0.181E+01    0.137E+00
DAV:   2    -0.483752650819E+02   -0.14885E-01   -0.43198E-01 18616   0.454E+00    0.907E-01
DAV:   3    -0.483702431453E+02    0.50219E-02   -0.14444E-02 21536   0.879E-01    0.440E-01
DAV:   4    -0.483688186380E+02    0.14245E-02   -0.49685E-03 22208   0.545E-01    0.211E-01
DAV:   5    -0.483689144650E+02   -0.95827E-04   -0.15455E-03 18984   0.232E-01    0.880E-02
DAV:   6    -0.483689225854E+02   -0.81204E-05   -0.64102E-05 11720   0.673E-02
  22 F= -.48368923E+02 E0= -.48368524E+02  d E =-.223122E+00
       N       E                     dE             d eps       ncg     rms          rms(c)
DAV:   1    -0.484589232918E+02   -0.90009E-01   -0.77968E+00 17304   0.236E+01    0.183E+00
DAV:   2    -0.484824983768E+02   -0.23575E-01   -0.73472E-01 18800   0.594E+00    0.122E+00
DAV:   3    -0.484741573022E+02    0.83411E-02   -0.24679E-02 21480   0.114E+00    0.579E-01
DAV:   4    -0.484719095243E+02    0.22478E-02   -0.80198E-03 21848   0.686E-01    0.276E-01
DAV:   5    -0.484720629563E+02   -0.15343E-03   -0.23243E-03 19016   0.290E-01    0.113E-01
DAV:   6    -0.484720792174E+02   -0.16261E-04   -0.11014E-04 13120   0.864E-02
  23 F= -.48472079E+02 E0= -.48471601E+02  d E =-.326278E+00
       N       E                     dE             d eps       ncg     rms          rms(c)
DAV:   1    -0.485536493142E+02   -0.81586E-01   -0.14791E+00 14832   0.101E+01    0.852E-01
DAV:   2    -0.485607361956E+02   -0.70869E-02   -0.18405E-01 17384   0.268E+00    0.522E-01
DAV:   3    -0.485594216762E+02    0.13145E-02   -0.47786E-03 21104   0.502E-01    0.268E-01
DAV:   4    -0.485590132261E+02    0.40845E-03   -0.15008E-03 21456   0.269E-01    0.136E-01
DAV:   5    -0.485590085744E+02    0.46516E-05   -0.21381E-04 15768   0.106E-01
  24 F= -.48559009E+02 E0= -.48558515E+02  d E =-.869294E-01
       N       E                     dE             d eps       ncg     rms          rms(c)
DAV:   1    -0.486394571762E+02   -0.80444E-01   -0.13453E+01 14832   0.304E+01    0.250E+00
DAV:   2    -0.486983865133E+02   -0.58929E-01   -0.16491E+00 17568   0.801E+00    0.152E+00
DAV:   3    -0.486868869192E+02    0.11500E-01   -0.41370E-02 20192   0.145E+00    0.775E-01
DAV:   4    -0.486833619094E+02    0.35250E-02   -0.12684E-02 19944   0.735E-01    0.310E-01
DAV:   5    -0.486835035948E+02   -0.14169E-03   -0.18947E-03 22008   0.277E-01    0.167E-01
DAV:   6    -0.486835407002E+02   -0.37105E-04   -0.21078E-04 15928   0.100E-01
  25 F= -.48683541E+02 E0= -.48683077E+02  d E =-.211461E+00
       N       E                     dE             d eps       ncg     rms          rms(c)
DAV:   1    -0.487462054872E+02   -0.62702E-01   -0.70688E-01 14832   0.693E+00    0.624E-01
DAV:   2    -0.487481434863E+02   -0.19380E-02   -0.86826E-02 18320   0.200E+00    0.377E-01
DAV:   3    -0.487475133114E+02    0.63017E-03   -0.25997E-03 20032   0.369E-01    0.211E-01
DAV:   4    -0.487472853473E+02    0.22796E-03   -0.92127E-04 22856   0.203E-01    0.105E-01
DAV:   5    -0.487473018631E+02   -0.16516E-04   -0.15095E-04 13520   0.753E-02
  26 F= -.48747302E+02 E0= -.48746882E+02  d E =-.637612E-01
       N       E                     dE             d eps       ncg     rms          rms(c)
DAV:   1    -0.488786700108E+02   -0.13138E+00   -0.63836E+00 14832   0.208E+01    0.178E+00
DAV:   2    -0.488941561123E+02   -0.15486E-01   -0.77817E-01 18376   0.598E+00    0.109E+00
DAV:   3    -0.488892473089E+02    0.49088E-02   -0.23248E-02 19288   0.107E+00    0.622E-01
DAV:   4    -0.488872002186E+02    0.20471E-02   -0.90950E-03 24640   0.604E-01    0.281E-01
DAV:   5    -0.488873369389E+02   -0.13672E-03   -0.14755E-03 19096   0.230E-01    0.219E-01
DAV:   6    -0.488873761240E+02   -0.39185E-04   -0.16475E-04 14080   0.927E-02
  27 F= -.48887376E+02 E0= -.48887243E+02  d E =-.203835E+00
       N       E                     dE             d eps       ncg     rms          rms(c)
DAV:   1    -0.489096053491E+02   -0.22268E-01   -0.25709E+01 14832   0.414E+01    0.331E+00
DAV:   2    -0.489589837819E+02   -0.49378E-01   -0.30536E+00 18464   0.119E+01    0.209E+00
DAV:   3    -0.489437223164E+02    0.15261E-01   -0.97006E-02 19056   0.208E+00    0.121E+00
DAV:   4    -0.489361432086E+02    0.75791E-02   -0.36724E-02 25656   0.121E+00    0.541E-01
DAV:   5    -0.489364198333E+02   -0.27662E-03   -0.56003E-03 18896   0.467E-01    0.446E-01
DAV:   6    -0.489366390736E+02   -0.21924E-03   -0.68781E-04 22448   0.167E-01    0.865E-02
DAV:   7    -0.489366185125E+02    0.20561E-04   -0.19944E-04 15176   0.116E-01
  28 F= -.48936619E+02 E0= -.48936478E+02  d E =-.253078E+00
       N       E                     dE             d eps       ncg     rms          rms(c)
DAV:   1    -0.489497724755E+02   -0.13133E-01   -0.28037E+00 14832   0.136E+01    0.120E+00
DAV:   2    -0.489567805955E+02   -0.70081E-02   -0.33578E-01 18256   0.388E+00    0.783E-01
DAV:   3    -0.489549696797E+02    0.18109E-02   -0.88622E-03 18768   0.643E-01    0.471E-01
DAV:   4    -0.489539762730E+02    0.99341E-03   -0.46598E-03 24976   0.455E-01    0.180E-01
DAV:   5    -0.489540305655E+02   -0.54292E-04   -0.73619E-04 18336   0.168E-01
  29 F= -.48954031E+02 E0= -.48953926E+02  d E =-.270490E+00
       N       E                     dE             d eps       ncg     rms          rms(c)
DAV:   1    -0.490325810435E+02   -0.78605E-01   -0.14955E+00 15776   0.100E+01    0.107E+00
DAV:   2    -0.490302227093E+02    0.23583E-02   -0.15091E-01 20000   0.305E+00    0.551E-01
DAV:   3    -0.490288847798E+02    0.13379E-02   -0.65069E-03 20856   0.539E-01    0.304E-01
DAV:   4    -0.490283202706E+02    0.56451E-03   -0.24687E-03 27336   0.284E-01    0.187E-01
DAV:   5    -0.490283763536E+02   -0.56083E-04   -0.33170E-04 18104   0.113E-01
  30 F= -.49028376E+02 E0= -.49028313E+02  d E =-.743458E-01
       N       E                     dE             d eps       ncg     rms          rms(c)
DAV:   1    -0.490895149485E+02   -0.61195E-01   -0.40497E+00 15488   0.164E+01    0.171E+00
DAV:   2    -0.490818538971E+02    0.76611E-02   -0.41059E-01 20296   0.507E+00    0.941E-01
DAV:   3    -0.490785440056E+02    0.33099E-02   -0.17944E-02 20280   0.883E-01    0.532E-01
DAV:   4    -0.490771088514E+02    0.14352E-02   -0.70831E-03 27272   0.475E-01    0.313E-01
DAV:   5    -0.490772626565E+02   -0.15381E-03   -0.96024E-04 19592   0.196E-01    0.213E-01
DAV:   6    -0.490773096060E+02   -0.46949E-04   -0.22492E-04 16456   0.949E-02
  31 F= -.49077310E+02 E0= -.49077407E+02  d E =-.123279E+00
       N       E                     dE             d eps       ncg     rms          rms(c)
DAV:   1    -0.491276117213E+02   -0.50349E-01   -0.14360E+00 14832   0.100E+01    0.674E-01
DAV:   2    -0.491381744780E+02   -0.10563E-01   -0.16222E-01 15640   0.264E+00    0.344E-01
DAV:   3    -0.491377003663E+02    0.47411E-03   -0.36707E-03 21440   0.379E-01    0.204E-01
DAV:   4    -0.491374861660E+02    0.21420E-03   -0.11238E-03 24856   0.225E-01    0.103E-01
DAV:   5    -0.491374943532E+02   -0.81872E-05   -0.14692E-04 13512   0.833E-02
  32 F= -.49137494E+02 E0= -.49137718E+02  d E =-.601847E-01
       N       E                     dE             d eps       ncg     rms          rms(c)
DAV:   1    -0.491434245490E+02   -0.59384E-02   -0.63410E+00 14832   0.210E+01    0.136E+00
DAV:   2    -0.491888175737E+02   -0.45393E-01   -0.70943E-01 15880   0.558E+00    0.704E-01
DAV:   3    -0.491868089143E+02    0.20087E-02   -0.16130E-02 21472   0.800E-01    0.415E-01
DAV:   4    -0.491858339084E+02    0.97501E-03   -0.49655E-03 25352   0.473E-01    0.203E-01
DAV:   5    -0.491858697398E+02   -0.35831E-04   -0.69486E-04 19120   0.171E-01
  33 F= -.49185870E+02 E0= -.49186153E+02  d E =-.108560E+00
       N       E                     dE             d eps       ncg     rms          rms(c)
DAV:   1    -0.492324892203E+02   -0.46655E-01   -0.11137E+00 14832   0.794E+00    0.637E-01
DAV:   2    -0.492334477364E+02   -0.95852E-03   -0.69443E-02 19592   0.193E+00    0.319E-01
DAV:   3    -0.492324389283E+02    0.10088E-02   -0.23562E-03 19376   0.334E-01    0.174E-01
DAV:   4    -0.492321246193E+02    0.31431E-03   -0.10677E-03 25344   0.219E-01    0.987E-02
DAV:   5    -0.492321411745E+02   -0.16555E-04   -0.13279E-04 12584   0.718E-02
  34 F= -.49232141E+02 E0= -.49232405E+02  d E =-.462714E-01
       N       E                     dE             d eps       ncg     rms          rms(c)
DAV:   1    -0.492892647042E+02   -0.57140E-01   -0.74658E+00 14832   0.205E+01    0.165E+00
DAV:   2    -0.492961893357E+02   -0.69246E-02   -0.46280E-01 19584   0.499E+00    0.803E-01
DAV:   3    -0.492897192315E+02    0.64701E-02   -0.15764E-02 19504   0.870E-01    0.423E-01
DAV:   4    -0.492876555740E+02    0.20637E-02   -0.60880E-03 22952   0.538E-01    0.236E-01
DAV:   5    -0.492877707753E+02   -0.11520E-03   -0.10019E-03 22248   0.188E-01    0.116E-01
DAV:   6    -0.492877835535E+02   -0.12778E-04   -0.80939E-05 12096   0.648E-02
  35 F= -.49287784E+02 E0= -.49287893E+02  d E =-.101914E+00
       N       E                     dE             d eps       ncg     rms          rms(c)
DAV:   1    -0.493319098656E+02   -0.44139E-01   -0.89128E-01 14832   0.712E+00    0.509E-01
DAV:   2    -0.493330344125E+02   -0.11245E-02   -0.57613E-02 19352   0.168E+00    0.279E-01
DAV:   3    -0.493318914366E+02    0.11430E-02   -0.21962E-03 19880   0.336E-01    0.133E-01
DAV:   4    -0.493316782092E+02    0.21323E-03   -0.90767E-04 19712   0.207E-01    0.571E-02
DAV:   5    -0.493316917376E+02   -0.13528E-04   -0.12431E-04 13112   0.721E-02
  36 F= -.49331692E+02 E0= -.49331786E+02  d E =-.439082E-01
       N       E                     dE             d eps       ncg     rms          rms(c)
DAV:   1    -0.493755727952E+02   -0.43895E-01   -0.48974E+00 14832   0.166E+01    0.119E+00
DAV:   2    -0.493814983082E+02   -0.59255E-02   -0.31491E-01 19344   0.392E+00    0.644E-01
DAV:   3    -0.493752968758E+02    0.62014E-02   -0.12027E-02 20120   0.790E-01    0.303E-01
DAV:   4    -0.493741415312E+02    0.11553E-02   -0.46896E-03 19696   0.477E-01    0.129E-01
DAV:   5    -0.493742161194E+02   -0.74588E-04   -0.69500E-04 18456   0.166E-01
  37 F= -.49374216E+02 E0= -.49374348E+02  d E =-.864326E-01
       N       E                     dE             d eps       ncg     rms          rms(c)
DAV:   1    -0.494127267204E+02   -0.38585E-01   -0.12413E+00 14832   0.844E+00    0.653E-01
DAV:   2    -0.494138763531E+02   -0.11496E-02   -0.74818E-02 19520   0.187E+00    0.312E-01
DAV:   3    -0.494122031695E+02    0.16732E-02   -0.35024E-03 19704   0.406E-01    0.140E-01
DAV:   4    -0.494119877302E+02    0.21544E-03   -0.90028E-04 19976   0.214E-01    0.573E-02
DAV:   5    -0.494119961397E+02   -0.84095E-05   -0.73864E-05 11368   0.639E-02
  38 F= -.49411996E+02 E0= -.49412108E+02  d E =-.377800E-01
       N       E                     dE             d eps       ncg     rms          rms(c)
DAV:   1    -0.494573071784E+02   -0.45319E-01   -0.82683E+00 14832   0.218E+01    0.175E+00
DAV:   2    -0.494650380952E+02   -0.77309E-02   -0.49785E-01 19520   0.483E+00    0.810E-01
DAV:   3    -0.494537859265E+02    0.11252E-01   -0.22883E-02 19504   0.105E+00    0.353E-01
DAV:   4    -0.494523846868E+02    0.14012E-02   -0.62350E-03 20104   0.570E-01    0.147E-01
DAV:   5    -0.494524525984E+02   -0.67912E-04   -0.67635E-04 20976   0.172E-01
  39 F= -.49452453E+02 E0= -.49452394E+02  d E =-.782365E-01
       N       E                     dE             d eps       ncg     rms          rms(c)
DAV:   1    -0.494961238659E+02   -0.43739E-01   -0.20574E+00 16232   0.116E+01    0.746E-01
DAV:   2    -0.495056816947E+02   -0.95578E-02   -0.16774E-01 18448   0.260E+00    0.331E-01
DAV:   3    -0.495045848153E+02    0.10969E-02   -0.39367E-03 21840   0.431E-01    0.174E-01
DAV:   4    -0.495042889134E+02    0.29590E-03   -0.10584E-03 19648   0.239E-01    0.549E-02
DAV:   5    -0.495043106619E+02   -0.21748E-04   -0.13697E-04 15216   0.836E-02
  40 F= -.49504311E+02 E0= -.49504111E+02  d E =-.518581E-01
       N       E                     dE             d eps       ncg     rms          rms(c)
DAV:   1    -0.495171567316E+02   -0.12868E-01   -0.12427E+01 16024   0.286E+01    0.198E+00
DAV:   2    -0.495739644435E+02   -0.56808E-01   -0.10072E+00 18272   0.637E+00    0.823E-01
DAV:   3    -0.495673228189E+02    0.66416E-02   -0.24070E-02 21840   0.106E+00    0.426E-01
DAV:   4    -0.495655337418E+02    0.17891E-02   -0.56995E-03 20136   0.553E-01    0.143E-01
DAV:   5    -0.495656496339E+02   -0.11589E-03   -0.80870E-04 21488   0.191E-01    0.858E-02
DAV:   6    -0.495656665248E+02   -0.16891E-04   -0.51198E-05 13512   0.660E-02
  41 F= -.49565667E+02 E0= -.49565322E+02  d E =-.113214E+00
       N       E                     dE             d eps       ncg     rms          rms(c)
DAV:   1    -0.495955236610E+02   -0.29874E-01   -0.32329E+00 14832   0.153E+01    0.885E-01
DAV:   2    -0.496239940146E+02   -0.28470E-01   -0.36710E-01 16528   0.372E+00    0.388E-01
DAV:   3    -0.496237152957E+02    0.27872E-03   -0.68207E-03 22104   0.534E-01    0.243E-01
DAV:   4    -0.496234788560E+02    0.23644E-03   -0.14230E-03 20552   0.293E-01    0.597E-02
DAV:   5    -0.496235141531E+02   -0.35297E-04   -0.29785E-04 18816   0.113E-01
  42 F= -.49623514E+02 E0= -.49623161E+02  d E =-.578476E-01
       N       E                     dE             d eps       ncg     rms          rms(c)
DAV:   1    -0.496021189694E+02    0.21360E-01   -0.52521E+00 14832   0.195E+01    0.115E+00
DAV:   2    -0.496481595822E+02   -0.46041E-01   -0.59206E-01 16936   0.474E+00    0.509E-01
DAV:   3    -0.496476927079E+02    0.46687E-03   -0.10833E-02 21984   0.677E-01    0.322E-01
DAV:   4    -0.496473250319E+02    0.36768E-03   -0.22420E-03 20680   0.366E-01    0.805E-02
DAV:   5    -0.496473818424E+02   -0.56811E-04   -0.45658E-04 19008   0.141E-01
  43 F= -.49647382E+02 E0= -.49646983E+02  d E =-.817153E-01
       N       E                     dE             d eps       ncg     rms          rms(c)
DAV:   1    -0.496796245722E+02   -0.32300E-01   -0.19554E+00 15496   0.114E+01    0.752E-01
DAV:   2    -0.496905751273E+02   -0.10951E-01   -0.16020E-01 18432   0.255E+00    0.333E-01
DAV:   3    -0.496903011310E+02    0.27400E-03   -0.35231E-03 21952   0.387E-01    0.208E-01
DAV:   4    -0.496901936438E+02    0.10749E-03   -0.69171E-04 19432   0.197E-01    0.628E-02
DAV:   5    -0.496902086183E+02   -0.14974E-04   -0.92631E-05 13048   0.782E-02
  44 F= -.49690209E+02 E0= -.49689741E+02  d E =-.428268E-01
       N       E                     dE             d eps       ncg     rms          rms(c)
DAV:   1    -0.496416813035E+02    0.48512E-01   -0.16422E+01 14832   0.331E+01    0.241E+00
DAV:   2    -0.497366857629E+02   -0.95004E-01   -0.13759E+00 18368   0.756E+00    0.103E+00
DAV:   3    -0.497343638702E+02    0.23219E-02   -0.31177E-02 21744   0.115E+00    0.655E-01
DAV:   4    -0.497333770524E+02    0.98682E-03   -0.59420E-03 19816   0.577E-01    0.192E-01
DAV:   5    -0.497335118463E+02   -0.13479E-03   -0.10173E-03 22064   0.228E-01    0.970E-02
DAV:   6    -0.497335123321E+02   -0.48584E-06   -0.73190E-05 13664   0.774E-02
  45 F= -.49733512E+02 E0= -.49733024E+02  d E =-.861305E-01
       N       E                     dE             d eps       ncg     rms          rms(c)
DAV:   1    -0.497933148517E+02   -0.59803E-01   -0.26754E+00 14856   0.137E+01    0.824E-01
DAV:   2    -0.498134543436E+02   -0.20139E-01   -0.27455E-01 17416   0.325E+00    0.447E-01
DAV:   3    -0.498121214873E+02    0.13329E-02   -0.54876E-03 21896   0.520E-01    0.273E-01
DAV:   4    -0.498117616580E+02    0.35983E-03   -0.20535E-03 19064   0.326E-01    0.965E-02
DAV:   5    -0.498118115005E+02   -0.49843E-04   -0.49593E-04 18592   0.142E-01
  46 F= -.49811812E+02 E0= -.49811339E+02  d E =-.782992E-01
       N       E                     dE             d eps       ncg     rms          rms(c)
DAV:   1    -0.498188289780E+02   -0.70673E-02   -0.20793E+00 14848   0.121E+01    0.735E-01
DAV:   2    -0.498347757730E+02   -0.15947E-01   -0.21601E-01 17208   0.288E+00    0.398E-01
DAV:   3    -0.498337197783E+02    0.10560E-02   -0.42366E-03 21936   0.459E-01    0.244E-01
DAV:   4    -0.498334455371E+02    0.27424E-03   -0.16365E-03 18856   0.291E-01    0.847E-02
DAV:   5    -0.498334856954E+02   -0.40158E-04   -0.39589E-04 18392   0.127E-01
  47 F= -.49833486E+02 E0= -.49833039E+02  d E =-.999734E-01
       N       E                     dE             d eps       ncg     rms          rms(c)
DAV:   1    -0.498778105287E+02   -0.44365E-01   -0.27580E+00 16240   0.140E+01    0.892E-01
DAV:   2    -0.498960281659E+02   -0.18218E-01   -0.27102E-01 16384   0.320E+00    0.387E-01
DAV:   3    -0.498945006487E+02    0.15275E-02   -0.52828E-03 20936   0.490E-01    0.217E-01
DAV:   4    -0.498940929402E+02    0.40771E-03   -0.14944E-03 20896   0.277E-01    0.751E-02
DAV:   5    -0.498941073290E+02   -0.14389E-04   -0.14358E-04 14064   0.895E-02
  48 F= -.49894107E+02 E0= -.49893687E+02  d E =-.606216E-01
       N       E                     dE             d eps       ncg     rms          rms(c)
DAV:   1    -0.498935989186E+02    0.49402E-03   -0.47914E+00 15896   0.185E+01    0.118E+00
DAV:   2    -0.499260221884E+02   -0.32423E-01   -0.47941E-01 16800   0.425E+00    0.512E-01
DAV:   3    -0.499234298651E+02    0.25923E-02   -0.92080E-03 20800   0.648E-01    0.286E-01
DAV:   4    -0.499227182778E+02    0.71159E-03   -0.26246E-03 20352   0.367E-01    0.944E-02
DAV:   5    -0.499227478882E+02   -0.29610E-04   -0.29713E-04 18016   0.121E-01
  49 F= -.49922748E+02 E0= -.49922406E+02  d E =-.892622E-01
       N       E                     dE             d eps       ncg     rms          rms(c)
DAV:   1    -0.499767975668E+02   -0.54079E-01   -0.29657E+00 14832   0.127E+01    0.106E+00
DAV:   2    -0.499824332760E+02   -0.56357E-02   -0.17097E-01 19064   0.281E+00    0.536E-01
DAV:   3    -0.499793860691E+02    0.30472E-02   -0.72510E-03 22680   0.562E-01    0.229E-01
DAV:   4    -0.499790285632E+02    0.35751E-03   -0.17695E-03 21040   0.293E-01    0.680E-02
DAV:   5    -0.499790452639E+02   -0.16701E-04   -0.14216E-04 13448   0.824E-02
  50 F= -.49979045E+02 E0= -.49978789E+02  d E =-.562974E-01
       N       E                     dE             d eps       ncg     rms          rms(c)
DAV:   1    -0.500245876687E+02   -0.45559E-01   -0.16631E+01 14832   0.299E+01    0.242E+00
DAV:   2    -0.500550628391E+02   -0.30475E-01   -0.94589E-01 18976   0.662E+00    0.126E+00
DAV:   3    -0.500378450248E+02    0.17218E-01   -0.39152E-02 22544   0.130E+00    0.577E-01
DAV:   4    -0.500356505231E+02    0.21945E-02   -0.10719E-02 21032   0.719E-01    0.160E-01
DAV:   5    -0.500357547843E+02   -0.10426E-03   -0.10014E-03 19072   0.204E-01    0.926E-02
DAV:   6    -0.500357924892E+02   -0.37705E-04   -0.93447E-05 13280   0.698E-02
  51 F= -.50035792E+02 E0= -.50035722E+02  d E =-.113045E+00
       N       E                     dE             d eps       ncg     rms          rms(c)
DAV:   1    -0.500669148666E+02   -0.31160E-01   -0.10304E+00 15000   0.703E+00    0.734E-01
DAV:   2    -0.500654983945E+02    0.14165E-02   -0.56773E-02 19736   0.183E+00    0.363E-01
DAV:   3    -0.500640253090E+02    0.14731E-02   -0.28138E-03 19744   0.361E-01    0.197E-01
DAV:   4    -0.500635765083E+02    0.44880E-03   -0.19434E-03 24664   0.299E-01    0.102E-01
DAV:   5    -0.500636187824E+02   -0.42274E-04   -0.41170E-04 17352   0.123E-01
  52 F= -.50063619E+02 E0= -.50063580E+02  d E =-.278263E-01
       N       E                     dE             d eps       ncg     rms          rms(c)
DAV:   1    -0.500664329181E+02   -0.28564E-02   -0.13879E-01 15112   0.259E+00    0.271E-01
DAV:   2    -0.500662058155E+02    0.22710E-03   -0.79238E-03 19736   0.685E-01    0.140E-01
DAV:   3    -0.500659933884E+02    0.21243E-03   -0.38434E-04 16960   0.136E-01    0.765E-02
DAV:   4    -0.500659319162E+02    0.61472E-04   -0.29531E-04 17704   0.123E-01
  53 F= -.50065932E+02 E0= -.50065906E+02  d E =-.301394E-01
       N       E                     dE             d eps       ncg     rms          rms(c)
DAV:   1    -0.501010627624E+02   -0.35069E-01   -0.72347E-01 15312   0.571E+00    0.968E-01
DAV:   2    -0.500946099081E+02    0.64529E-02   -0.40254E-02 21856   0.179E+00    0.384E-01
DAV:   3    -0.500936356667E+02    0.97424E-03   -0.26189E-03 19080   0.335E-01    0.222E-01
DAV:   4    -0.500932304027E+02    0.40526E-03   -0.16061E-03 27824   0.217E-01    0.167E-01
DAV:   5    -0.500932711493E+02   -0.40747E-04   -0.14080E-04 13448   0.851E-02
  54 F= -.50093271E+02 E0= -.50093277E+02  d E =-.273392E-01
       N       E                     dE             d eps       ncg     rms          rms(c)
DAV:   1    -0.502043089338E+02   -0.11108E+00   -0.65852E+00 15352   0.173E+01    0.307E+00
DAV:   2    -0.501455822828E+02    0.58727E-01   -0.37043E-01 21624   0.545E+00    0.116E+00
DAV:   3    -0.501364486947E+02    0.91336E-02   -0.24191E-02 19032   0.102E+00    0.662E-01
DAV:   4    -0.501326611375E+02    0.37876E-02   -0.14440E-02 27728   0.662E-01    0.500E-01
DAV:   5    -0.501330296963E+02   -0.36856E-03   -0.14954E-03 20000   0.253E-01    0.295E-01
DAV:   6    -0.501330792590E+02   -0.49563E-04   -0.71299E-04 24272   0.154E-01
  55 F= -.50133079E+02 E0= -.50133227E+02  d E =-.671473E-01
       N       E                     dE             d eps       ncg     rms          rms(c)
DAV:   1    -0.501537189327E+02   -0.20689E-01   -0.26407E+00 16856   0.134E+01    0.998E-01
DAV:   2    -0.501599539518E+02   -0.62350E-02   -0.25594E-01 17376   0.342E+00    0.680E-01
DAV:   3    -0.501585636263E+02    0.13903E-02   -0.85509E-03 21400   0.598E-01    0.407E-01
DAV:   4    -0.501577655216E+02    0.79810E-03   -0.32872E-03 26464   0.401E-01    0.206E-01
DAV:   5    -0.501578081835E+02   -0.42662E-04   -0.50727E-04 19040   0.154E-01
  56 F= -.50157808E+02 E0= -.50158000E+02  d E =-.247289E-01
       N       E                     dE             d eps       ncg     rms          rms(c)
DAV:   1    -0.501582192826E+02   -0.45376E-03   -0.62266E-02 17088   0.207E+00    0.151E-01
DAV:   2    -0.501583143945E+02   -0.95112E-04   -0.61192E-03 17728   0.540E-01    0.120E-01
DAV:   3    -0.501582726111E+02    0.41783E-04   -0.19658E-04 16128   0.943E-02
  57 F= -.50158273E+02 E0= -.50158471E+02  d E =-.251934E-01
       N       E                     dE             d eps       ncg     rms          rms(c)
DAV:   1    -0.501740076212E+02   -0.15693E-01   -0.26687E+00 17304   0.139E+01    0.818E-01
DAV:   2    -0.501852462407E+02   -0.11239E-01   -0.24743E-01 15720   0.308E+00    0.604E-01
DAV:   3    -0.501834274593E+02    0.18188E-02   -0.64642E-03 20144   0.525E-01    0.367E-01
DAV:   4    -0.501825270169E+02    0.90044E-03   -0.26296E-03 21304   0.388E-01    0.104E-01
DAV:   5    -0.501825607446E+02   -0.33728E-04   -0.42310E-04 19208   0.150E-01
  58 F= -.50182561E+02 E0= -.50182777E+02  d E =-.242881E-01
       N       E                     dE             d eps       ncg     rms          rms(c)
DAV:   1    -0.501809230553E+02    0.16040E-02   -0.44544E+00 17304   0.180E+01    0.106E+00
DAV:   2    -0.501999475478E+02   -0.19024E-01   -0.41204E-01 15712   0.398E+00    0.769E-01
DAV:   3    -0.501968941602E+02    0.30534E-02   -0.10592E-02 20120   0.676E-01    0.465E-01
DAV:   4    -0.501953781842E+02    0.15160E-02   -0.44091E-03 21168   0.501E-01    0.136E-01
DAV:   5    -0.501954397911E+02   -0.61607E-04   -0.71973E-04 21280   0.193E-01
  59 F= -.50195440E+02 E0= -.50195583E+02  d E =-.371672E-01
       N       E                     dE             d eps       ncg     rms          rms(c)
DAV:   1    -0.502218106430E+02   -0.26432E-01   -0.28075E+00 17304   0.133E+01    0.120E+00
DAV:   2    -0.502242601112E+02   -0.24495E-02   -0.21874E-01 17712   0.308E+00    0.489E-01
DAV:   3    -0.502210636078E+02    0.31965E-02   -0.95548E-03 22112   0.626E-01    0.244E-01
DAV:   4    -0.502204102024E+02    0.65341E-03   -0.21316E-03 21648   0.314E-01    0.171E-01
DAV:   5    -0.502204440406E+02   -0.33838E-04   -0.32727E-04 20264   0.114E-01
  60 F= -.50220444E+02 E0= -.50220485E+02  d E =-.250042E-01
