   22   22   60    1
  0.7789862E+01  0.6236329E-09  0.5342533E-09  0.5540007E-09  0.5000000E-15
  1.000000000000000E-004
  CAR 
 unknown system                          
     41    226     32
 
  0.3742002E-15  0.3742002E-15  0.3742002E-15  0.2232143E-02
    1      -34.816024   1.000000
    2      -30.422601   1.000000
    3      -30.201244   1.000000
    4      -30.166549   1.000000
    5      -16.987996   1.000000
    6      -16.897372   1.000000
    7      -16.790390   1.000000
    8       -9.723850   1.000000
    9       -7.895772   1.000000
   10       -7.100684   1.000000
   11       -6.818716   1.000000
   12       -6.468037   1.000000
   13       -6.073381   1.000000
   14       -5.450979   1.000000
   15       -3.948265   1.000000
   16       -3.399858   1.000000
   17       -2.900664   1.000000
   18       -2.757000   1.000000
   19       -2.167164   1.000000
   20       -1.709931   1.000000
   21        1.112095   0.000000
   22        2.699627   0.000000
   23        2.975324   0.000000
   24        3.394031   0.000000
   25        3.837460   0.000000
   26        4.124760   0.000000
   27        4.418362   0.000000
   28        4.907356   0.000000
   29        5.431340   0.000000
   30        5.662932   0.000000
   31        6.057563   0.000000
   32        6.494134   0.000000
 
  0.1428571E+00  0.3783866E-15  0.3747003E-15  0.4464286E-02
    1      -34.816016   1.000000
    2      -30.422528   1.000000
    3      -30.201367   1.000000
    4      -30.166493   1.000000
    5      -16.989597   1.000000
    6      -16.897347   1.000000
    7      -16.790366   1.000000
    8       -9.657072   1.000000
    9       -7.991201   1.000000
   10       -7.152160   1.000000
   11       -6.784373   1.000000
   12       -6.476226   1.000000
   13       -6.053311   1.000000
   14       -5.449883   1.000000
   15       -3.939478   1.000000
   16       -3.383160   1.000000
   17       -2.918317   1.000000
   18       -2.726508   1.000000
   19       -2.093203   1.000000
   20       -1.707334   1.000000
   21        0.988361   0.000610
   22        2.620613   0.000000
   23        2.960539   0.000000
   24        3.467503   0.000000
   25        3.797399   0.000000
   26        4.163303   0.000000
   27        4.459639   0.000000
   28        4.940063   0.000000
   29        5.266932   0.000000
   30        5.659759   0.000000
   31        6.302369   0.000000
   32        6.532621   0.000000
 
  0.2857143E+00  0.3788202E-15  0.3747003E-15  0.4464286E-02
    1      -34.815999   1.000000
    2      -30.422497   1.000000
    3      -30.201521   1.000000
    4      -30.166454   1.000000
    5      -16.993157   1.000000
    6      -16.897452   1.000000
    7      -16.790422   1.000000
    8       -9.471677   1.000000
    9       -8.246066   1.000000
   10       -7.240172   1.000000
   11       -6.735299   1.000000
   12       -6.448428   1.000000
   13       -6.050058   1.000000
   14       -5.448235   1.000000
   15       -3.923802   1.000000
   16       -3.349198   1.000000
   17       -2.937079   1.000000
   18       -2.696174   1.000000
   19       -1.905615   1.000000
   20       -1.677386   1.000000
   21        0.698119   0.568221
   22        2.474204   0.000000
   23        2.949386   0.000000
   24        3.458673   0.000000
   25        3.802836   0.000000
   26        4.174064   0.000000
   27        4.633157   0.000000
   28        4.968132   0.000000
   29        5.247432   0.000000
   30        5.803312   0.000000
   31        6.309366   0.000000
   32        6.612969   0.000000
 
  0.4285714E+00  0.3972517E-15  0.3747003E-15  0.4464286E-02
    1      -34.815986   1.000000
    2      -30.422543   1.000000
    3      -30.201563   1.000000
    4      -30.166353   1.000000
    5      -16.995918   1.000000
    6      -16.897595   1.000000
    7      -16.790351   1.000000
    8       -9.236446   1.000000
    9       -8.543121   1.000000
   10       -7.293321   1.000000
   11       -6.708890   1.000000
   12       -6.391305   1.000000
   13       -6.076617   1.000000
   14       -5.446373   1.000000
   15       -3.913366   1.000000
   16       -3.325348   1.000000
   17       -2.950555   1.000000
   18       -2.686504   1.000000
   19       -1.772470   1.000000
   20       -1.584732   1.000000
   21        0.439066   0.998760
   22        2.376450   0.000000
   23        2.927190   0.000000
   24        3.423631   0.000000
   25        3.764701   0.000000
   26        4.228956   0.000000
   27        4.746459   0.000000
   28        5.085705   0.000000
   29        5.377541   0.000000
   30        5.749009   0.000000
   31        6.315948   0.000000
   32        6.669130   0.000000
 
  0.3747003E-15  0.1250000E+00  0.3747003E-15  0.4464286E-02
    1      -34.816040   1.000000
    2      -30.422638   1.000000
    3      -30.201234   1.000000
    4      -30.166330   1.000000
    5      -16.987527   1.000000
    6      -16.899754   1.000000
    7      -16.792840   1.000000
    8       -9.659609   1.000000
    9       -7.915773   1.000000
   10       -7.187045   1.000000
   11       -6.819994   1.000000
   12       -6.443788   1.000000
   13       -6.030156   1.000000
   14       -5.496503   1.000000
   15       -3.941505   1.000000
   16       -3.368043   1.000000
   17       -2.907442   1.000000
   18       -2.703608   1.000000
   19       -2.163926   1.000000
   20       -1.811767   1.000000
   21        1.105682   0.000001
   22        2.728854   0.000000
   23        3.062293   0.000000
   24        3.426530   0.000000
   25        3.816672   0.000000
   26        4.210070   0.000000
   27        4.466183   0.000000
   28        4.925010   0.000000
   29        5.358506   0.000000
   30        5.749806   0.000000
   31        6.058318   0.000000
   32        6.557751   0.000000
 
  0.1428571E+00  0.1250000E+00  0.3816392E-15  0.4464286E-02
    1      -34.816031   1.000000
    2      -30.422580   1.000000
    3      -30.201365   1.000000
    4      -30.166287   1.000000
    5      -16.989065   1.000000
    6      -16.899813   1.000000
    7      -16.792800   1.000000
    8       -9.596241   1.000000
    9       -7.969061   1.000000
   10       -7.277606   1.000000
   11       -6.824394   1.000000
   12       -6.387386   1.000000
   13       -6.016187   1.000000
   14       -5.511367   1.000000
   15       -3.954784   1.000000
   16       -3.371672   1.000000
   17       -2.930090   1.000000
   18       -2.665396   1.000000
   19       -2.032458   1.000000
   20       -1.809708   1.000000
   21        1.000472   0.000360
   22        2.648331   0.000000
   23        3.014462   0.000000
   24        3.423112   0.000000
   25        3.781680   0.000000
   26        4.248562   0.000000
   27        4.557488   0.000000
   28        4.977231   0.000000
   29        5.257711   0.000000
   30        5.785192   0.000000
   31        6.212019   0.000000
   32        6.402733   0.000000
 
  0.2857143E+00  0.1250000E+00  0.3885781E-15  0.4464286E-02
    1      -34.816022   1.000000
    2      -30.422626   1.000000
    3      -30.201592   1.000000
    4      -30.166368   1.000000
    5      -16.992705   1.000000
    6      -16.900003   1.000000
    7      -16.793000   1.000000
    8       -9.416593   1.000000
    9       -8.203404   1.000000
   10       -7.361232   1.000000
   11       -6.792638   1.000000
   12       -6.347326   1.000000
   13       -6.050421   1.000000
   14       -5.510721   1.000000
   15       -3.943514   1.000000
   16       -3.373420   1.000000
   17       -2.883982   1.000000
   18       -2.657362   1.000000
   19       -1.853273   1.000000
   20       -1.777036   1.000000
   21        0.715914   0.381387
   22        2.550025   0.000000
   23        2.967873   0.000000
   24        3.385951   0.000000
   25        3.805189   0.000000
   26        4.268330   0.000000
   27        4.672717   0.000000
   28        4.925964   0.000000
   29        5.344255   0.000000
   30        5.893620   0.000000
   31        6.140120   0.000000
   32        6.552599   0.000000
 
  0.4285714E+00  0.1250000E+00  0.3885781E-15  0.4464286E-02
    1      -34.816008   1.000000
    2      -30.422583   1.000000
    3      -30.201614   1.000000
    4      -30.166344   1.000000
    5      -16.995320   1.000000
    6      -16.900084   1.000000
    7      -16.793039   1.000000
    8       -9.188579   1.000000
    9       -8.493483   1.000000
   10       -7.372568   1.000000
   11       -6.774411   1.000000
   12       -6.322874   1.000000
   13       -6.089952   1.000000
   14       -5.496142   1.000000
   15       -3.920649   1.000000
   16       -3.362233   1.000000
   17       -2.837055   1.000000
   18       -2.664711   1.000000
   19       -1.856307   1.000000
   20       -1.600596   1.000000
   21        0.447398   0.998348
   22        2.465347   0.000000
   23        2.993628   0.000000
   24        3.380456   0.000000
   25        3.796039   0.000000
   26        4.316021   0.000000
   27        4.692476   0.000000
   28        4.980379   0.000000
   29        5.437272   0.000000
   30        5.872793   0.000000
   31        6.203572   0.000000
   32        6.770292   0.000000
 
 -0.4285714E+00  0.1250000E+00  0.3747003E-15  0.4464286E-02
    1      -34.816011   1.000000
    2      -30.422616   1.000000
    3      -30.201621   1.000000
    4      -30.166348   1.000000
    5      -16.995415   1.000000
    6      -16.900085   1.000000
    7      -16.793027   1.000000
    8       -9.183862   1.000000
    9       -8.511469   1.000000
   10       -7.335891   1.000000
   11       -6.784999   1.000000
   12       -6.373614   1.000000
   13       -6.066479   1.000000
   14       -5.487929   1.000000
   15       -3.900949   1.000000
   16       -3.340790   1.000000
   17       -2.846242   1.000000
   18       -2.649244   1.000000
   19       -1.924433   1.000000
   20       -1.602036   1.000000
   21        0.427831   0.999189
   22        2.457437   0.000000
   23        3.057963   0.000000
   24        3.432106   0.000000
   25        3.823721   0.000000
   26        4.268971   0.000000
   27        4.753226   0.000000
   28        4.887592   0.000000
   29        5.437280   0.000000
   30        5.746151   0.000000
   31        6.464270   0.000000
   32        6.638997   0.000000
 
 -0.2857143E+00  0.1250000E+00  0.3712308E-15  0.4464286E-02
    1      -34.816021   1.000000
    2      -30.422634   1.000000
    3      -30.201516   1.000000
    4      -30.166382   1.000000
    5      -16.992653   1.000000
    6      -16.899929   1.000000
    7      -16.793000   1.000000
    8       -9.410479   1.000000
    9       -8.244812   1.000000
   10       -7.268076   1.000000
   11       -6.786889   1.000000
   12       -6.458222   1.000000
   13       -6.035540   1.000000
   14       -5.481122   1.000000
   15       -3.894043   1.000000
   16       -3.336626   1.000000
   17       -2.849180   1.000000
   18       -2.658579   1.000000
   19       -2.048063   1.000000
   20       -1.740481   1.000000
   21        0.672848   0.810845
   22        2.563865   0.000000
   23        3.060697   0.000000
   24        3.541440   0.000000
   25        3.860306   0.000000
   26        4.207804   0.000000
   27        4.586582   0.000000
   28        4.862403   0.000000
   29        5.296882   0.000000
   30        5.734041   0.000000
   31        6.412923   0.000000
   32        6.734791   0.000000
 
 -0.1428571E+00  0.1250000E+00  0.3712308E-15  0.4464286E-02
    1      -34.816034   1.000000
    2      -30.422599   1.000000
    3      -30.201374   1.000000
    4      -30.166363   1.000000
    5      -16.989168   1.000000
    6      -16.899807   1.000000
    7      -16.792864   1.000000
    8       -9.592447   1.000000
    9       -8.016141   1.000000
   10       -7.195919   1.000000
   11       -6.777816   1.000000
   12       -6.502695   1.000000
   13       -6.032631   1.000000
   14       -5.483084   1.000000
   15       -3.909535   1.000000
   16       -3.354191   1.000000
   17       -2.853161   1.000000
   18       -2.703490   1.000000
   19       -2.168346   1.000000
   20       -1.806516   1.000000
   21        0.965416   0.001462
   22        2.711746   0.000000
   23        3.025906   0.000000
   24        3.548508   0.000000
   25        3.874138   0.000000
   26        4.189679   0.000000
   27        4.398868   0.000000
   28        4.984113   0.000000
   29        5.170011   0.000000
   30        5.682822   0.000000
   31        6.393334   0.000000
   32        6.610915   0.000000
 
  0.3747003E-15  0.2500000E+00  0.3747003E-15  0.4464286E-02
    1      -34.816090   1.000000
    2      -30.422730   1.000000
    3      -30.201300   1.000000
    4      -30.166069   1.000000
    5      -16.986502   1.000000
    6      -16.906161   1.000000
    7      -16.798480   1.000000
    8       -9.477413   1.000000
    9       -8.029240   1.000000
   10       -7.338227   1.000000
   11       -6.821065   1.000000
   12       -6.378697   1.000000
   13       -5.959211   1.000000
   14       -5.611324   1.000000
   15       -3.896413   1.000000
   16       -3.308818   1.000000
   17       -2.917011   1.000000
   18       -2.579870   1.000000
   19       -2.166823   1.000000
   20       -2.068101   1.000000
   21        1.089344   0.000002
   22        2.768687   0.000000
   23        3.256975   0.000000
   24        3.528567   0.000000
   25        3.863628   0.000000
   26        4.375958   0.000000
   27        4.543901   0.000000
   28        5.010648   0.000000
   29        5.300431   0.000000
   30        5.835627   0.000000
   31        6.026274   0.000000
   32        6.260918   0.000000
 
  0.1428571E+00  0.2500000E+00  0.3747003E-15  0.4464286E-02
    1      -34.816081   1.000000
    2      -30.422777   1.000000
    3      -30.201475   1.000000
    4      -30.166075   1.000000
    5      -16.988031   1.000000
    6      -16.906265   1.000000
    7      -16.798567   1.000000
    8       -9.420459   1.000000
    9       -8.012707   1.000000
   10       -7.480641   1.000000
   11       -6.831929   1.000000
   12       -6.305831   1.000000
   13       -5.968352   1.000000
   14       -5.642883   1.000000
   15       -3.925078   1.000000
   16       -3.314431   1.000000
   17       -2.920898   1.000000
   18       -2.562537   1.000000
   19       -2.069089   1.000000
   20       -2.009372   1.000000
   21        0.993640   0.000487
   22        2.722707   0.000000
   23        3.183522   0.000000
   24        3.477780   0.000000
   25        3.864241   0.000000
   26        4.348398   0.000000
   27        4.611707   0.000000
   28        5.037222   0.000000
   29        5.375647   0.000000
   30        5.764247   0.000000
   31        5.980916   0.000000
   32        6.346354   0.000000
 
  0.2857143E+00  0.2500000E+00  0.3747003E-15  0.4464286E-02
    1      -34.816068   1.000000
    2      -30.422762   1.000000
    3      -30.201637   1.000000
    4      -30.166111   1.000000
    5      -16.991417   1.000000
    6      -16.906373   1.000000
    7      -16.798691   1.000000
    8       -9.256176   1.000000
    9       -8.127779   1.000000
   10       -7.612503   1.000000
   11       -6.814361   1.000000
   12       -6.265761   1.000000
   13       -6.052255   1.000000
   14       -5.635970   1.000000
   15       -3.923986   1.000000
   16       -3.339376   1.000000
   17       -2.820805   1.000000
   18       -2.550960   1.000000
   19       -2.077202   1.000000
   20       -1.798460   1.000000
   21        0.712511   0.416600
   22        2.707143   0.000000
   23        3.090812   0.000000
   24        3.482615   0.000000
   25        3.838865   0.000000
   26        4.318227   0.000000
   27        4.678986   0.000000
   28        5.019501   0.000000
   29        5.387401   0.000000
   30        5.904898   0.000000
   31        6.017838   0.000000
   32        6.244696   0.000000
 
  0.4285714E+00  0.2500000E+00  0.3885781E-15  0.4464286E-02
    1      -34.816054   1.000000
    2      -30.422747   1.000000
    3      -30.201697   1.000000
    4      -30.166110   1.000000
    5      -16.994075   1.000000
    6      -16.906404   1.000000
    7      -16.798755   1.000000
    8       -9.049456   1.000000
    9       -8.376330   1.000000
   10       -7.599363   1.000000
   11       -6.819020   1.000000
   12       -6.277852   1.000000
   13       -6.105237   1.000000
   14       -5.609116   1.000000
   15       -3.906228   1.000000
   16       -3.347465   1.000000
   17       -2.710520   1.000000
   18       -2.563214   1.000000
   19       -2.120036   1.000000
   20       -1.621696   1.000000
   21        0.439344   0.998748
   22        2.647855   0.000000
   23        3.178444   0.000000
   24        3.468264   0.000000
   25        3.837682   0.000000
   26        4.376953   0.000000
   27        4.626511   0.000000
   28        4.963188   0.000000
   29        5.479451   0.000000
   30        5.941896   0.000000
   31        6.031652   0.000000
   32        6.473381   0.000000
 
 -0.4285714E+00  0.2500000E+00  0.3851086E-15  0.4464286E-02
    1      -34.816055   1.000000
    2      -30.422795   1.000000
    3      -30.201635   1.000000
    4      -30.166140   1.000000
    5      -16.994096   1.000000
    6      -16.906319   1.000000
    7      -16.798736   1.000000
    8       -9.035282   1.000000
    9       -8.422618   1.000000
   10       -7.535253   1.000000
   11       -6.834086   1.000000
   12       -6.350618   1.000000
   13       -6.060853   1.000000
   14       -5.598886   1.000000
   15       -3.881401   1.000000
   16       -3.331822   1.000000
   17       -2.666602   1.000000
   18       -2.565564   1.000000
   19       -2.186642   1.000000
   20       -1.659840   1.000000
   21        0.409954   0.999619
   22        2.626633   0.000000
   23        3.348638   0.000000
   24        3.472363   0.000000
   25        3.882109   0.000000
   26        4.351092   0.000000
   27        4.542187   0.000000
   28        4.932060   0.000000
   29        5.545916   0.000000
   30        5.863980   0.000000
   31        6.205448   0.000000
   32        6.430583   0.000000
 
 -0.2857143E+00  0.2500000E+00  0.3955170E-15  0.4464286E-02
    1      -34.816070   1.000000
    2      -30.422839   1.000000
    3      -30.201572   1.000000
    4      -30.166160   1.000000
    5      -16.991516   1.000000
    6      -16.906271   1.000000
    7      -16.798683   1.000000
    8       -9.242467   1.000000
    9       -8.235279   1.000000
   10       -7.457601   1.000000
   11       -6.804840   1.000000
   12       -6.422506   1.000000
   13       -6.020848   1.000000
   14       -5.593587   1.000000
   15       -3.860420   1.000000
   16       -3.317432   1.000000
   17       -2.704955   1.000000
   18       -2.562959   1.000000
   19       -2.231285   1.000000
   20       -1.886217   1.000000
   21        0.646870   0.977597
   22        2.706325   0.000000
   23        3.284460   0.000000
   24        3.671780   0.000000
   25        3.938193   0.000000
   26        4.257658   0.000000
   27        4.411089   0.000000
   28        4.971848   0.000000
   29        5.533110   0.000000
   30        5.677701   0.000000
   31        6.259771   0.000000
   32        6.353528   0.000000
 
 -0.1428571E+00  0.2500000E+00  0.3747003E-15  0.4464286E-02
    1      -34.816084   1.000000
    2      -30.422751   1.000000
    3      -30.201434   1.000000
    4      -30.166121   1.000000
    5      -16.988087   1.000000
    6      -16.906180   1.000000
    7      -16.798596   1.000000
    8       -9.412863   1.000000
    9       -8.096746   1.000000
   10       -7.362105   1.000000
   11       -6.771733   1.000000
   12       -6.447741   1.000000
   13       -5.993669   1.000000
   14       -5.590185   1.000000
   15       -3.860703   1.000000
   16       -3.315039   1.000000
   17       -2.814570   1.000000
   18       -2.569775   1.000000
   19       -2.231672   1.000000
   20       -2.044903   1.000000
   21        0.940077   0.003087
   22        2.798625   0.000000
   23        3.201808   0.000000
   24        3.706570   0.000000
   25        3.952442   0.000000
   26        4.261282   0.000000
   27        4.397042   0.000000
   28        5.070800   0.000000
   29        5.269593   0.000000
   30        5.727864   0.000000
   31        6.163623   0.000000
   32        6.337605   0.000000
 
  0.3729655E-15  0.3750000E+00  0.3330669E-15  0.4464286E-02
    1      -34.816141   1.000000
    2      -30.422943   1.000000
    3      -30.201378   1.000000
    4      -30.165825   1.000000
    5      -16.985487   1.000000
    6      -16.913125   1.000000
    7      -16.803683   1.000000
    8       -9.213247   1.000000
    9       -8.292625   1.000000
   10       -7.402083   1.000000
   11       -6.817954   1.000000
   12       -6.295738   1.000000
   13       -5.916732   1.000000
   14       -5.739233   1.000000
   15       -3.804203   1.000000
   16       -3.242722   1.000000
   17       -2.934476   1.000000
   18       -2.542989   1.000000
   19       -2.316720   1.000000
   20       -2.133429   1.000000
   21        1.071865   0.000007
   22        2.766187   0.000000
   23        3.384194   0.000000
   24        3.707195   0.000000
   25        3.942837   0.000000
   26        4.484547   0.000000
   27        4.669612   0.000000
   28        5.164295   0.000000
   29        5.404443   0.000000
   30        5.599325   0.000000
   31        5.836030   0.000000
   32        6.254674   0.000000
 
  0.1428571E+00  0.3750000E+00  0.3608225E-15  0.4464286E-02
    1      -34.816136   1.000000
    2      -30.422971   1.000000
    3      -30.201621   1.000000
    4      -30.165824   1.000000
    5      -16.987015   1.000000
    6      -16.913278   1.000000
    7      -16.803810   1.000000
    8       -9.168117   1.000000
    9       -8.240056   1.000000
   10       -7.553413   1.000000
   11       -6.811554   1.000000
   12       -6.239458   1.000000
   13       -5.958109   1.000000
   14       -5.769914   1.000000
   15       -3.840127   1.000000
   16       -3.230722   1.000000
   17       -2.916331   1.000000
   18       -2.546913   1.000000
   19       -2.292869   1.000000
   20       -2.014170   1.000000
   21        0.968146   0.001330
   22        2.738200   0.000000
   23        3.387342   0.000000
   24        3.645265   0.000000
   25        3.948253   0.000000
   26        4.400069   0.000000
   27        4.667012   0.000000
   28        5.201978   0.000000
   29        5.423976   0.000000
   30        5.589159   0.000000
   31        5.844097   0.000000
   32        6.200661   0.000000
 
  0.2857143E+00  0.3750000E+00  0.3885781E-15  0.4464286E-02
    1      -34.816118   1.000000
    2      -30.422982   1.000000
    3      -30.201689   1.000000
    4      -30.165802   1.000000
    5      -16.990136   1.000000
    6      -16.913240   1.000000
    7      -16.803903   1.000000
    8       -9.026292   1.000000
    9       -8.165550   1.000000
   10       -7.809691   1.000000
   11       -6.784827   1.000000
   12       -6.231557   1.000000
   13       -6.075564   1.000000
   14       -5.754542   1.000000
   15       -3.856147   1.000000
   16       -3.269430   1.000000
   17       -2.778885   1.000000
   18       -2.518795   1.000000
   19       -2.297097   1.000000
   20       -1.814811   1.000000
   21        0.682864   0.721594
   22        2.760961   0.000000
   23        3.329734   0.000000
   24        3.683875   0.000000
   25        3.871373   0.000000
   26        4.338612   0.000000
   27        4.694564   0.000000
   28        5.223110   0.000000
   29        5.340147   0.000000
   30        5.580179   0.000000
   31        6.021165   0.000000
   32        6.218241   0.000000
 
  0.4285714E+00  0.3750000E+00  0.4163336E-15  0.4464286E-02
    1      -34.816102   1.000000
    2      -30.422876   1.000000
    3      -30.201697   1.000000
    4      -30.165766   1.000000
    5      -16.992686   1.000000
    6      -16.913039   1.000000
    7      -16.803883   1.000000
    8       -8.850583   1.000000
    9       -8.241269   1.000000
   10       -7.904330   1.000000
   11       -6.790787   1.000000
   12       -6.299513   1.000000
   13       -6.119019   1.000000
   14       -5.714596   1.000000
   15       -3.853715   1.000000
   16       -3.298240   1.000000
   17       -2.643977   1.000000
   18       -2.501371   1.000000
   19       -2.338017   1.000000
   20       -1.641856   1.000000
   21        0.411735   0.999587
   22        2.771263   0.000000
   23        3.333899   0.000000
   24        3.702135   0.000000
   25        3.873373   0.000000
   26        4.401742   0.000000
   27        4.594834   0.000000
   28        5.136456   0.000000
   29        5.374114   0.000000
   30        5.741190   0.000000
   31        5.956993   0.000000
   32        6.476258   0.000000
 
 -0.4285714E+00  0.3750000E+00  0.3885781E-15  0.4464286E-02
    1      -34.816103   1.000000
    2      -30.422899   1.000000
    3      -30.201716   1.000000
    4      -30.165746   1.000000
    5      -16.992757   1.000000
    6      -16.912929   1.000000
    7      -16.803859   1.000000
    8       -8.827091   1.000000
    9       -8.332361   1.000000
   10       -7.817338   1.000000
   11       -6.795287   1.000000
   12       -6.357196   1.000000
   13       -6.075692   1.000000
   14       -5.711394   1.000000
   15       -3.838667   1.000000
   16       -3.294195   1.000000
   17       -2.580781   1.000000
   18       -2.501595   1.000000
   19       -2.395228   1.000000
   20       -1.681149   1.000000
   21        0.389644   0.999855
   22        2.759722   0.000000
   23        3.465439   0.000000
   24        3.649654   0.000000
   25        4.004081   0.000000
   26        4.293330   0.000000
   27        4.537002   0.000000
   28        5.094476   0.000000
   29        5.434502   0.000000
   30        5.902149   0.000000
   31        6.041227   0.000000
   32        6.375737   0.000000
 
 -0.2857143E+00  0.3750000E+00  0.3747003E-15  0.4464286E-02
    1      -34.816117   1.000000
    2      -30.422986   1.000000
    3      -30.201572   1.000000
    4      -30.165799   1.000000
    5      -16.990210   1.000000
    6      -16.913040   1.000000
    7      -16.803829   1.000000
    8       -9.000613   1.000000
    9       -8.299088   1.000000
   10       -7.663605   1.000000
   11       -6.761104   1.000000
   12       -6.373309   1.000000
   13       -6.020370   1.000000
   14       -5.728482   1.000000
   15       -3.812908   1.000000
   16       -3.274110   1.000000
   17       -2.678867   1.000000
   18       -2.478787   1.000000
   19       -2.398586   1.000000
   20       -1.920230   1.000000
   21        0.633654   1.023394
   22        2.785255   0.000000
   23        3.450678   0.000000
   24        3.782694   0.000000
   25        4.079441   0.000000
   26        4.153934   0.000000
   27        4.484951   0.000000
   28        5.169055   0.000000
   29        5.535703   0.000000
   30        5.715009   0.000000
   31        5.973008   0.000000
   32        6.239722   0.000000
 
 -0.1428571E+00  0.3750000E+00  0.3747003E-15  0.4464286E-02
    1      -34.816133   1.000000
    2      -30.422934   1.000000
    3      -30.201502   1.000000
    4      -30.165802   1.000000
    5      -16.986983   1.000000
    6      -16.913081   1.000000
    7      -16.803672   1.000000
    8       -9.153621   1.000000
    9       -8.301900   1.000000
   10       -7.476491   1.000000
   11       -6.766235   1.000000
   12       -6.345499   1.000000
   13       -5.971532   1.000000
   14       -5.722909   1.000000
   15       -3.791236   1.000000
   16       -3.260074   1.000000
   17       -2.835150   1.000000
   18       -2.492937   1.000000
   19       -2.359453   1.000000
   20       -2.119527   1.000000
   21        0.928292   0.003963
   22        2.806814   0.000000
   23        3.353946   0.000000
   24        3.851131   0.000000
   25        3.993894   0.000000
   26        4.314539   0.000000
   27        4.536729   0.000000
   28        5.220886   0.000000
   29        5.455927   0.000000
   30        5.646110   0.000000
   31        5.889851   0.000000
   32        6.100948   0.000000
 
  0.3816392E-15  0.5000000E+00  0.3330669E-15  0.2232143E-02
    1      -34.816161   1.000000
    2      -30.423047   1.000000
    3      -30.201481   1.000000
    4      -30.165700   1.000000
    5      -16.985043   1.000000
    6      -16.916217   1.000000
    7      -16.805633   1.000000
    8       -9.026529   1.000000
    9       -8.494726   1.000000
   10       -7.410152   1.000000
   11       -6.815438   1.000000
   12       -6.252419   1.000000
   13       -5.907036   1.000000
   14       -5.798352   1.000000
   15       -3.748035   1.000000
   16       -3.187681   1.000000
   17       -2.958987   1.000000
   18       -2.650298   1.000000
   19       -2.327554   1.000000
   20       -2.116312   1.000000
   21        1.064563   0.000011
   22        2.753522   0.000000
   23        3.403790   0.000000
   24        3.814218   0.000000
   25        3.969209   0.000000
   26        4.509532   0.000000
   27        4.754599   0.000000
   28        5.246608   0.000000
   29        5.424568   0.000000
   30        5.656850   0.000000
   31        5.686268   0.000000
   32        6.155859   0.000000
 
  0.1428571E+00  0.5000000E+00  0.3053113E-15  0.4464286E-02
    1      -34.816155   1.000000
    2      -30.423054   1.000000
    3      -30.201562   1.000000
    4      -30.165715   1.000000
    5      -16.986488   1.000000
    6      -16.916180   1.000000
    7      -16.805717   1.000000
    8       -8.980652   1.000000
    9       -8.456206   1.000000
   10       -7.526949   1.000000
   11       -6.782941   1.000000
   12       -6.244404   1.000000
   13       -5.969948   1.000000
   14       -5.805987   1.000000
   15       -3.768113   1.000000
   16       -3.193827   1.000000
   17       -2.895706   1.000000
   18       -2.613459   1.000000
   19       -2.338931   1.000000