   23   23   60    1
  0.7139592E+01  0.3964610E-09  0.5863022E-09  0.7415982E-09  0.5000000E-15
  1.000000000000000E-004
  CAR 
 unknown system                          
     42    193     36
 
  0.3742002E-15  0.3742002E-15  0.3742002E-15  0.2597403E-02
    1      -34.598026   1.000000
    2      -30.005360   1.000000
    3      -29.911571   1.000000
    4      -29.894080   1.000000
    5      -16.783556   1.000000
    6      -16.628785   1.000000
    7      -16.572874   1.000000
    8       -9.806613   1.000000
    9       -7.946770   1.000000
   10       -7.020158   1.000000
   11       -6.545760   1.000000
   12       -6.211437   1.000000
   13       -5.552522   1.000000
   14       -4.974252   1.000000
   15       -4.616305   1.000000
   16       -3.393887   1.000000
   17       -3.043400   1.000000
   18       -2.382527   1.000000
   19       -2.130622   1.000000
   20       -1.412996   1.000000
   21       -0.659406   0.857192
   22        3.068994   0.000000
   23        3.124307   0.000000
   24        3.211366   0.000000
   25        3.516141   0.000000
   26        4.493919   0.000000
   27        4.841836   0.000000
   28        4.997794   0.000000
   29        5.706650   0.000000
   30        6.226997   0.000000
   31        6.536572   0.000000
   32        6.871572   0.000000
   33        7.198848   0.000000
   34        7.672524   0.000000
   35        7.702205   0.000000
   36        7.963972   0.000000
 
  0.9090909E-01  0.3810971E-15  0.3712308E-15  0.5194805E-02
    1      -34.596770   1.000000
    2      -30.005095   1.000000
    3      -29.913258   1.000000
    4      -29.896218   1.000000
    5      -16.779214   1.000000
    6      -16.625925   1.000000
    7      -16.599123   1.000000
    8       -9.738360   1.000000
    9       -7.920876   1.000000
   10       -7.003890   1.000000
   11       -6.548383   1.000000
   12       -6.126815   1.000000
   13       -5.537912   1.000000
   14       -5.057120   1.000000
   15       -4.680064   1.000000
   16       -3.363134   1.000000
   17       -3.015017   1.000000
   18       -2.448141   1.000000
   19       -2.157989   1.000000
   20       -1.435214   1.000000
   21       -0.756304   1.023973
   22        3.002157   0.000000
   23        3.143226   0.000000
   24        3.324996   0.000000
   25        3.518779   0.000000
   26        4.491473   0.000000
   27        4.755650   0.000000
   28        4.992014   0.000000
   29        5.745191   0.000000
   30        6.084691   0.000000
   31        6.371071   0.000000
   32        6.919244   0.000000
   33        7.239443   0.000000
   34        7.602434   0.000000
   35        7.823636   0.000000
   36        8.118509   0.000000
 
  0.1818182E+00  0.3916138E-15  0.3851086E-15  0.5194805E-02
    1      -34.593398   1.000000
    2      -30.004533   1.000000
    3      -29.920771   1.000000
    4      -29.899143   1.000000
    5      -16.767915   1.000000
    6      -16.668592   1.000000
    7      -16.617872   1.000000
    8       -9.542138   1.000000
    9       -7.860005   1.000000
   10       -6.959793   1.000000
   11       -6.525690   1.000000
   12       -5.960492   1.000000
   13       -5.543438   1.000000
   14       -5.256069   1.000000
   15       -4.831649   1.000000
   16       -3.284333   1.000000
   17       -2.937467   1.000000
   18       -2.621493   1.000000
   19       -2.199435   1.000000
   20       -1.527752   1.000000
   21       -1.003863   0.999997
   22        2.802317   0.000000
   23        3.234431   0.000000
   24        3.492321   0.000000
   25        3.643364   0.000000
   26        4.423489   0.000000
   27        4.690747   0.000000
   28        4.932743   0.000000
   29        5.721863   0.000000
   30        5.776203   0.000000
   31        6.426229   0.000000
   32        6.698081   0.000000
   33        7.052751   0.000000
   34        7.393660   0.000000
   35        7.827089   0.000000
   36        8.044898   0.000000
 
  0.2727273E+00  0.3946496E-15  0.3747003E-15  0.5194805E-02
    1      -34.588968   1.000000
    2      -30.003855   1.000000
    3      -29.933904   1.000000
    4      -29.899600   1.000000
    5      -16.768683   1.000000
    6      -16.741112   1.000000
    7      -16.607372   1.000000
    8       -9.234612   1.000000
    9       -7.794360   1.000000
   10       -6.880089   1.000000
   11       -6.514440   1.000000
   12       -5.893216   1.000000
   13       -5.753473   1.000000
   14       -5.290556   1.000000
   15       -4.885290   1.000000
   16       -3.215981   1.000000
   17       -2.880133   1.000000
   18       -2.764568   1.000000
   19       -2.206594   1.000000
   20       -1.711493   1.000000
   21       -1.303035   1.000000
   22        2.582840   0.000000
   23        3.358141   0.000000
   24        3.464175   0.000000
   25        3.953454   0.000000
   26        4.367929   0.000000
   27        4.671152   0.000000
   28        4.924372   0.000000
   29        5.466650   0.000000
   30        5.673913   0.000000
   31        6.080581   0.000000
   32        6.674152   0.000000
   33        6.933321   0.000000
   34        7.219005   0.000000
   35        7.687483   0.000000
   36        8.089057   0.000000
 
  0.3636364E+00  0.4050579E-15  0.3747003E-15  0.5194805E-02
    1      -34.584883   1.000000
    2      -30.003236   1.000000
    3      -29.946703   1.000000
    4      -29.898743   1.000000
    5      -16.840451   1.000000
    6      -16.733868   1.000000
    7      -16.597206   1.000000
    8       -8.845101   1.000000
    9       -7.791338   1.000000
   10       -6.784948   1.000000
   11       -6.569177   1.000000
   12       -6.185187   1.000000
   13       -5.729263   1.000000
   14       -5.420266   1.000000
   15       -4.569633   1.000000
   16       -3.300079   1.000000
   17       -2.942148   1.000000
   18       -2.675071   1.000000
   19       -2.184916   1.000000
   20       -1.938617   1.000000
   21       -1.554392   1.000000
   22        2.467621   0.000000
   23        3.321169   0.000000
   24        3.503200   0.000000
   25        4.014247   0.000000
   26        4.532422   0.000000
   27        4.700902   0.000000
   28        4.877691   0.000000
   29        5.225628   0.000000
   30        5.675374   0.000000
   31        5.782159   0.000000
   32        6.495295   0.000000
   33        6.911940   0.000000
   34        7.342338   0.000000
   35        7.595071   0.000000
   36        7.854257   0.000000
 
  0.4545455E+00  0.4106958E-15  0.3469447E-15  0.5194805E-02
    1      -34.582459   1.000000
    2      -30.003039   1.000000
    3      -29.954448   1.000000
    4      -29.898347   1.000000
    5      -16.886282   1.000000
    6      -16.725680   1.000000
    7      -16.591343   1.000000
    8       -8.456754   1.000000
    9       -7.932331   1.000000
   10       -6.834240   1.000000
   11       -6.547560   1.000000
   12       -6.321232   1.000000
   13       -5.807039   1.000000
   14       -5.482022   1.000000
   15       -4.164782   1.000000
   16       -3.526945   1.000000
   17       -2.957820   1.000000
   18       -2.591453   1.000000
   19       -2.261460   1.000000
   20       -2.005102   1.000000
   21       -1.712552   1.000000
   22        2.474311   0.000000
   23        3.188975   0.000000
   24        3.604357   0.000000
   25        3.947786   0.000000
   26        4.564483   0.000000
   27        4.735587   0.000000
   28        4.836743   0.000000
   29        5.123254   0.000000
   30        5.575048   0.000000
   31        5.744751   0.000000
   32        6.715581   0.000000
   33        6.868665   0.000000
   34        7.229404   0.000000
   35        7.611739   0.000000
   36        7.758586   0.000000
 
  0.3734534E-15  0.1428571E+00  0.3736161E-15  0.5194805E-02
    1      -34.598255   1.000000
    2      -30.005465   1.000000
    3      -29.910884   1.000000
    4      -29.893766   1.000000
    5      -16.783026   1.000000
    6      -16.633634   1.000000
    7      -16.572351   1.000000
    8       -9.733444   1.000000
    9       -7.964517   1.000000
   10       -7.255242   1.000000
   11       -6.630038   1.000000
   12       -5.943992   1.000000
   13       -5.479858   1.000000
   14       -4.969752   1.000000
   15       -4.628181   1.000000
   16       -3.416663   1.000000
   17       -3.010862   1.000000
   18       -2.480861   1.000000
   19       -2.149266   1.000000
   20       -1.411694   1.000000
   21       -0.665555   0.900551
   22        3.009610   0.000000
   23        3.154695   0.000000
   24        3.371789   0.000000
   25        3.715595   0.000000
   26        4.499067   0.000000
   27        4.818010   0.000000
   28        5.056405   0.000000
   29        5.773502   0.000000
   30        6.244178   0.000000
   31        6.460546   0.000000
   32        6.885003   0.000000
   33        7.120248   0.000000
   34        7.509921   0.000000
   35        7.618720   0.000000
   36        7.868138   0.000000
 
  0.9090909E-01  0.1428571E+00  0.3712308E-15  0.5194805E-02
    1      -34.596901   1.000000
    2      -30.005199   1.000000
    3      -29.912737   1.000000
    4      -29.896280   1.000000
    5      -16.778930   1.000000
    6      -16.628224   1.000000
    7      -16.598987   1.000000
    8       -9.709825   1.000000
    9       -7.924482   1.000000
   10       -7.122522   1.000000
   11       -6.556264   1.000000
   12       -6.028285   1.000000
   13       -5.545402   1.000000
   14       -5.030233   1.000000
   15       -4.672334   1.000000
   16       -3.371460   1.000000
   17       -3.012873   1.000000
   18       -2.455080   1.000000
   19       -2.172264   1.000000
   20       -1.471244   1.000000
   21       -0.744566   1.035187
   22        3.002677   0.000000
   23        3.112400   0.000000
   24        3.362594   0.000000
   25        3.599247   0.000000
   26        4.594073   0.000000
   27        4.644401   0.000000
   28        5.129139   0.000000
   29        5.659415   0.000000
   30        6.145497   0.000000
   31        6.335146   0.000000
   32        7.019253   0.000000
   33        7.298218   0.000000
   34        7.458161   0.000000
   35        7.783053   0.000000
   36        7.849203   0.000000
 
  0.1818182E+00  0.1428571E+00  0.3781697E-15  0.5194805E-02
    1      -34.593433   1.000000
    2      -30.004433   1.000000
    3      -29.920432   1.000000
    4      -29.899248   1.000000
    5      -16.767768   1.000000
    6      -16.668695   1.000000
    7      -16.617660   1.000000
    8       -9.553985   1.000000
    9       -7.849399   1.000000
   10       -6.950422   1.000000
   11       -6.419902   1.000000
   12       -6.083794   1.000000
   13       -5.563766   1.000000
   14       -5.242415   1.000000
   15       -4.817825   1.000000
   16       -3.263893   1.000000
   17       -2.969774   1.000000
   18       -2.528890   1.000000
   19       -2.255649   1.000000
   20       -1.550349   1.000000
   21       -0.972652   0.999980
   22        2.846096   0.000000
   23        3.143952   0.000000
   24        3.499236   0.000000
   25        3.562970   0.000000
   26        4.443710   0.000000
   27        4.655745   0.000000
   28        5.063700   0.000000
   29        5.576316   0.000000
   30        5.881871   0.000000
   31        6.364733   0.000000
   32        6.843893   0.000000
   33        7.187372   0.000000
   34        7.379407   0.000000
   35        7.890910   0.000000
   36        7.989292   0.000000
 
  0.2727273E+00  0.1428571E+00  0.3885781E-15  0.5194805E-02
    1      -34.588950   1.000000
    2      -30.003761   1.000000
    3      -29.933656   1.000000
    4      -29.899799   1.000000
    5      -16.768630   1.000000
    6      -16.741526   1.000000
    7      -16.605809   1.000000
    8       -9.282199   1.000000
    9       -7.768880   1.000000
   10       -6.797193   1.000000
   11       -6.336251   1.000000
   12       -6.095625   1.000000
   13       -5.680142   1.000000
   14       -5.440809   1.000000
   15       -4.897626   1.000000
   16       -3.171886   1.000000
   17       -2.919944   1.000000
   18       -2.640205   1.000000
   19       -2.303207   1.000000
   20       -1.688737   1.000000
   21       -1.246264   1.000000
   22        2.617275   0.000000
   23        3.216887   0.000000
   24        3.437891   0.000000
   25        3.838666   0.000000
   26        4.357017   0.000000
   27        4.656591   0.000000
   28        4.946722   0.000000
   29        5.523173   0.000000
   30        5.602069   0.000000
   31        6.212645   0.000000
   32        6.825377   0.000000
   33        7.024436   0.000000
   34        7.201747   0.000000
   35        7.610433   0.000000
   36        8.069264   0.000000
 
  0.3636364E+00  0.1428571E+00  0.3816392E-15  0.5194805E-02
    1      -34.584866   1.000000
    2      -30.003171   1.000000
    3      -29.946597   1.000000
    4      -29.899114   1.000000
    5      -16.840841   1.000000
    6      -16.734065   1.000000
    7      -16.595903   1.000000
    8       -8.917472   1.000000
    9       -7.746555   1.000000
   10       -6.730567   1.000000
   11       -6.423979   1.000000
   12       -6.078053   1.000000
   13       -5.880044   1.000000
   14       -5.565393   1.000000
   15       -4.654682   1.000000
   16       -3.279928   1.000000
   17       -2.882455   1.000000
   18       -2.622434   1.000000
   19       -2.271598   1.000000
   20       -1.926087   1.000000
   21       -1.468489   1.000000
   22        2.486138   0.000000
   23        3.200189   0.000000
   24        3.439019   0.000000
   25        3.991374   0.000000
   26        4.397637   0.000000
   27        4.709587   0.000000
   28        4.891588   0.000000
   29        5.304553   0.000000
   30        5.589258   0.000000
   31        5.953829   0.000000
   32        6.628304   0.000000
   33        6.853124   0.000000
   34        7.335982   0.000000
   35        7.534487   0.000000
   36        7.966767   0.000000
 
  0.4545455E+00  0.1428571E+00  0.3747003E-15  0.5194805E-02
    1      -34.582489   1.000000
    2      -30.002925   1.000000
    3      -29.954373   1.000000
    4      -29.898286   1.000000
    5      -16.886401   1.000000
    6      -16.725561   1.000000
    7      -16.591091   1.000000
    8       -8.519714   1.000000
    9       -7.869474   1.000000
   10       -6.834097   1.000000
   11       -6.479328   1.000000
   12       -6.297956   1.000000
   13       -5.766813   1.000000
   14       -5.608181   1.000000
   15       -4.236317   1.000000
   16       -3.511683   1.000000
   17       -2.889386   1.000000
   18       -2.548217   1.000000
   19       -2.303188   1.000000
   20       -2.063003   1.000000
   21       -1.635983   1.000000
   22        2.487843   0.000000
   23        3.127060   0.000000
   24        3.538001   0.000000
   25        3.973916   0.000000
   26        4.471816   0.000000
   27        4.760697   0.000000
   28        4.843481   0.000000
   29        5.323743   0.000000
   30        5.584397   0.000000
   31        5.751144   0.000000
   32        6.586978   0.000000
   33        6.758031   0.000000
   34        7.352482   0.000000
   35        7.643760   0.000000
   36        7.858577   0.000000
 
 -0.4545455E+00  0.1428571E+00  0.3608225E-15  0.5194805E-02
    1      -34.582581   1.000000
    2      -30.003029   1.000000
    3      -29.954446   1.000000
    4      -29.898032   1.000000
    5      -16.886172   1.000000
    6      -16.725226   1.000000
    7      -16.593401   1.000000
    8       -8.341629   1.000000
    9       -8.010739   1.000000
   10       -6.945334   1.000000
   11       -6.584650   1.000000
   12       -6.343210   1.000000
   13       -5.736579   1.000000
   14       -5.420114   1.000000
   15       -4.075241   1.000000
   16       -3.561656   1.000000
   17       -2.961797   1.000000
   18       -2.594291   1.000000
   19       -2.337555   1.000000
   20       -2.024290   1.000000
   21       -1.693760   1.000000
   22        2.483754   0.000000
   23        3.203923   0.000000
   24        3.671435   0.000000
   25        3.952891   0.000000
   26        4.505121   0.000000
   27        4.785805   0.000000
   28        4.907978   0.000000
   29        5.318573   0.000000
   30        5.602194   0.000000
   31        5.739249   0.000000
   32        6.653974   0.000000
   33        6.800194   0.000000
   34        7.028043   0.000000
   35        7.402294   0.000000
   36        7.863267   0.000000
 
 -0.3636364E+00  0.1428571E+00  0.3747003E-15  0.5194805E-02
    1      -34.585106   1.000000
    2      -30.003338   1.000000
    3      -29.946680   1.000000
    4      -29.898215   1.000000
    5      -16.840021   1.000000
    6      -16.733095   1.000000
    7      -16.601844   1.000000
    8       -8.682540   1.000000
    9       -7.901480   1.000000
   10       -7.023543   1.000000
   11       -6.607126   1.000000
   12       -6.252657   1.000000
   13       -5.620345   1.000000
   14       -5.237549   1.000000
   15       -4.415853   1.000000
   16       -3.329404   1.000000
   17       -3.007423   1.000000
   18       -2.690592   1.000000
   19       -2.291335   1.000000
   20       -1.950990   1.000000
   21       -1.572205   1.000000
   22        2.480536   0.000000
   23        3.393329   0.000000
   24        3.664364   0.000000
   25        4.125089   0.000000
   26        4.522437   0.000000
   27        4.865811   0.000000
   28        5.016831   0.000000
   29        5.208680   0.000000
   30        5.587971   0.000000
   31        5.924516   0.000000
   32        6.313699   0.000000
   33        6.725253   0.000000
   34        7.241796   0.000000
   35        7.454921   0.000000
   36        7.753463   0.000000
 
 -0.2727273E+00  0.1428571E+00  0.3816392E-15  0.5194805E-02
    1      -34.589262   1.000000
    2      -30.003929   1.000000
    3      -29.933780   1.000000
    4      -29.898540   1.000000
    5      -16.768087   1.000000
    6      -16.739913   1.000000
    7      -16.613512   1.000000
    8       -9.070792   1.000000
    9       -7.901763   1.000000
   10       -7.164563   1.000000
   11       -6.561086   1.000000
   12       -5.954174   1.000000
   13       -5.544669   1.000000
   14       -5.084933   1.000000
   15       -4.784719   1.000000
   16       -3.268633   1.000000
   17       -2.955443   1.000000
   18       -2.759433   1.000000
   19       -2.276799   1.000000
   20       -1.750665   1.000000
   21       -1.335484   1.000000
   22        2.599763   0.000000
   23        3.434755   0.000000
   24        3.676596   0.000000
   25        4.273340   0.000000
   26        4.436819   0.000000
   27        4.802783   0.000000
   28        5.095924   0.000000
   29        5.333459   0.000000
   30        5.591508   0.000000
   31        5.959805   0.000000
   32        6.417292   0.000000
   33        6.771909   0.000000
   34        7.301797   0.000000
   35        7.507404   0.000000
   36        7.897168   0.000000
 
 -0.1818182E+00  0.1428571E+00  0.3747003E-15  0.5194805E-02
    1      -34.593722   1.000000
    2      -30.004650   1.000000
    3      -29.920509   1.000000
    4      -29.898150   1.000000
    5      -16.766934   1.000000
    6      -16.668218   1.000000
    7      -16.624660   1.000000
    8       -9.397949   1.000000
    9       -7.939270   1.000000
   10       -7.283097   1.000000
   11       -6.580312   1.000000
   12       -5.694947   1.000000
   13       -5.507292   1.000000
   14       -5.101887   1.000000
   15       -4.836150   1.000000
   16       -3.339192   1.000000
   17       -2.890189   1.000000
   18       -2.757144   1.000000
   19       -2.235749   1.000000
   20       -1.548195   1.000000
   21       -1.038546   1.000000
   22        2.816144   0.000000
   23        3.305192   0.000000
   24        3.698765   0.000000
   25        3.971265   0.000000
   26        4.503390   0.000000
   27        4.836035   0.000000
   28        5.049072   0.000000
   29        5.575190   0.000000
   30        5.758347   0.000000
   31        6.253672   0.000000
   32        6.466311   0.000000
   33        6.829437   0.000000
   34        7.377010   0.000000
   35        7.624636   0.000000
   36        7.912573   0.000000
 
 -0.9090909E-01  0.1428571E+00  0.3694961E-15  0.5194805E-02
    1      -34.597077   1.000000
    2      -30.005313   1.000000
    3      -29.912777   1.000000
    4      -29.895656   1.000000
    5      -16.778429   1.000000
    6      -16.632960   1.000000
    7      -16.598403   1.000000
    8       -9.627892   1.000000
    9       -7.967087   1.000000
   10       -7.317566   1.000000
   11       -6.624392   1.000000
   12       -5.819640   1.000000
   13       -5.410935   1.000000
   14       -5.058003   1.000000
   15       -4.706990   1.000000
   16       -3.402263   1.000000
   17       -2.965139   1.000000
   18       -2.599590   1.000000
   19       -2.184214   1.000000
   20       -1.426721   1.000000
   21       -0.779853   1.005670
   22        2.990909   0.000000
   23        3.184130   0.000000
   24        3.524120   0.000000
   25        3.817163   0.000000
   26        4.458197   0.000000
   27        4.934048   0.000000
   28        4.974043   0.000000
   29        5.754089   0.000000
   30        6.090731   0.000000
   31        6.408564   0.000000
   32        6.713925   0.000000
   33        6.812733   0.000000
   34        7.462148   0.000000
   35        7.717759   0.000000
   36        8.014885   0.000000
 
  0.3745783E-15  0.2857143E+00  0.3707971E-15  0.5194805E-02
    1      -34.598784   1.000000
    2      -30.005696   1.000000
    3      -29.909689   1.000000
    4      -29.893214   1.000000
    5      -16.781857   1.000000
    6      -16.644574   1.000000
    7      -16.571578   1.000000
    8       -9.534921   1.000000
    9       -8.132026   1.000000
   10       -7.561897   1.000000
   11       -6.642376   1.000000
   12       -5.680545   1.000000
   13       -5.309284   1.000000
   14       -4.948258   1.000000
   15       -4.670939   1.000000
   16       -3.461855   1.000000
   17       -2.976409   1.000000
   18       -2.652264   1.000000
   19       -2.211277   1.000000
   20       -1.412199   1.000000
   21       -0.679648   0.978146
   22        3.054235   0.000000
   23        3.251589   0.000000
   24        3.632182   0.000000
   25        4.184510   0.000000
   26        4.504836   0.000000
   27        4.806586   0.000000
   28        5.212501   0.000000
   29        5.902025   0.000000
   30        6.054085   0.000000
   31        6.247693   0.000000
   32        6.612289   0.000000
   33        6.870041   0.000000
   34        7.496897   0.000000
   35        7.552555   0.000000
   36        7.713743   0.000000
 
  0.9090909E-01  0.2857143E+00  0.3712308E-15  0.5194805E-02
    1      -34.597386   1.000000
    2      -30.005463   1.000000
    3      -29.911821   1.000000
    4      -29.895683   1.000000
    5      -16.777945   1.000000
    6      -16.638111   1.000000
    7      -16.598131   1.000000
    8       -9.549627   1.000000
    9       -8.019811   1.000000
   10       -7.470178   1.000000
   11       -6.600038   1.000000
   12       -5.740552   1.000000
   13       -5.432353   1.000000
   14       -4.982477   1.000000
   15       -4.681171   1.000000
   16       -3.423250   1.000000
   17       -2.974425   1.000000
   18       -2.609765   1.000000
   19       -2.203424   1.000000
   20       -1.502928   1.000000
   21       -0.758122   1.022288
   22        2.980208   0.000000
   23        3.158417   0.000000
   24        3.580958   0.000000
   25        4.031005   0.000000
   26        4.586961   0.000000
   27        4.850318   0.000000
   28        5.248219   0.000000
   29        5.709049   0.000000
   30        6.034093   0.000000
   31        6.228522   0.000000
   32        6.774852   0.000000
   33        6.918650   0.000000
   34        7.295948   0.000000
   35        7.686781   0.000000
   36        7.862824   0.000000
 
  0.1818182E+00  0.2857143E+00  0.3712308E-15  0.5194805E-02
    1      -34.593826   1.000000
    2      -30.004722   1.000000
    3      -29.919967   1.000000
    4      -29.898708   1.000000
    5      -16.766957   1.000000
    6      -16.668629   1.000000
    7      -16.624687   1.000000
    8       -9.438059   1.000000
    9       -7.896365   1.000000
   10       -7.272561   1.000000
   11       -6.504397   1.000000
   12       -5.837549   1.000000
   13       -5.533334   1.000000
   14       -5.114334   1.000000
   15       -4.791828   1.000000
   16       -3.318048   1.000000
   17       -2.938403   1.000000
   18       -2.632154   1.000000
   19       -2.243633   1.000000
   20       -1.636811   1.000000
   21       -0.990111   0.999993
   22        2.838810   0.000000
   23        3.125474   0.000000
   24        3.661713   0.000000
   25        3.865288   0.000000
   26        4.551203   0.000000
   27        4.877668   0.000000
   28        5.239761   0.000000
   29        5.505945   0.000000
   30        5.862331   0.000000
   31        6.264288   0.000000
   32        6.669571   0.000000
   33        6.871955   0.000000
   34        7.106090   0.000000
   35        7.719704   0.000000
   36        8.141766   0.000000
 
  0.2727273E+00  0.2857143E+00  0.3816392E-15  0.5194805E-02
    1      -34.589231   1.000000
    2      -30.003877   1.000000
    3      -29.933403   1.000000
    4      -29.899167   1.000000
    5      -16.768228   1.000000
    6      -16.741030   1.000000
    7      -16.610248   1.000000
    8       -9.207588   1.000000
    9       -7.790881   1.000000
   10       -7.012637   1.000000
   11       -6.408714   1.000000
   12       -6.049916   1.000000
   13       -5.584047   1.000000
   14       -5.332664   1.000000
   15       -4.836595   1.000000
   16       -3.210444   1.000000
   17       -2.877092   1.000000
   18       -2.665155   1.000000
   19       -2.341755   1.000000
   20       -1.738385   1.000000
   21       -1.281755   1.000000
   22        2.646547   0.000000
   23        3.153732   0.000000
   24        3.604019   0.000000
   25        3.962011   0.000000
   26        4.507117   0.000000
   27        4.836574   0.000000
   28        5.015217   0.000000
   29        5.456809   0.000000
   30        5.634617   0.000000
   31        6.177722   0.000000
   32        6.576370   0.000000
   33        6.864115   0.000000
   34        7.042467   0.000000
   35        7.692926   0.000000
   36        7.963291   0.000000
 
  0.3636364E+00  0.2857143E+00  0.3538836E-15  0.5194805E-02
    1      -34.585069   1.000000
    2      -30.003164   1.000000
    3      -29.946414   1.000000
    4      -29.898612   1.000000
    5      -16.840721   1.000000
    6      -16.733647   1.000000
    7      -16.598313   1.000000
    8       -8.882461   1.000000
    9       -7.758459   1.000000
   10       -6.819461   1.000000
   11       -6.407840   1.000000
   12       -6.176592   1.000000
   13       -5.804093   1.000000
   14       -5.497408   1.000000
   15       -4.620579   1.000000
   16       -3.294345   1.000000
   17       -2.813535   1.000000
   18       -2.591358   1.000000
   19       -2.405326   1.000000
   20       -1.894627   1.000000
   21       -1.511725   1.000000
   22        2.521020   0.000000
   23        3.141985   0.000000
   24        3.548292   0.000000
   25        4.102411   0.000000
   26        4.416879   0.000000
   27        4.816353   0.000000
   28        4.966229   0.000000
   29        5.330771   0.000000
   30        5.472296   0.000000
   31        6.034425   0.000000
   32        6.396975   0.000000
   33        6.885703   0.000000
   34        7.256073   0.000000
   35        7.582553   0.000000
   36        7.703657   0.000000
 
  0.4545455E+00  0.2857143E+00  0.3747003E-15  0.5194805E-02
    1      -34.582661   1.000000
    2      -30.002930   1.000000
    3      -29.954202   1.000000
    4      -29.897979   1.000000
    5      -16.886406   1.000000
    6      -16.725274   1.000000
    7      -16.592886   1.000000
    8       -8.508148   1.000000
    9       -7.870801   1.000000
   10       -6.870275   1.000000
   11       -6.414868   1.000000
   12       -6.319134   1.000000
   13       -5.875161   1.000000
   14       -5.523711   1.000000
   15       -4.241938   1.000000
   16       -3.523995   1.000000
   17       -2.799755   1.000000
   18       -2.511941   1.000000
   19       -2.381439   1.000000
   20       -2.103839   1.000000
   21       -1.638856   1.000000
   22        2.511016   0.000000
   23        3.102722   0.000000
   24        3.609026   0.000000
   25        4.052452   0.000000
   26        4.387315   0.000000
   27        4.788912   0.000000
   28        5.039363   0.000000
   29        5.259351   0.000000
   30        5.536524   0.000000
   31        5.956264   0.000000
   32        6.310167   0.000000
   33        6.799764   0.000000
   34        7.268628   0.000000
   35        7.527305   0.000000
   36        7.772013   0.000000
 
 -0.4545455E+00  0.2857143E+00  0.3608225E-15  0.5194805E-02
    1      -34.582768   1.000000
    2      -30.002999   1.000000
    3      -29.954193   1.000000
    4      -29.897532   1.000000
    5      -16.885890   1.000000
    6      -16.724793   1.000000
    7      -16.595578   1.000000
    8       -8.224002   1.000000
    9       -8.095183   1.000000
   10       -7.031730   1.000000
   11       -6.571489   1.000000
   12       -6.334968   1.000000
   13       -5.755429   1.000000
   14       -5.359717   1.000000
   15       -4.035249   1.000000
   16       -3.591773   1.000000
   17       -2.891334   1.000000
   18       -2.586068   1.000000
   19       -2.368011   1.000000
   20       -2.120013   1.000000
   21       -1.667642   1.000000
   22        2.502479   0.000000
   23        3.209726   0.000000
   24        3.738541   0.000000
   25        3.939307   0.000000
   26        4.522452   0.000000
   27        4.797456   0.000000
   28        5.103360   0.000000
   29        5.406889   0.000000