Automatically generated mesh
      50
Reciprocal lattice
    0.00000000000000    0.00000000000000    0.00000000000000             1
    0.14285714285714    0.00000000000000    0.00000000000000             2
    0.28571428571429    0.00000000000000    0.00000000000000             2
    0.42857142857143    0.00000000000000    0.00000000000000             2
    0.00000000000000    0.14285714285714    0.00000000000000             2
    0.14285714285714    0.14285714285714    0.00000000000000             2
    0.28571428571429    0.14285714285714    0.00000000000000             2
    0.42857142857143    0.14285714285714    0.00000000000000             2
   -0.42857142857143    0.14285714285714    0.00000000000000             2
   -0.28571428571429    0.14285714285714    0.00000000000000             2
   -0.14285714285714    0.14285714285714    0.00000000000000             2
    0.00000000000000    0.28571428571429    0.00000000000000             2
    0.14285714285714    0.28571428571429    0.00000000000000             2
    0.28571428571429    0.28571428571429    0.00000000000000             2
    0.42857142857143    0.28571428571429    0.00000000000000             2
   -0.42857142857143    0.28571428571429    0.00000000000000             2
   -0.28571428571429    0.28571428571429    0.00000000000000             2
   -0.14285714285714    0.28571428571429    0.00000000000000             2
    0.00000000000000    0.42857142857143    0.00000000000000             2
    0.14285714285714    0.42857142857143    0.00000000000000             2
    0.28571428571429    0.42857142857143    0.00000000000000             2
    0.42857142857143    0.42857142857143    0.00000000000000             2
   -0.42857142857143    0.42857142857143    0.00000000000000             2
   -0.28571428571429    0.42857142857143    0.00000000000000             2
   -0.14285714285714    0.42857142857143    0.00000000000000             2
    0.00000000000000    0.00000000000000    0.50000000000000             1
    0.14285714285714    0.00000000000000    0.50000000000000             2
    0.28571428571429    0.00000000000000    0.50000000000000             2
    0.42857142857143    0.00000000000000    0.50000000000000             2
    0.00000000000000    0.14285714285714    0.50000000000000             2
    0.14285714285714    0.14285714285714    0.50000000000000             2
    0.28571428571429    0.14285714285714    0.50000000000000             2
    0.42857142857143    0.14285714285714    0.50000000000000             2
   -0.42857142857143    0.14285714285714    0.50000000000000             2
   -0.28571428571429    0.14285714285714    0.50000000000000             2
   -0.14285714285714    0.14285714285714    0.50000000000000             2
    0.00000000000000    0.28571428571429    0.50000000000000             2
    0.14285714285714    0.28571428571429    0.50000000000000             2
    0.28571428571429    0.28571428571429    0.50000000000000             2
    0.42857142857143    0.28571428571429    0.50000000000000             2
   -0.42857142857143    0.28571428571429    0.50000000000000             2
   -0.28571428571429    0.28571428571429    0.50000000000000             2
   -0.14285714285714    0.28571428571429    0.50000000000000             2
    0.00000000000000    0.42857142857143    0.50000000000000             2
    0.14285714285714    0.42857142857143    0.50000000000000             2
    0.28571428571429    0.42857142857143    0.50000000000000             2
    0.42857142857143    0.42857142857143    0.50000000000000             2
   -0.42857142857143    0.42857142857143    0.50000000000000             2
   -0.28571428571429    0.42857142857143    0.50000000000000             2
   -0.14285714285714    0.42857142857143    0.50000000000000             2
Tetrahedra
       291    0.00170068027211
         2         1         2         6        26
         2         1         5         6        26
         2         5         6        26        30
         2         2         6        26        27
         2         6        26        27        31
         2         6        26        30        31
         2         2         3         7        27
         2         2         6         7        27
         2         6         7        27        31
         2         3         7        27        28
         2         7        27        28        32
         2         7        27        31        32
         2         3         4         8        28
         2         3         7         8        28
         2         7         8        28        32
         2         4         8        28        29
         2         8        28        29        33
         2         8        28        32        33
         2         4         4         9        29
         2         4         8         9        29
         2         8         9        29        33
         2         4         9        29        29
         2         9        29        29        34
         2         9        29        33        34
         2         3         4        10        29
         2         4         9        10        29
         2         9        10        29        34
         2         3        10        28        29
         2        10        28        29        35
         2        10        29        34        35
         2         2         3        11        28
         2         3        10        11        28
         2        10        11        28        35
         2         2        11        27        28
         2        11        27        28        36
         2        11        28        35        36
         2         1         2         5        27
         2         2         5        11        27
         2         5        11        27        36
         2         1         5        26        27
         2         5        26        27        30
         2         5        27        30        36
         2         5         6        13        30
         2         5        12        13        30
         2        12        13        30        37
         2         6        13        30        31
         2        13        30        31        38
         2        13        30        37        38
         2         6         7        14        31
         2         6        13        14        31
         2        13        14        31        38
         2         7        14        31        32
         2        14        31        32        39
         2        14        31        38        39
         2         7         8        15        32
         2         7        14        15        32
         2        14        15        32        39
         2         8        15        32        33
         2        15        32        33        40
         2        15        32        39        40
         2         8         9        16        33
         2         8        15        16        33
         2        15        16        33        40
         2         9        16        33        34
         2        16        33        34        41
         2        16        33        40        41
         2         9        10        17        34
         2         9        16        17        34
         2        16        17        34        41
         2        10        17        34        35
         2        17        34        35        42
         2        17        34        41        42
         2        10        11        18        35
         2        10        17        18        35
         2        17        18        35        42
         2        11        18        35        36
         2        18        35        36        43
         2        18        35        42        43
         2         5        11        12        36
         2        11        12        18        36
         2        12        18        36        43
         2         5        12        30        36
         2        12        30        36        37
         2        12        36        37        43
         2        12        13        20        37
         2        12        19        20        37
         2        19        20        37        44
         2        13        20        37        38
         2        20        37        38        45
         2        20        37        44        45
         2        13        14        21        38
         2        13        20        21        38
         2        20        21        38        45
         2        14        21        38        39
         2        21        38        39        46
         2        21        38        45        46
         2        14        15        22        39
         2        14        21        22        39
         2        21        22        39        46
         2        15        22        39        40
         2        22        39        40        47
         2        22        39        46        47
         2        15        16        23        40
         2        15        22        23        40
         2        22        23        40        47
         2        16        23        40        41
         2        23        40        41        48
         2        23        40        47        48
         2        16        17        24        41
         2        16        23        24        41
         2        23        24        41        48
         2        17        24        41        42
         2        24        41        42        49
         2        24        41        48        49
         2        17        18        25        42
         2        17        24        25        42
         2        24        25        42        49
         2        18        25        42        43
         2        25        42        43        50
         2        25        42        49        50
         2        12        18        19        43
         2        18        19        25        43
         2        19        25        43        50
         2        12        19        37        43
         2        19        37        43        44
         2        19        43        44        50
         2        19        20        25        44
         2        19        19        25        44
         2        19        25        44        44
         2        20        25        44        45
         2        25        44        45        50
         2        25        44        44        50
         2        20        21        24        45
         2        20        24        25        45
         2        24        25        45        50
         2        21        24        45        46
         2        24        45        46        49
         2        24        45        49        50
         2        21        22        23        46
         2        21        23        24        46
         2        23        24        46        49
         2        22        23        46        47
         2        23        46        47        48
         2        23        46        48        49
         4        22        22        23        47
         4        22        23        47        48
         4        22        47        47        48
         2        21        23        24        48
         2        21        22        23        48
         2        21        22        47        48
         2        21        24        48        49
         2        21        46        48        49
         2        21        46        47        48
         2        20        24        25        49
         2        20        21        24        49
         2        20        21        46        49
         2        20        25        49        50
         2        20        45        49        50
         2        20        45        46        49
         2        19        19        25        50
         2        19        20        25        50
         2        19        20        45        50
         2        19        19        44        50
         2        19        44        44        50
         2        19        44        45        50
         2        18        19        25        44
         2        12        18        19        44
         2        12        18        37        44
         2        18        25        44        50
         2        18        43        44        50
         2        18        37        43        44
         2        17        24        25        50
         2        17        18        25        50
         2        17        18        43        50
         2        17        24        49        50
         2        17        42        49        50
         2        17        42        43        50
         2        16        23        24        49
         2        16        17        24        49
         2        16        17        42        49
         2        16        23        48        49
         2        16        41        48        49
         2        16        41        42        49
         2        15        22        23        48
         2        15        16        23        48
         2        15        16        41        48
         2        15        22        47        48
         2        15        40        47        48
         2        15        40        41        48
         2        14        21        22        47
         2        14        15        22        47
         2        14        15        40        47
         2        14        21        46        47
         2        14        39        46        47
         2        14        39        40        47
         2        13        20        21        46
         2        13        14        21        46
         2        13        14        39        46
         2        13        20        45        46
         2        13        38        45        46
         2        13        38        39        46
         2        12        19        20        45
         2        12        13        20        45
         2        12        13        38        45
         2        12        19        44        45
         2        12        37        44        45
         2        12        37        38        45
         2        11        12        18        37
         2         5        11        12        37
         2         5        11        30        37
         2        11        18        37        43
         2        11        36        37        43
         2        11        30        36        37
         2        10        17        18        43
         2        10        11        18        43
         2        10        11        36        43
         2        10        17        42        43
         2        10        35        42        43
         2        10        35        36        43
         2         9        16        17        42
         2         9        10        17        42
         2         9        10        35        42
         2         9        16        41        42
         2         9        34        41        42
         2         9        34        35        42
         2         8        15        16        41
         2         8         9        16        41
         2         8         9        34        41
         2         8        15        40        41
         2         8        33        40        41
         2         8        33        34        41
         2         7        14        15        40
         2         7         8        15        40
         2         7         8        33        40
         2         7        14        39        40
         2         7        32        39        40
         2         7        32        33        40
         2         6        13        14        39
         2         6         7        14        39
         2         6         7        32        39
         2         6        13        38        39
         2         6        31        38        39
         2         6        31        32        39
         2         5        12        13        38
         2         5         6        13        38
         2         5         6        31        38
         2         5        12        37        38
         2         5        30        37        38
         2         5        30        31        38
         2         2         5        11        30
         2         1         2         5        30
         2         1         2        26        30
         2         2        11        30        36
         2         2        27        30        36
         2         2        26        27        30
         2         3        10        11        36
         2         2         3        11        36
         2         2         3        27        36
         2         3        10        35        36
         2         3        28        35        36
         2         3        27        28        36
         2         4         9        10        35
         2         3         4        10        35
         2         3         4        28        35
         2         4         9        34        35
         2         4        29        34        35
         2         4        28        29        35
         2         4         8         9        34
         2         4         4         9        34
         2         4         4        29        34
         2         4         8        33        34
         2         4        29        33        34
         2         4        29        29        34
         2         3         7         8        33
         2         3         4         8        33
         2         3         4        29        33
         2         3         7        32        33
         2         3        28        32        33
         2         3        28        29        33
         2         2         6         7        32
         2         2         3         7        32
         2         2         3        28        32
         2         2         6        31        32
         2         2        27        31        32
         2         2        27        28        32
         2         1         5         6        31
         2         1         2         6        31
         2         1         2        27        31
         2         1         5        30        31
         2         1        26        30        31
         2         1        26        27        31
