   13   13   99    2
  0.7869320E+01  0.3226614E-09  0.4632351E-09  0.7299293E-09  0.5000000E-15
  1.000000000000000E-004
  CAR 
 unknown system                          
     42     53     32
 
  0.3742002E-15  0.3742002E-15  0.1262379E-14  0.9523810E-02
    1      -32.439867    -32.433143   1.000000   1.000000
    2      -28.781441    -28.287692   1.000000   1.000000
    3      -28.718026    -28.270247   1.000000   1.000000
    4      -28.619696    -28.150494   1.000000   1.000000
    5      -28.556731    -28.037175   1.000000   1.000000
    6      -28.508019    -28.026019   1.000000   1.000000
    7      -28.484495    -27.893050   1.000000   1.000000
    8      -14.560695    -14.547668   1.000000   1.000000
    9      -14.487912    -14.481369   1.000000   1.000000
   10      -14.049915    -14.041080   1.000000   1.000000
   11       -6.774798     -6.653133   1.000000   1.000000
   12       -4.282982     -4.183470   1.000000   1.000000
   13       -3.104404     -3.007555   1.000000   1.000000
   14       -2.450046     -2.347660   1.000000   1.000000
   15       -2.104077     -1.986918   1.000000   1.000000
   16       -1.350024     -1.188418   1.000000   1.000000
   17       -0.656763     -0.504751   1.000000   1.000000
   18       -0.312233     -0.117076   1.000000   1.000000
   19        0.786600      1.204111   1.000000   1.000000
   20        2.083880      2.332864   1.000000   1.000000
   21        3.032905      3.596780   1.000000  -0.010955
   22        3.260048      3.768065   1.000000   0.000000
   23        3.864512      4.163349   0.000000   0.000000
   24        4.061187      4.539423   0.000000   0.000000
   25        4.212477      4.805935   0.000000   0.000000
   26        4.802287      5.236500   0.000000   0.000000
   27        5.238298      5.742874   0.000000   0.000000
   28        6.314627      6.448664   0.000000   0.000000
   29        7.325413      7.568355   0.000000   0.000000
   30        7.759778      7.911624   0.000000   0.000000
   31        8.319140      8.514987   0.000000   0.000000
   32        8.487816      8.569713   0.000000   0.000000
 
  0.1428571E+00  0.3719815E-15  0.3663682E-15  0.1904762E-01
    1      -32.417002    -32.410249   1.000000   1.000000
    2      -28.771350    -28.280925   1.000000   1.000000
    3      -28.712512    -28.260910   1.000000   1.000000
    4      -28.682559    -28.214210   1.000000   1.000000
    5      -28.568300    -28.097060   1.000000   1.000000
    6      -28.548641    -28.021472   1.000000   1.000000
    7      -28.479008    -27.885266   1.000000   1.000000
    8      -14.523106    -14.510048   1.000000   1.000000
    9      -14.454146    -14.447961   1.000000   1.000000
   10      -14.295471    -14.286959   1.000000   1.000000
   11       -6.397835     -6.278834   1.000000   1.000000
   12       -4.016930     -3.927353   1.000000   1.000000
   13       -2.935554     -2.826933   1.000000   1.000000
   14       -2.377308     -2.272241   1.000000   1.000000
   15       -2.189429     -2.063143   1.000000   1.000000
   16       -1.264044     -1.122375   1.000000   1.000000
   17       -0.769616     -0.587101   1.000000   1.000000
   18       -0.294191     -0.111184   1.000000   1.000000
   19        0.226890      0.539197   1.000000   1.000000
   20        1.367253      1.592581   1.000000   1.000000
   21        2.747433      3.383751   1.000000  -0.022483
   22        2.899700      3.573640   1.000000   0.000000
   23        3.744456      4.172626   0.000000   0.000000
   24        4.455330      5.000870   0.000000   0.000000
   25        4.842693      5.213711   0.000000   0.000000
   26        5.455921      5.814310   0.000000   0.000000
   27        5.923176      6.160138   0.000000   0.000000
   28        6.670279      6.883463   0.000000   0.000000
   29        6.933528      7.213506   0.000000   0.000000
   30        7.581278      7.826274   0.000000   0.000000
   31        8.219487      8.427471   0.000000   0.000000
   32        8.623565      8.767070   0.000000   0.000000
 
  0.2857143E+00  0.3639007E-15  0.1246510E-14  0.1904762E-01
    1      -32.364992    -32.358174   1.000000   1.000000
    2      -28.816462    -28.354072   1.000000   1.000000
    3      -28.757244    -28.287026   1.000000   1.000000
    4      -28.728823    -28.238953   1.000000   1.000000
    5      -28.661182    -28.206132   1.000000   1.000000
    6      -28.535545    -28.012759   1.000000   1.000000
    7      -28.469013    -27.869327   1.000000   1.000000
    8      -14.809460    -14.801837   1.000000   1.000000
    9      -14.432226    -14.418916   1.000000   1.000000
   10      -14.375689    -14.370291   1.000000   1.000000
   11       -5.402966     -5.292067   1.000000   1.000000
   12       -3.459206     -3.371942   1.000000   1.000000
   13       -2.694522     -2.557782   1.000000   1.000000
   14       -2.433211     -2.318610   1.000000   1.000000
   15       -2.195117     -2.063556   1.000000   1.000000
   16       -1.440539     -1.244198   1.000000   1.000000
   17       -1.017748     -0.863156   1.000000   1.000000
   18       -0.536186     -0.325252   1.000000   1.000000
   19       -0.138641      0.003403   1.000000   1.000000
   20        0.317223      0.480130   1.000000   1.000000
   21        2.435969      3.256974   1.000000   0.631134
   22        2.933266      3.649150   1.041508   0.000000
   23        3.988504      4.393500   0.000000   0.000000
   24        5.015592      5.414281   0.000000   0.000000
   25        5.250962      5.554231   0.000000   0.000000
   26        5.726242      6.112186   0.000000   0.000000
   27        6.177402      6.441894   0.000000   0.000000
   28        7.041980      7.287789   0.000000   0.000000
   29        7.313350      7.608236   0.000000   0.000000
   30        7.767948      7.959793   0.000000   0.000000
   31        8.206909      8.395344   0.000000   0.000000
   32        8.517509      8.753521   0.000000   0.000000
 
  0.4285714E+00  0.1261442E-14  0.3711142E-15  0.1904762E-01
    1      -32.322630    -32.315754   1.000000   1.000000
    2      -28.920095    -28.461910   1.000000   1.000000
    3      -28.836283    -28.364314   1.000000   1.000000
    4      -28.724098    -28.222793   1.000000   1.000000
    5      -28.660306    -28.217551   1.000000   1.000000
    6      -28.525831    -28.006495   1.000000   1.000000
    7      -28.461773    -27.857179   1.000000   1.000000
    8      -15.184337    -15.177282   1.000000   1.000000
    9      -14.361572    -14.348162   1.000000   1.000000
   10      -14.309616    -14.304869   1.000000   1.000000
   11       -4.161780     -4.068186   1.000000   1.000000
   12       -3.127428     -2.965242   1.000000   1.000000
   13       -2.865172     -2.758998   1.000000   1.000000
   14       -2.606332     -2.463577   1.000000   1.000000
   15       -2.180212     -1.998298   1.000000   1.000000
   16       -1.934980     -1.797177   1.000000   1.000000
   17       -1.069302     -0.912103   1.000000   1.000000
   18       -0.781553     -0.631608   1.000000   1.000000
   19       -0.414023     -0.312438   1.000000   1.000000
   20        0.063801      0.198330   1.000000   1.000000
   21        2.379076      3.290739   1.000000   0.247986
   22        3.211104      3.919398   0.929594   0.000000
   23        4.600866      4.993446   0.000000   0.000000
   24        5.014124      5.299051   0.000000   0.000000
   25        5.427209      5.773334   0.000000   0.000000
   26        5.840369      6.192995   0.000000   0.000000
   27        6.185343      6.509163   0.000000   0.000000
   28        6.832621      7.182086   0.000000   0.000000
   29        7.219805      7.437901   0.000000   0.000000
   30        7.688030      7.861432   0.000000   0.000000
   31        8.141864      8.447737   0.000000   0.000000
   32        8.636912      8.868562   0.000000   0.000000
 
  0.3745233E-15  0.2000000E+00  0.1282464E-14  0.1904762E-01
    1      -32.439319    -32.432595   1.000000   1.000000
    2      -28.784472    -28.292931   1.000000   1.000000
    3      -28.721496    -28.269679   1.000000   1.000000
    4      -28.618379    -28.149205   1.000000   1.000000
    5      -28.554398    -28.038364   1.000000   1.000000
    6      -28.509236    -28.027174   1.000000   1.000000
    7      -28.483676    -27.890645   1.000000   1.000000
    8      -14.562557    -14.548206   1.000000   1.000000
    9      -14.508753    -14.503520   1.000000   1.000000
   10      -14.049238    -14.040409   1.000000   1.000000
   11       -6.486810     -6.368286   1.000000   1.000000
   12       -4.449658     -4.342814   1.000000   1.000000
   13       -2.942126     -2.846550   1.000000   1.000000
   14       -2.685402     -2.590751   1.000000   1.000000
   15       -2.049839     -1.955301   1.000000   1.000000
   16       -1.467297     -1.304365   1.000000   1.000000
   17       -0.755681     -0.603154   1.000000   1.000000
   18       -0.079054      0.138273   1.000000   1.000000
   19        0.705689      1.106319   1.000000   1.000000
   20        1.928309      2.200375   1.000000   1.000000
   21        2.951789      3.493242   1.000000  -0.033824
   22        3.184050      3.736654   1.000000   0.000000
   23        3.923467      4.221746   0.000000   0.000000
   24        3.936950      4.543621   0.000000   0.000000
   25        4.196087      4.818422   0.000000   0.000000
   26        5.173859      5.541398   0.000000   0.000000
   27        5.630739      6.035473   0.000000   0.000000
   28        6.287464      6.432771   0.000000   0.000000
   29        6.985602      7.136543   0.000000   0.000000
   30        7.087749      7.333957   0.000000   0.000000
   31        8.547034      8.775180   0.000000   0.000000
   32        8.730474      8.804357   0.000000   0.000000
 
  0.1428571E+00  0.2000000E+00  0.1260995E-14  0.1904762E-01
    1      -32.416469    -32.409715   1.000000   1.000000
    2      -28.774601    -28.283955   1.000000   1.000000
    3      -28.714684    -28.262162   1.000000   1.000000
    4      -28.681541    -28.213836   1.000000   1.000000
    5      -28.569810    -28.097836   1.000000   1.000000
    6      -28.546768    -28.021445   1.000000   1.000000
    7      -28.478111    -27.883820   1.000000   1.000000
    8      -14.526149    -14.511876   1.000000   1.000000
    9      -14.472557    -14.467572   1.000000   1.000000
   10      -14.293695    -14.285228   1.000000   1.000000
   11       -6.102389     -5.986653   1.000000   1.000000
   12       -4.217865     -4.120712   1.000000   1.000000
   13       -2.757104     -2.644099   1.000000   1.000000
   14       -2.635624     -2.540259   1.000000   1.000000
   15       -2.068839     -1.963232   1.000000   1.000000
   16       -1.421178     -1.268323   1.000000   1.000000
   17       -0.844508     -0.672984   1.000000   1.000000
   18       -0.232081     -0.031067   1.000000   1.000000
   19        0.331093      0.642591   1.000000   1.000000
   20        1.227655      1.457975   1.000000   1.000000
   21        2.819840      3.463721   1.000000  -0.049421
   22        2.842090      3.550430   1.000000   0.000000
   23        3.931860      4.345440   0.000000   0.000000
   24        4.207009      4.764789   0.000000   0.000000
   25        4.814729      5.211098   0.000000   0.000000
   26        5.471255      5.747527   0.000000   0.000000
   27        6.041694      6.384333   0.000000   0.000000
   28        6.670212      6.828666   0.000000   0.000000
   29        6.940310      7.163946   0.000000   0.000000
   30        7.326239      7.612067   0.000000   0.000000
   31        8.113554      8.337833   0.000000   0.000000
   32        8.727635      8.891452   0.000000   0.000000
 
  0.2857143E+00  0.2000000E+00  0.1256945E-14  0.1904762E-01
    1      -32.364475    -32.357658   1.000000   1.000000
    2      -28.816158    -28.354248   1.000000   1.000000
    3      -28.765100    -28.286253   1.000000   1.000000
    4      -28.722546    -28.247683   1.000000   1.000000
    5      -28.663401    -28.201637   1.000000   1.000000
    6      -28.535334    -28.012022   1.000000   1.000000
    7      -28.468667    -27.869411   1.000000   1.000000
    8      -14.806007    -14.798437   1.000000   1.000000
    9      -14.437600    -14.423480   1.000000   1.000000
   10      -14.388858    -14.384318   1.000000   1.000000
   11       -5.136990     -5.028015   1.000000   1.000000
   12       -3.579736     -3.491366   1.000000   1.000000
   13       -2.711112     -2.568212   1.000000   1.000000
   14       -2.452558     -2.347100   1.000000   1.000000
   15       -2.161434     -2.049059   1.000000   1.000000
   16       -1.472607     -1.273799   1.000000   1.000000
   17       -1.137715     -0.964476   1.000000   1.000000
   18       -0.770932     -0.613965   1.000000   1.000000
   19       -0.049917      0.147528   1.000000   1.000000
   20        0.380120      0.561001   1.000000   1.000000
   21        2.628064      3.472670   1.000000  -0.022674
   22        3.056231      3.795468   1.039424   0.000000
   23        4.135489      4.541512   0.000000   0.000000
   24        4.553642      4.998366   0.000000   0.000000
   25        5.436248      5.719693   0.000000   0.000000
   26        5.653499      6.002615   0.000000   0.000000
   27        6.105404      6.375554   0.000000   0.000000
   28        7.067825      7.323328   0.000000   0.000000
   29        7.506733      7.731717   0.000000   0.000000
   30        7.765014      8.048989   0.000000   0.000000
   31        8.354667      8.521488   0.000000   0.000000
   32        8.625134      8.873478   0.000000   0.000000
 
  0.4285714E+00  0.2000000E+00  0.3954267E-15  0.1904762E-01
    1      -32.322124    -32.315255   1.000000   1.000000
    2      -28.920227    -28.462677   1.000000   1.000000
    3      -28.839384    -28.364539   1.000000   1.000000
    4      -28.720994    -28.232744   1.000000   1.000000
    5      -28.661802    -28.209233   1.000000   1.000000
    6      -28.526701    -28.005636   1.000000   1.000000
    7      -28.462059    -27.858226   1.000000   1.000000
    8      -15.180043    -15.173053   1.000000   1.000000
    9      -14.368573    -14.354928   1.000000   1.000000
   10      -14.318805    -14.314365   1.000000   1.000000
   11       -3.985274     -3.886601   1.000000   1.000000
   12       -3.087497     -2.921999   1.000000   1.000000
   13       -2.765734     -2.674725   1.000000   1.000000
   14       -2.640169     -2.499199   1.000000   1.000000
   15       -2.221068     -2.060950   1.000000   1.000000
   16       -1.964929     -1.826592   1.000000   1.000000
   17       -1.314884     -1.197873   1.000000   1.000000
   18       -0.955222     -0.757598   1.000000   1.000000
   19       -0.684990     -0.555045   1.000000   1.000000
   20        0.550456      0.692013   1.000000   1.000000
   21        2.602427      3.550962   1.000000  -0.015374
   22        3.468145      4.264051   0.093161   0.000000
   23        4.539686      4.904622   0.000000   0.000000
   24        5.003162      5.333427   0.000000   0.000000
   25        5.324716      5.690613   0.000000   0.000000
   26        5.738124      6.027184   0.000000   0.000000
   27        6.418167      6.674475   0.000000   0.000000
   28        6.723744      7.119185   0.000000   0.000000
   29        7.216625      7.448219   0.000000   0.000000
   30        7.718431      7.903813   0.000000   0.000000
   31        7.948317      8.209491   0.000000   0.000000
   32        8.629117      8.889027   0.000000   0.000000
 
 -0.4285714E+00  0.2000000E+00  0.1263902E-14  0.1904762E-01
    1      -32.322122    -32.315252   1.000000   1.000000
    2      -28.920240    -28.462669   1.000000   1.000000
    3      -28.839327    -28.364498   1.000000   1.000000
    4      -28.721023    -28.232781   1.000000   1.000000
    5      -28.661882    -28.209254   1.000000   1.000000
    6      -28.526634    -28.005686   1.000000   1.000000
    7      -28.462073    -27.858176   1.000000   1.000000
    8      -15.180073    -15.173080   1.000000   1.000000
    9      -14.368410    -14.354777   1.000000   1.000000
   10      -14.318768    -14.314329   1.000000   1.000000
   11       -4.034897     -3.937541   1.000000   1.000000
   12       -2.995564     -2.816719   1.000000   1.000000
   13       -2.854119     -2.728370   1.000000   1.000000
   14       -2.527383     -2.432828   1.000000   1.000000
   15       -2.187029     -2.008649   1.000000   1.000000
   16       -2.016582     -1.889709   1.000000   1.000000
   17       -1.345135     -1.261171   1.000000   1.000000
   18       -1.173353     -0.975269   1.000000   1.000000
   19       -0.461769     -0.319442   1.000000   1.000000
   20        0.622585      0.763313   1.000000   1.000000
   21        2.520213      3.468695   1.000000  -0.056471
   22        3.404202      4.157701   0.280513   0.000000
   23        4.699344      5.068501   0.000000   0.000000
   24        4.778260      5.252226   0.000000   0.000000
   25        5.347112      5.653117   0.000000   0.000000
   26        5.684111      5.920782   0.000000   0.000000
   27        6.246792      6.569454   0.000000   0.000000
   28        6.885819      7.150909   0.000000   0.000000
   29        7.350041      7.594188   0.000000   0.000000
   30        7.685145      7.937197   0.000000   0.000000
   31        7.921349      8.140225   0.000000   0.000000
   32        8.686231      8.927202   0.000000   0.000000
 
 -0.2857143E+00  0.2000000E+00  0.4243833E-15  0.1904762E-01
    1      -32.364469    -32.357653   1.000000   1.000000
    2      -28.816246    -28.354242   1.000000   1.000000
    3      -28.765108    -28.286152   1.000000   1.000000
    4      -28.722324    -28.247841   1.000000   1.000000
    5      -28.663738    -28.201668   1.000000   1.000000
    6      -28.535169    -28.012066   1.000000   1.000000
    7      -28.468636    -27.869298   1.000000   1.000000
    8      -14.806053    -14.798479   1.000000   1.000000
    9      -14.437051    -14.422955   1.000000   1.000000
   10      -14.388997    -14.384459   1.000000   1.000000
   11       -5.204038     -5.094784   1.000000   1.000000
   12       -3.324365     -3.236898   1.000000   1.000000
   13       -2.850020     -2.717451   1.000000   1.000000
   14       -2.430661     -2.323146   1.000000   1.000000
   15       -2.192673     -2.072390   1.000000   1.000000
   16       -1.584986     -1.396277   1.000000   1.000000
   17       -0.991182     -0.858682   1.000000   1.000000
   18       -0.935124     -0.734049   1.000000   1.000000
   19       -0.004904      0.185142   1.000000   1.000000
   20        0.531699      0.718373   1.000000   1.000000
   21        2.490833      3.321536   1.000000   0.272692
   22        3.055158      3.802334   1.022522   0.000000
   23        4.087306      4.502720   0.000000   0.000000
   24        4.520478      5.038401   0.000000   0.000000
   25        5.380101      5.619143   0.000000   0.000000
   26        5.749557      6.025351   0.000000   0.000000
   27        6.099140      6.399472   0.000000   0.000000
   28        6.840008      7.044450   0.000000   0.000000
   29        7.749667      7.981771   0.000000   0.000000
   30        7.982751      8.217792   0.000000   0.000000
   31        8.175418      8.414361   0.000000   0.000000
   32        8.651398      8.882317   0.000000   0.000000
 
 -0.1428571E+00  0.2000000E+00  0.1268685E-14  0.1904762E-01
    1      -32.416460    -32.409708   1.000000   1.000000
    2      -28.774707    -28.284064   1.000000   1.000000
    3      -28.715051    -28.262178   1.000000   1.000000
    4      -28.681216    -28.213910   1.000000   1.000000
    5      -28.569939    -28.097717   1.000000   1.000000
    6      -28.546567    -28.021464   1.000000   1.000000
    7      -28.478049    -27.883734   1.000000   1.000000
    8      -14.525493    -14.511252   1.000000   1.000000
    9      -14.472884    -14.467895   1.000000   1.000000
   10      -14.293757    -14.285283   1.000000   1.000000
   11       -6.143443     -6.027168   1.000000   1.000000
   12       -4.066259     -3.967768   1.000000   1.000000
   13       -2.904262     -2.800423   1.000000   1.000000
   14       -2.594683     -2.498003   1.000000   1.000000
   15       -2.068311     -1.966751   1.000000   1.000000
   16       -1.500092     -1.339336   1.000000   1.000000
   17       -0.788818     -0.630689   1.000000   1.000000
   18       -0.149665      0.065378   1.000000   1.000000
   19        0.321391      0.641818   1.000000   1.000000
   20        1.126982      1.361386   1.000000   1.000000
   21        2.788968      3.433280   1.000000  -0.076071
   22        2.906190      3.625602   1.000000   0.000000
   23        3.877995      4.315916   0.000000   0.000000
   24        4.218953      4.759541   0.000000   0.000000
   25        4.796800      5.169657   0.000000   0.000000
   26        5.481916      5.723836   0.000000   0.000000
   27        6.128922      6.420867   0.000000   0.000000
   28        6.652897      6.895938   0.000000   0.000000
   29        7.009643      7.212606   0.000000   0.000000
   30        7.450678      7.744061   0.000000   0.000000
   31        8.031660      8.262074   0.000000   0.000000
   32        8.540784      8.697746   0.000000   0.000000
 
  0.3770377E-15  0.4000000E+00  0.1265143E-14  0.1904762E-01
    1      -32.438438    -32.431710   1.000000   1.000000
    2      -28.788842    -28.299126   1.000000   1.000000
    3      -28.727320    -28.271079   1.000000   1.000000
    4      -28.616184    -28.147057   1.000000   1.000000
    5      -28.551060    -28.040347   1.000000   1.000000
    6      -28.511270    -28.028742   1.000000   1.000000
    7      -28.482237    -27.887019   1.000000   1.000000
    8      -14.582271    -14.568209   1.000000   1.000000
    9      -14.524510    -14.519013   1.000000   1.000000
   10      -14.048139    -14.039322   1.000000   1.000000
   11       -5.778839     -5.670231   1.000000   1.000000
   12       -4.903727     -4.780910   1.000000   1.000000
   13       -3.246591     -3.158368   1.000000   1.000000
   14       -2.585804     -2.519932   1.000000   1.000000
   15       -1.944438     -1.836961   1.000000   1.000000
   16       -1.414400     -1.282827   1.000000   1.000000
   17       -0.929131     -0.775254   1.000000   1.000000
   18        0.065583      0.359746   1.000000   1.000000
   19        0.508831      0.803425   1.000000   1.000000
   20        1.914567      2.342381   1.000000   1.000000
   21        2.848740      3.373752   1.000000   0.006228
   22        3.034048      3.613224   1.000000   0.000000
   23        3.737955      4.140012   0.000000   0.000000
   24        4.046757      4.574744   0.000000   0.000000
   25        4.207261      4.883790   0.000000   0.000000
   26        5.154356      5.341530   0.000000   0.000000
   27        5.822838      5.991127   0.000000   0.000000
   28        6.244655      6.665334   0.000000   0.000000
   29        7.031388      7.207211   0.000000   0.000000
   30        7.310177      7.565534   0.000000   0.000000
   31        8.175469      8.322849   0.000000   0.000000
   32        8.856962      8.930939   0.000000   0.000000
 
  0.1428571E+00  0.4000000E+00  0.1235701E-14  0.1904762E-01
    1      -32.415599    -32.408844   1.000000   1.000000
    2      -28.779608    -28.288426   1.000000   1.000000
    3      -28.718931    -28.264700   1.000000   1.000000
    4      -28.679157    -28.213298   1.000000   1.000000
    5      -28.572620    -28.099003   1.000000   1.000000
    6      -28.543785    -28.021307   1.000000   1.000000
    7      -28.476518    -27.881526   1.000000   1.000000
    8      -14.545505    -14.531717   1.000000   1.000000
    9      -14.486426    -14.481002   1.000000   1.000000
   10      -14.291114    -14.282698   1.000000   1.000000
   11       -5.419994     -5.314397   1.000000   1.000000
   12       -4.593906     -4.477940   1.000000   1.000000
   13       -3.133301     -3.039938   1.000000   1.000000
   14       -2.553533     -2.479449   1.000000   1.000000
   15       -1.923365     -1.809816   1.000000   1.000000
   16       -1.456870     -1.310458   1.000000   1.000000
   17       -1.056440     -0.899013   1.000000   1.000000
   18        0.054064      0.342354   1.000000   1.000000
   19        0.295335      0.528722   1.000000   1.000000
   20        1.081773      1.323866   1.000000   1.000000
   21        2.534328      3.294789   1.000000   0.355408
   22        2.776123      3.447595   1.000000   0.000000
   23        3.924144      4.347049   0.000000   0.000000
   24        4.277474      4.870161   0.000000   0.000000
   25        4.589997      4.914998   0.000000   0.000000
   26        5.787714      6.067871   0.000000   0.000000
   27        6.208193      6.503351   0.000000   0.000000
   28        6.555284      6.817498   0.000000   0.000000
   29        7.233303      7.398090   0.000000   0.000000
   30        7.448251      7.732335   0.000000   0.000000
   31        7.933199      8.183179   0.000000   0.000000
   32        8.750345      8.846868   0.000000   0.000000
 
  0.2857143E+00  0.4000000E+00  0.1192086E-14  0.1904762E-01
    1      -32.363636    -32.356822   1.000000   1.000000
    2      -28.815912    -28.354703   1.000000   1.000000
    3      -28.775102    -28.285598   1.000000   1.000000
    4      -28.713319    -28.257410   1.000000   1.000000
    5      -28.668773    -28.198118   1.000000   1.000000
    6      -28.534725    -28.010779   1.000000   1.000000
    7      -28.468139    -27.869483   1.000000   1.000000
    8      -14.800396    -14.792908   1.000000   1.000000
    9      -14.457910    -14.444889   1.000000   1.000000
   10      -14.397810    -14.392270   1.000000   1.000000
   11       -4.544949     -4.444885   1.000000   1.000000
   12       -3.819501     -3.708121   1.000000   1.000000
   13       -2.914087     -2.805936   1.000000   1.000000
   14       -2.503752     -2.410348   1.000000   1.000000
   15       -2.068054     -1.949201   1.000000   1.000000
   16       -1.575032     -1.398382   1.000000   1.000000
   17       -1.331988     -1.182908   1.000000   1.000000
   18       -0.705461     -0.512259   1.000000   1.000000
   19       -0.228866     -0.013925   1.000000   1.000000
   20        0.637935      0.824630   1.000000   1.000000
   21        2.577564      3.432458   1.000000  -0.015086
   22        2.900940      3.662066   1.010384   0.000000
   23        4.109436      4.507856   0.000000   0.000000
   24        4.803776      5.292247   0.000000   0.000000
   25        5.399834      5.808252   0.000000   0.000000
   26        5.978730      6.276554   0.000000   0.000000
   27        6.368745      6.636355   0.000000   0.000000
   28        6.823622      7.091671   0.000000   0.000000
   29        7.491367      7.664164   0.000000   0.000000
   30        8.017105      8.269343   0.000000   0.000000
   31        8.285813      8.531094   0.000000   0.000000
   32        8.522950      8.738098   0.000000   0.000000
 
  0.4285714E+00  0.4000000E+00  0.1278389E-14  0.1904762E-01
    1      -32.321307    -32.314444   1.000000   1.000000
    2      -28.920514    -28.463940   1.000000   1.000000
    3      -28.844350    -28.365347   1.000000   1.000000
    4      -28.715098    -28.238849   1.000000   1.000000
    5      -28.665193    -28.205333   1.000000   1.000000
    6      -28.527724    -28.004190   1.000000   1.000000
    7      -28.462789    -27.859946   1.000000   1.000000
    8      -15.173117    -15.166229   1.000000   1.000000
    9      -14.387976    -14.375523   1.000000   1.000000
   10      -14.325101    -14.319593   1.000000   1.000000
   11       -3.649813     -3.538196   1.000000   1.000000
   12       -3.159402     -2.980149   1.000000   1.000000
   13       -2.676606     -2.584552   1.000000   1.000000
   14       -2.424752     -2.313513   1.000000   1.000000
   15       -2.261393     -2.152840   1.000000   1.000000
   16       -2.085291     -1.970992   1.000000   1.000000
   17       -1.698752     -1.588721   1.000000   1.000000
   18       -1.195417     -0.958203   1.000000   1.000000
   19       -0.737281     -0.590058   1.000000   1.000000
   20        0.937995      1.098274   1.000000   1.000000
   21        2.823358      3.858095   1.000000   0.000000
   22        3.261365      4.055024   0.957699   0.000000
   23        4.681699      5.046101   0.000000   0.000000
   24        5.067247      5.457918   0.000000   0.000000
   25        5.822713      6.203598   0.000000   0.000000
   26        6.080592      6.389559   0.000000   0.000000
   27        6.249241      6.558855   0.000000   0.000000
   28        6.824674      7.241895   0.000000   0.000000
   29        7.094920      7.296544   0.000000   0.000000
   30        7.451916      7.753277   0.000000   0.000000
   31        8.030831      8.187992   0.000000   0.000000
   32        8.263040      8.428657   0.000000   0.000000
 
 -0.4285714E+00  0.4000000E+00  0.1269982E-14  0.1904762E-01
    1      -32.321306    -32.314444   1.000000   1.000000
    2      -28.920518    -28.463932   1.000000   1.000000
    3      -28.844308    -28.365315   1.000000   1.000000
    4      -28.715114    -28.238866   1.000000   1.000000
    5      -28.665255    -28.205364   1.000000   1.000000
    6      -28.527693    -28.004224   1.000000   1.000000
    7      -28.462795    -27.859917   1.000000   1.000000
    8      -15.173124    -15.166235   1.000000   1.000000
    9      -14.387909    -14.375472   1.000000   1.000000
   10      -14.325029    -14.319516   1.000000   1.000000
   11       -3.732527     -3.616905   1.000000   1.000000
   12       -3.080127     -2.898981   1.000000   1.000000
   13       -2.619932     -2.529860   1.000000   1.000000
   14       -2.455424     -2.336221   1.000000   1.000000
   15       -2.199853     -2.102788   1.000000   1.000000
   16       -2.084267     -1.961763   1.000000   1.000000