unknown system                          
           1
     5.160734   -0.079140    0.209827
     2.405542    4.295183    0.375135
     2.077317    1.211042    5.824523
   Sr   Nb   H 
   1   1  14
Direct configuration=     1
   0.92714000  0.06812600  0.19469600
   0.18447300  0.24146000  0.52861900
   0.67728700  0.84765500  0.91485600
   0.67881100  0.75673100  0.04430000
   0.24545900  0.23772500  0.80058800
   0.21868400  0.83762300  0.78242100
   0.50530100  0.37463800  0.97035700
   0.62837000  0.34696800  0.85772800
   0.38612000  0.03527000  0.29354300
   0.98669700  0.61648300  0.64590500
   0.83807300  0.64154000  0.60429500
   0.24680000  0.78324800  0.66362100
   0.56936300  0.00333500  0.55093000
   0.86481500  0.16041700  0.55456800
   0.38529000  0.49917000  0.31015400
   0.98102000  0.51033300  0.28619400
unknown system                          
           1
     5.219747   -0.076100    0.215465
     2.436557    4.344464    0.379768
     2.106132    1.225282    5.879480
   Sr   Nb   H 
   1   1  14
Direct configuration=     2
   0.92705011  0.06826177  0.19497628
   0.18496276  0.24122004  0.52802963
   0.67756732  0.84700023  0.91527224
   0.67868879  0.75710469  0.04394642
   0.24537906  0.23767772  0.80056989
   0.21972022  0.83654240  0.78006187
   0.50595417  0.37430766  0.96987164
   0.62773143  0.34699860  0.85841967
   0.38518302  0.03493213  0.29432721
   0.98521949  0.61636036  0.64565016
   0.83968156  0.64132821  0.60429494
   0.24608671  0.78505689  0.66531064
   0.56861078  0.00371269  0.55121325
   0.86570195  0.16006200  0.55429775
   0.38501438  0.49968118  0.31036956
   0.98115124  0.51047544  0.28616385
unknown system                          
           1
     5.396785   -0.066981    0.232380
     2.529600    4.492308    0.393667
     2.192576    1.268000    6.044349
   Sr   Nb   H 
   1   1  14
Direct configuration=     3
   0.92678186  0.06866408  0.19580947
   0.18641931  0.24050845  0.52627714
   0.67839867  0.84505670  0.91650905
   0.67832696  0.75821406  0.04289565
   0.24514199  0.23753772  0.80051619
   0.22280787  0.83333997  0.77304844
   0.50789536  0.37332742  0.96842805
   0.62583321  0.34708936  0.86047647
   0.38239948  0.03393049  0.29665958
   0.98083595  0.61600044  0.64489500
   0.84445575  0.64069646  0.60429227
   0.24395901  0.79042004  0.67033361
   0.56637643  0.00483399  0.55205629
   0.86833606  0.15900766  0.55349315
   0.38419447  0.50119747  0.31101062
   0.98154060  0.51089769  0.28607402
unknown system                          
           1
     5.323469   -0.070757    0.225375
     2.491068    4.431082    0.387911
     2.156777    1.250309    5.976072
   Sr   Nb   H 
   1   1  14
Direct configuration=     4
   0.92689121  0.06850340  0.19547359
   0.18583143  0.24079328  0.52698417
   0.67806583  0.84583679  0.91601111
   0.67847114  0.75776860  0.04331888
   0.24523691  0.23759354  0.80053768
   0.22155475  0.83461953  0.77587626
   0.50711337  0.37372051  0.96901089
   0.62659835  0.34705304  0.85964653
   0.38351948  0.03433113  0.29571803
   0.98259304  0.61614019  0.64519662
   0.84253990  0.64095359  0.60429621
   0.24482518  0.78827433  0.66830851
   0.56727510  0.00438367  0.55171527
   0.86727712  0.15943154  0.55381892
   0.38452563  0.50059001  0.31075186
   0.98138455  0.51072885  0.28611047
unknown system                          
           1
     5.316569   -0.065368    0.227777
     2.492285    4.433529    0.393750
     2.158363    1.259198    5.968961
   Sr   Nb   H 
   1   1  14
Direct configuration=     5
   0.92629015  0.06855479  0.19771939
   0.18723355  0.24300143  0.52407549
   0.67836195  0.84408354  0.91804780
   0.67839433  0.75929867  0.04130511
   0.24367945  0.23708388  0.79768128
   0.22029153  0.83888021  0.78257035
   0.50734746  0.37336416  0.96931765
   0.62668186  0.34687768  0.85983233
   0.38085468  0.03562550  0.29822809
   0.98409843  0.61342193  0.64484549
   0.84331101  0.63947752  0.60351046
   0.24618655  0.78651848  0.66016818
   0.56297290  0.00742328  0.55085038
   0.87237364  0.16007634  0.55293748
   0.38173142  0.49842168  0.31344088
   0.98389411  0.50861290  0.28824465
unknown system                          
           1
     5.319941   -0.068002    0.226603
     2.491690    4.432333    0.390896
     2.157588    1.254854    5.972437
   Sr   Nb   H 
   1   1  14
Direct configuration=     6
   0.92658417  0.06853198  0.19662024
   0.18654702  0.24191989  0.52550027
   0.67821692  0.84494270  0.91705031
   0.67843200  0.75854870  0.04229132
   0.24444258  0.23732876  0.79907860
   0.22090861  0.83680558  0.77929615
   0.50723284  0.37353875  0.96916740
   0.62664097  0.34696362  0.85974133
   0.38215908  0.03499460  0.29699979
   0.98336169  0.61475044  0.64501634
   0.84293372  0.64019821  0.60389444
   0.24552125  0.78736762  0.66415136
   0.56507933  0.00593488  0.55127423
   0.86987795  0.15976293  0.55337016
   0.38309966  0.49948279  0.31212334
   0.98266522  0.50965054  0.28719971
unknown system                          
           1
     5.334258   -0.066879    0.226848
     2.499488    4.443899    0.391121
     2.163858    1.258449    5.975321
   Sr   Nb   H 
   1   1  14
Direct configuration=     7
   0.92593526  0.06865285  0.19919789
   0.18676967  0.24212157  0.52512732
   0.67853373  0.84534765  0.91584784
   0.67830884  0.75777935  0.04363118
   0.24279117  0.23680774  0.79606171
   0.22123122  0.83866546  0.77797438
   0.50754154  0.37303888  0.96954371
   0.62676082  0.34665200  0.86001034
   0.37966752  0.03599490  0.29922525
   0.98462246  0.61191338  0.64469480
   0.84397812  0.63849104  0.60305524
   0.24514016  0.78987853  0.66304188
   0.56156327  0.00879260  0.55013316
   0.87512090  0.16050328  0.55218756
   0.38072477  0.49792970  0.31425808
   0.98501357  0.50815307  0.28878466
unknown system                          
           1
     5.346001   -0.065957    0.227049
     2.505884    4.453387    0.391306
     2.169000    1.261398    5.977687
   Sr   Nb   H 
   1   1  14
Direct configuration=     8
   0.92540287  0.06875041  0.20131136
   0.18695199  0.24228672  0.52482157
   0.67879351  0.84567956  0.91486196
   0.67820750  0.75714921  0.04472966
   0.24144185  0.23638366  0.79358791
   0.22149548  0.84018769  0.77689087
   0.50779401  0.37262963  0.96985222
   0.62685881  0.34639688  0.86023087
   0.37762754  0.03681260  0.30104994
   0.98565481  0.60959226  0.64443090
   0.84483346  0.63709463  0.60236700
   0.24482841  0.79193344  0.66213247
   0.55868656  0.01113205  0.54919767
   0.87941096  0.16110828  0.55121834
   0.37878089  0.49665850  0.31600809
   0.98693435  0.50692648  0.29008418
unknown system                          
           1
     5.365157   -0.064766    0.228029
     2.516013    4.466249    0.393043
     2.177954    1.266728    5.983814
   Sr   Nb   H 
   1   1  14
Direct configuration=     9
   0.92505386  0.06881796  0.20282316
   0.18597553  0.24233079  0.52566194
   0.67901783  0.84447630  0.91617467
   0.67811645  0.75810278  0.04352847
   0.24044837  0.23596869  0.79226490
   0.22187997  0.84123010  0.77531772
   0.50815889  0.37225091  0.96998250
   0.62680019  0.34620550  0.86058340
   0.37639499  0.03700906  0.30201892
   0.98605289  0.60797657  0.64421424
   0.84590230  0.63576842  0.60187377
   0.24446593  0.79400350  0.66195715
   0.55748142  0.01243869  0.54841617
   0.88212673  0.16139146  0.55037975
   0.37763646  0.49620560  0.31692210
   0.98819121  0.50654569  0.29065614
unknown system                          
           1
     5.392898   -0.063040    0.229448
     2.530681    4.484876    0.395557
     2.190921    1.274447    5.992688
   Sr   Nb   H 
   1   1  14
Direct configuration=    10
   0.92454824  0.06891360  0.20501049
   0.18456520  0.24239372  0.52687782
   0.67934084  0.84273687  0.91807407
   0.67798581  0.75948145  0.04179043
   0.23901649  0.23537172  0.79035080
   0.22243603  0.84273733  0.77304150
   0.50868562  0.37170367  0.97017104
   0.62671529  0.34592869  0.86109347
   0.37461480  0.03729200  0.30342086
   0.98662886  0.60564357  0.64390096
   0.84744648  0.63385352  0.60116029
   0.24394146  0.79699314  0.66170326
   0.55574212  0.01432713  0.54728534
   0.88604703  0.16180029  0.54916638
   0.37598400  0.49555085  0.31824459
   0.99000471  0.50599445  0.29148370
unknown system                          
           1
     5.423702   -0.060340    0.233448
     2.547732    4.504622    0.399639
     2.207828    1.282669    6.011207
   Sr   Nb   H 
   1   1  14
Direct configuration=    11
   0.92421909  0.06897677  0.20659704
   0.18398247  0.24264673  0.52708987
   0.67962383  0.84232796  0.91809368
   0.67784182  0.75958846  0.04191774
   0.23799541  0.23485328  0.78993536
   0.22280369  0.84394585  0.77198668
   0.50903403  0.37126532  0.97040065
   0.62670051  0.34568552  0.86149204
   0.37337790  0.03728258  0.30426210
   0.98678489  0.60415213  0.64375299
   0.84873917  0.63224496  0.60068303
   0.24366060  0.79904642  0.66092656
   0.55501631  0.01542017  0.54650826
   0.88797828  0.16179256  0.54827818
   0.37487827  0.49537730  0.31903877
   0.99106671  0.50611598  0.29181206
unknown system                          
           1
     5.516114   -0.052239    0.245450
     2.598886    4.563860    0.411883
     2.258547    1.307334    6.066765
   Sr   Nb   H 
   1   1  14
Direct configuration=    12
   0.92322978  0.06916123  0.21134294
   0.18224179  0.24340281  0.52772462
   0.68046947  0.84110600  0.91815241
   0.67741127  0.75990796  0.04229863
   0.23495156  0.23330757  0.78869458
   0.22390189  0.84755841  0.76882981
   0.51007408  0.36995466  0.97108748
   0.62665537  0.34495796  0.86268449
   0.36968309  0.03725396  0.30677993
   0.98725553  0.59969722  0.64331179
   0.85260369  0.62743932  0.59925554
   0.24281977  0.80518262  0.65860152
   0.55285044  0.01868872  0.54418367
   0.89374550  0.16176896  0.54561902
   0.37157556  0.49485832  0.32141584
   0.99423422  0.50647627  0.29279273
unknown system                          
           1
     5.525624   -0.048158    0.249927
     2.606992    4.569579    0.415020
     2.267927    1.310922    6.076609
   Sr   Nb   H 
   1   1  14
Direct configuration=    13
   0.92328861  0.06921794  0.21160983
   0.18477819  0.24296084  0.52548583
   0.68061411  0.84140345  0.91738500
   0.67730945  0.75946128  0.04314028
   0.23455648  0.23312649  0.79005141
   0.22394796  0.84783618  0.76956089
   0.51045325  0.36970524  0.97097658
   0.62641308  0.34490484  0.86314679
   0.36909560  0.03738912  0.30704459
   0.98684891  0.59976517  0.64344246
   0.85299189  0.62681908  0.59930768
   0.24290409  0.80544668  0.65758799
   0.55240666  0.01909626  0.54414826
   0.89281840  0.16140484  0.54554516
   0.37118381  0.49496224  0.32163348
   0.99409251  0.50722235  0.29270877
unknown system                          
           1
     5.528049   -0.047116    0.251069
     2.609060    4.571038    0.415820
     2.270320    1.311838    6.079120
   Sr   Nb   H 
   1   1  14
Direct configuration=    14
   0.92330354  0.06923236  0.21167780
   0.18542513  0.24284794  0.52491520
   0.68065108  0.84147929  0.91718947
   0.67728340  0.75934740  0.04335472
   0.23445553  0.23308030  0.79039710
   0.22395948  0.84790688  0.76974708
   0.51054995  0.36964162  0.97094830
   0.62635124  0.34489131  0.86326460
   0.36894581  0.03742365  0.30711209
   0.98674524  0.59978255  0.64347580
   0.85309093  0.62666095  0.59932097
   0.24292576  0.80551404  0.65732978
   0.55229350  0.01920019  0.54413927
   0.89258223  0.16131223  0.54552653
   0.37108392  0.49498877  0.32168897
   0.99405627  0.50741250  0.29268733
unknown system                          
           1
     5.534756   -0.043881    0.253273
     2.614990    4.574341    0.418120
     2.276110    1.315116    6.083177
   Sr   Nb   H 
   1   1  14
Direct configuration=    15
   0.92346260  0.06927613  0.21186241
   0.18589818  0.24272320  0.52435199
   0.68077476  0.84073834  0.91795932
   0.67721731  0.75991030  0.04267450
   0.23398384  0.23279671  0.79144616
   0.22419821  0.84799951  0.76939566
   0.51058443  0.36944301  0.97121494
   0.62651430  0.34473442  0.86339161
   0.36875963  0.03718857  0.30696477
   0.98621700  0.59974289  0.64355845
   0.85368690  0.62587340  0.59938108
   0.24291252  0.80617634  0.65721077
   0.55249447  0.01929167  0.54395926
   0.89199825  0.16108302  0.54543212
   0.37103599  0.49539999  0.32155962
   0.99396462  0.50834452  0.29241234
unknown system                          
           1
     5.540028   -0.041337    0.255005
     2.619652    4.576938    0.419927
     2.280661    1.317693    6.086366
   Sr   Nb   H 
   1   1  14
Direct configuration=    16
   0.92358743  0.06931036  0.21200740
   0.18627005  0.24262522  0.52390944
   0.68087196  0.84015586  0.91856427
   0.67716539  0.76035282  0.04213999
   0.23361304  0.23257370  0.79227049
   0.22438583  0.84807231  0.76911951
   0.51061149  0.36928685  0.97142446
   0.62664241  0.34461103  0.86349140
   0.36861357  0.03700404  0.30684914
   0.98580207  0.59971196  0.64362351
   0.85415539  0.62525438  0.59942835
   0.24290184  0.80669669  0.65711711
   0.55265236  0.01936351  0.54381777
   0.89153971  0.16090329  0.54535813
   0.37099819  0.49572311  0.32145792
   0.99389228  0.50907687  0.29219610
