       N       E                     dE             d eps       ncg     rms          rms(c)
DAV:   1     0.230631153411E+03    0.23063E+03   -0.19453E+04  7296   0.817E+02
DAV:   2    -0.384308910693E+02   -0.26906E+03   -0.25546E+03  7840   0.236E+02
DAV:   3    -0.555236662656E+02   -0.17093E+02   -0.16906E+02 12688   0.545E+01
DAV:   4    -0.559491470326E+02   -0.42548E+00   -0.42427E+00  9088   0.620E+00
DAV:   5    -0.559618001476E+02   -0.12653E-01   -0.12649E-01 11344   0.935E-01    0.388E+01
RMM:   6    -0.565172031742E+02   -0.55540E+00   -0.50551E+00  7703   0.693E+00    0.201E+01
RMM:   7    -0.563058430671E+02    0.21136E+00   -0.17558E+00  7907   0.612E+00    0.106E+01
RMM:   8    -0.563685107887E+02   -0.62668E-01   -0.27784E-01  7778   0.300E+00    0.460E+00
RMM:   9    -0.563957270974E+02   -0.27216E-01   -0.73464E-02  7788   0.126E+00    0.231E+00
RMM:  10    -0.564075702108E+02   -0.11843E-01   -0.24723E-02  7565   0.883E-01    0.101E+00
RMM:  11    -0.564090068531E+02   -0.14366E-02   -0.44494E-03  6897   0.380E-01    0.356E-01
RMM:  12    -0.564095919372E+02   -0.58508E-03   -0.11500E-03  6296   0.205E-01
   1 F= -.56409592E+02 E0= -.56409592E+02  d E =-.564096E+02  mag=     0.0150
       N       E                     dE             d eps       ncg     rms          rms(c)
DAV:   1    -0.566487113350E+02   -0.23970E+00   -0.34135E+00 10368   0.869E+00    0.446E+00
RMM:   2    -0.565062029497E+02    0.14251E+00   -0.36584E-01  7960   0.254E+00    0.108E+00
RMM:   3    -0.564767598426E+02    0.29443E-01   -0.42059E-02  7885   0.140E+00    0.994E-01
RMM:   4    -0.564712594878E+02    0.55004E-02   -0.13921E-02  7555   0.572E-01    0.998E-01
RMM:   5    -0.564713748860E+02   -0.11540E-03   -0.48215E-03  7413   0.490E-01
   2 F= -.56471375E+02 E0= -.56471375E+02  d E =-.617829E-01  mag=     0.0003
       N       E                     dE             d eps       ncg     rms          rms(c)
DAV:   1    -0.579973470249E+02   -0.15261E+01   -0.29695E+01  8608   0.255E+01    0.136E+01
RMM:   2    -0.567565087918E+02    0.12408E+01   -0.33163E+00  7849   0.756E+00    0.344E+00
RMM:   3    -0.564414174796E+02    0.31509E+00   -0.38459E-01  7588   0.447E+00    0.324E+00
RMM:   4    -0.563949833353E+02    0.46434E-01   -0.11469E-01  7950   0.171E+00    0.368E+00
RMM:   5    -0.563984384023E+02   -0.34551E-02   -0.44443E-02  8736   0.142E+00    0.856E-01
RMM:   6    -0.563859590124E+02    0.12479E-01   -0.83331E-02  8926   0.933E-01    0.860E-01
RMM:   7    -0.563881907768E+02   -0.22318E-02   -0.20911E-02  8605   0.768E-01    0.563E-01
RMM:   8    -0.563890119260E+02   -0.82115E-03   -0.68261E-03  7784   0.228E-01    0.516E-01
RMM:   9    -0.563896365169E+02   -0.62459E-03   -0.17451E-03  6721   0.166E-01
   3 F= -.56389637E+02 E0= -.56389637E+02  d E =0.199554E-01  mag=    -0.0000
       N       E                     dE             d eps       ncg     rms          rms(c)
DAV:   1    -0.569939685596E+02   -0.60496E+00   -0.10138E+01  9776   0.144E+01    0.722E+00
RMM:   2    -0.565768094027E+02    0.41716E+00   -0.10280E+00  8017   0.429E+00    0.177E+00
RMM:   3    -0.564966851328E+02    0.80124E-01   -0.11865E-01  8022   0.220E+00    0.123E+00
RMM:   4    -0.564787547877E+02    0.17930E-01   -0.53595E-02  8055   0.106E+00    0.120E+00
RMM:   5    -0.564821436734E+02   -0.33889E-02   -0.14649E-02  8273   0.835E-01    0.375E-01
RMM:   6    -0.564817096769E+02    0.43400E-03   -0.17175E-02  8745   0.417E-01    0.178E-01
RMM:   7    -0.564820720125E+02   -0.36234E-03   -0.31331E-03  7369   0.265E-01
   4 F= -.56482072E+02 E0= -.56482072E+02  d E =-.724801E-01  mag=    -0.0000
       N       E                     dE             d eps       ncg     rms          rms(c)
DAV:   1    -0.564627955719E+02    0.18914E-01   -0.26577E+00  7808   0.609E+00    0.176E+00
RMM:   2    -0.564543375191E+02    0.84581E-02   -0.11473E-01  7613   0.131E+00    0.930E-01
RMM:   3    -0.564487490445E+02    0.55885E-02   -0.14919E-02  7743   0.101E+00    0.351E-01
RMM:   4    -0.564489323712E+02   -0.18333E-03   -0.32268E-03  6791   0.221E-01
   5 F= -.56448932E+02 E0= -.56448932E+02  d E =0.331396E-01  mag=    -0.0000
       N       E                     dE             d eps       ncg     rms          rms(c)
DAV:   1    -0.565086146351E+02   -0.59866E-01   -0.97004E-01  7856   0.367E+00    0.891E-01
RMM:   2    -0.565068140420E+02    0.18006E-02   -0.41415E-02  7676   0.768E-01    0.462E-01
RMM:   3    -0.565047083164E+02    0.21057E-02   -0.33481E-03  6850   0.502E-01    0.189E-01
RMM:   4    -0.565046443185E+02    0.63998E-04   -0.69002E-04  5653   0.138E-01
   6 F= -.56504644E+02 E0= -.56504644E+02  d E =-.225723E-01  mag=     0.0000
