   12   12   99    2
  0.7700620E+01  0.3357649E-09  0.3620561E-09  0.8015566E-09  0.5000000E-15
  1.000000000000000E-004
  CAR 
 unknown system                          
     41     74     32
 
  0.3742002E-15  0.3742002E-15  0.3742002E-15  0.6802721E-02
    1      -32.101588    -32.101590   1.000000   1.000000
    2      -27.673777    -27.673773   1.000000   1.000000
    3      -27.565518    -27.565513   1.000000   1.000000
    4      -27.534648    -27.534644   1.000000   1.000000
    5      -27.437779    -27.437774   1.000000   1.000000
    6      -27.369536    -27.369532   1.000000   1.000000
    7      -27.272001    -27.271997   1.000000   1.000000
    8      -14.155928    -14.155928   1.000000   1.000000
    9      -13.977731    -13.977730   1.000000   1.000000
   10      -13.825969    -13.825968   1.000000   1.000000
   11       -6.300938     -6.300939   1.000000   1.000000
   12       -4.071741     -4.071742   1.000000   1.000000
   13       -2.951668     -2.951668   1.000000   1.000000
   14       -1.780550     -1.780549   1.000000   1.000000
   15       -0.938256     -0.938255   1.000000   1.000000
   16       -0.464296     -0.464295   1.000000   1.000000
   17        1.006580      1.006578   1.000000   1.000000
   18        1.489233      1.489233   1.000000   1.000000
   19        3.338939      3.338943   1.000000   1.000000
   20        3.557951      3.557954   1.000000   1.000000
   21        4.518883      4.518888  -0.037228  -0.037267
   22        4.641259      4.641260  -0.003086  -0.003086
   23        4.990224      4.990225   0.000000   0.000000
   24        5.177409      5.177414   0.000000   0.000000
   25        5.552961      5.552966   0.000000   0.000000
   26        5.598957      5.598967   0.000000   0.000000
   27        6.606036      6.606042   0.000000   0.000000
   28        7.336839      7.336839   0.000000   0.000000
   29        8.370583      8.370585   0.000000   0.000000
   30        9.136424      9.136567   0.000000   0.000000
   31        9.944517      9.944650   0.000000   0.000000
   32       10.167967     10.168281   0.000000   0.000000
 
  0.1428571E+00  0.3745105E-15  0.3955170E-15  0.1360544E-01
    1      -32.086106    -32.086108   1.000000   1.000000
    2      -27.668518    -27.668514   1.000000   1.000000
    3      -27.615590    -27.615587   1.000000   1.000000
    4      -27.530367    -27.530362   1.000000   1.000000
    5      -27.438595    -27.438590   1.000000   1.000000
    6      -27.366158    -27.366155   1.000000   1.000000
    7      -27.309042    -27.309039   1.000000   1.000000
    8      -14.126717    -14.126717   1.000000   1.000000
    9      -14.011881    -14.011880   1.000000   1.000000
   10      -13.959346    -13.959345   1.000000   1.000000
   11       -5.951012     -5.951014   1.000000   1.000000
   12       -3.814204     -3.814204   1.000000   1.000000
   13       -2.753217     -2.753218   1.000000   1.000000
   14       -1.768114     -1.768114   1.000000   1.000000
   15       -0.871920     -0.871919   1.000000   1.000000
   16       -0.448976     -0.448975   1.000000   1.000000
   17        0.745704      0.745703   1.000000   1.000000
   18        1.119816      1.119815   1.000000   1.000000
   19        2.081147      2.081149   1.000000   1.000000
   20        3.611051      3.611052   1.000000   1.000000
   21        4.339861      4.339864   0.997693   0.997688
   22        4.823196      4.823199  -0.006253  -0.006253
   23        5.028317      5.028320   0.000000   0.000000
   24        5.374952      5.374955   0.000000   0.000000
   25        5.968854      5.968855   0.000000   0.000000
   26        6.600244      6.600246   0.000000   0.000000
   27        6.848487      6.848488   0.000000   0.000000
   28        7.406070      7.406071   0.000000   0.000000
   29        8.674740      8.674743   0.000000   0.000000
   30        8.967935      8.967936   0.000000   0.000000
   31        9.447123      9.447121   0.000000   0.000000
   32       10.058733     10.056578   0.000000   0.000000
 
  0.2857143E+00  0.3734534E-15  0.3885781E-15  0.1360544E-01
    1      -32.051018    -32.051020   1.000000   1.000000
    2      -27.743963    -27.743959   1.000000   1.000000
    3      -27.639298    -27.639294   1.000000   1.000000
    4      -27.517239    -27.517234   1.000000   1.000000
    5      -27.448793    -27.448788   1.000000   1.000000
    6      -27.394819    -27.394815   1.000000   1.000000
    7      -27.349367    -27.349363   1.000000   1.000000
    8      -14.401758    -14.401758   1.000000   1.000000
    9      -14.059754    -14.059753   1.000000   1.000000
   10      -13.918010    -13.918009   1.000000   1.000000
   11       -5.036170     -5.036172   1.000000   1.000000
   12       -3.206402     -3.206403   1.000000   1.000000
   13       -2.444872     -2.444873   1.000000   1.000000
   14       -1.637836     -1.637835   1.000000   1.000000
   15       -0.901033     -0.901033   1.000000   1.000000
   16       -0.542822     -0.542821   1.000000   1.000000
   17        0.201523      0.201524   1.000000   1.000000
   18        0.461662      0.461662   1.000000   1.000000
   19        1.122612      1.122613   1.000000   1.000000
   20        3.217722      3.217721   1.000000   1.000000
   21        4.024731      4.024736   1.087196   1.087199
   22        4.986681      4.986685   0.000000   0.000000
   23        5.189771      5.189774   0.000000   0.000000
   24        5.452400      5.452402   0.000000   0.000000
   25        6.570722      6.570723   0.000000   0.000000
   26        6.750620      6.750622   0.000000   0.000000
   27        7.695256      7.695257   0.000000   0.000000
   28        8.243159      8.243159   0.000000   0.000000
   29        8.457628      8.457630   0.000000   0.000000
   30        8.916700      8.916701   0.000000   0.000000
   31        9.234358      9.234371   0.000000   0.000000
   32        9.286087      9.286083   0.000000   0.000000
 
  0.4285714E+00  0.3745376E-15  0.1332268E-14  0.1360544E-01
    1      -32.022578    -32.022580   1.000000   1.000000
    2      -27.829264    -27.829260   1.000000   1.000000
    3      -27.648114    -27.648111   1.000000   1.000000
    4      -27.504572    -27.504567   1.000000   1.000000
    5      -27.458624    -27.458619   1.000000   1.000000
    6      -27.424973    -27.424969   1.000000   1.000000
    7      -27.357210    -27.357205   1.000000   1.000000
    8      -14.691847    -14.691847   1.000000   1.000000
    9      -14.004764    -14.004764   1.000000   1.000000
   10      -13.884196    -13.884195   1.000000   1.000000
   11       -3.984101     -3.984103   1.000000   1.000000
   12       -2.814920     -2.814920   1.000000   1.000000
   13       -2.279394     -2.279395   1.000000   1.000000
   14       -1.493070     -1.493070   1.000000   1.000000
   15       -1.265551     -1.265551   1.000000   1.000000
   16       -0.533845     -0.533845   1.000000   1.000000
   17       -0.445942     -0.445941   1.000000   1.000000
   18        0.076339      0.076340   1.000000   1.000000
   19        0.885135      0.885137   1.000000   1.000000
   20        2.887488      2.887485   1.000000   1.000000
   21        4.327199      4.327203   0.955409   0.955400
   22        4.802299      4.802303   0.000000   0.000000
   23        5.107361      5.107362   0.000000   0.000000
   24        5.905938      5.905941   0.000000   0.000000
   25        6.472382      6.472385   0.000000   0.000000
   26        6.577721      6.577723   0.000000   0.000000
   27        7.053342      7.053344   0.000000   0.000000
   28        8.398831      8.398831   0.000000   0.000000
   29        8.666259      8.666261   0.000000   0.000000
   30        8.946088      8.946089   0.000000   0.000000
   31        9.242818      9.242819   0.000000   0.000000
   32        9.732237      9.732251   0.000000   0.000000
 
  0.3742666E-15  0.1428571E+00  0.3747003E-15  0.1360544E-01
    1      -32.095235    -32.095238   1.000000   1.000000
    2      -27.682705    -27.682701   1.000000   1.000000
    3      -27.568287    -27.568282   1.000000   1.000000
    4      -27.547582    -27.547577   1.000000   1.000000
    5      -27.448352    -27.448347   1.000000   1.000000
    6      -27.365258    -27.365253   1.000000   1.000000
    7      -27.272280    -27.272277   1.000000   1.000000
    8      -14.139945    -14.139945   1.000000   1.000000
    9      -14.079104    -14.079102   1.000000   1.000000
   10      -13.818786    -13.818786   1.000000   1.000000
   11       -6.044113     -6.044115   1.000000   1.000000
   12       -3.969225     -3.969225   1.000000   1.000000
   13       -2.775754     -2.775750   1.000000   1.000000
   14       -1.607670     -1.607669   1.000000   1.000000
   15       -1.210147     -1.210146   1.000000   1.000000
   16       -0.516607     -0.516606   1.000000   1.000000
   17        0.731801      0.731798   1.000000   1.000000
   18        1.380701      1.380701   1.000000   1.000000
   19        3.410417      3.410419   1.000000   1.000000
   20        3.549648      3.549651   1.000000   1.000000
   21        4.253635      4.253639   1.057439   1.057441
   22        4.631612      4.631613  -0.006960  -0.006960
   23        4.882166      4.882165   0.000000   0.000000
   24        5.304970      5.304973   0.000000   0.000000
   25        5.330483      5.330487   0.000000   0.000000
   26        5.783738      5.783741   0.000000   0.000000
   27        6.758180      6.758181   0.000000   0.000000
   28        7.737487      7.737488   0.000000   0.000000
   29        8.736766      8.736769   0.000000   0.000000
   30        9.091607      9.091605   0.000000   0.000000
   31        9.623428      9.623384   0.000000   0.000000
   32        9.816290      9.816603   0.000000   0.000000
 
  0.1428571E+00  0.1428571E+00  0.3885781E-15  0.1360544E-01
    1      -32.079832    -32.079834   1.000000   1.000000
    2      -27.675672    -27.675668   1.000000   1.000000
    3      -27.614015    -27.614011   1.000000   1.000000
    4      -27.546933    -27.546928   1.000000   1.000000
    5      -27.449706    -27.449701   1.000000   1.000000
    6      -27.364219    -27.364215   1.000000   1.000000
    7      -27.308466    -27.308463   1.000000   1.000000
    8      -14.111624    -14.111624   1.000000   1.000000
    9      -14.061242    -14.061241   1.000000   1.000000
   10      -13.998076    -13.998075   1.000000   1.000000
   11       -5.683975     -5.683977   1.000000   1.000000
   12       -3.757188     -3.757189   1.000000   1.000000
   13       -2.597157     -2.597158   1.000000   1.000000
   14       -1.538265     -1.538264   1.000000   1.000000
   15       -1.172856     -1.172855   1.000000   1.000000
   16       -0.504783     -0.504783   1.000000   1.000000
   17        0.531647      0.531645   1.000000   1.000000
   18        1.011476      1.011476   1.000000   1.000000
   19        2.104589      2.104591   1.000000   1.000000
   20        3.317996      3.317997   1.000000   1.000000
   21        4.367805      4.367808   0.806876   0.806856
   22        4.697464      4.697467   0.000000   0.000000
   23        5.363750      5.363752   0.000000   0.000000
   24        5.594354      5.594356   0.000000   0.000000
   25        5.917034      5.917037   0.000000   0.000000
   26        6.156478      6.156480   0.000000   0.000000
   27        7.136386      7.136388   0.000000   0.000000
   28        7.656018      7.656019   0.000000   0.000000
   29        8.356578      8.356575   0.000000   0.000000
   30        9.086673      9.086673   0.000000   0.000000
   31        9.304483      9.304480   0.000000   0.000000
   32       10.074534     10.074765   0.000000   0.000000
 
  0.2857143E+00  0.1428571E+00  0.3608225E-15  0.1360544E-01
    1      -32.044970    -32.044972   1.000000   1.000000
    2      -27.741716    -27.741712   1.000000   1.000000
    3      -27.642410    -27.642406   1.000000   1.000000
    4      -27.531985    -27.531980   1.000000   1.000000
    5      -27.460163    -27.460158   1.000000   1.000000
    6      -27.399055    -27.399052   1.000000   1.000000
    7      -27.347664    -27.347659   1.000000   1.000000
    8      -14.386682    -14.386681   1.000000   1.000000
    9      -14.046902    -14.046903   1.000000   1.000000
   10      -14.006844    -14.006842   1.000000   1.000000
   11       -4.788827     -4.788829   1.000000   1.000000
   12       -3.171227     -3.171227   1.000000   1.000000
   13       -2.321122     -2.321122   1.000000   1.000000
   14       -1.462304     -1.462303   1.000000   1.000000
   15       -0.977822     -0.977822   1.000000   1.000000
   16       -0.809777     -0.809777   1.000000   1.000000
   17        0.081004      0.081004   1.000000   1.000000
   18        0.412978      0.412978   1.000000   1.000000
   19        1.072909      1.072911   1.000000   1.000000
   20        2.744441      2.744440   1.000000   1.000000
   21        4.384386      4.384389   0.596062   0.596048
   22        4.863222      4.863226   0.000000   0.000000
   23        5.414568      5.414571   0.000000   0.000000
   24        5.862109      5.862111   0.000000   0.000000
   25        6.524008      6.524010   0.000000   0.000000
   26        6.933330      6.933332   0.000000   0.000000
   27        7.294843      7.294847   0.000000   0.000000
   28        8.039680      8.039681   0.000000   0.000000
   29        8.423174      8.423179   0.000000   0.000000
   30        8.930972      8.930973   0.000000   0.000000
   31        9.098272      9.098267   0.000000   0.000000
   32        9.839380      9.840883   0.000000   0.000000
 
  0.4285714E+00  0.1428571E+00  0.4718448E-15  0.1360544E-01
    1      -32.016729    -32.016732   1.000000   1.000000
    2      -27.826426    -27.826422   1.000000   1.000000
    3      -27.646231    -27.646228   1.000000   1.000000
    4      -27.520140    -27.520135   1.000000   1.000000
    5      -27.471339    -27.471333   1.000000   1.000000
    6      -27.426904    -27.426901   1.000000   1.000000
    7      -27.360182    -27.360177   1.000000   1.000000
    8      -14.672313    -14.672312   1.000000   1.000000
    9      -13.994894    -13.994895   1.000000   1.000000
   10      -13.965308    -13.965306   1.000000   1.000000
   11       -3.791798     -3.791800   1.000000   1.000000
   12       -2.660109     -2.660109   1.000000   1.000000
   13       -2.283364     -2.283365   1.000000   1.000000
   14       -1.483034     -1.483034   1.000000   1.000000
   15       -1.215401     -1.215401   1.000000   1.000000
   16       -0.765888     -0.765888   1.000000   1.000000
   17       -0.518885     -0.518884   1.000000   1.000000
   18       -0.033236     -0.033235   1.000000   1.000000
   19        0.900411      0.900413   1.000000   1.000000
   20        2.478846      2.478843   1.000000   1.000000
   21        4.507892      4.507896   0.186862   0.186846
   22        4.956444      4.956447   0.000000   0.000000
   23        5.636071      5.636073   0.000000   0.000000
   24        5.891211      5.891214   0.000000   0.000000
   25        6.470801      6.470804   0.000000   0.000000
   26        6.837458      6.837460   0.000000   0.000000
   27        7.190934      7.190935   0.000000   0.000000
   28        8.228390      8.228392   0.000000   0.000000
   29        8.495276      8.495277   0.000000   0.000000
   30        8.676201      8.676203   0.000000   0.000000
   31        9.248994      9.248996   0.000000   0.000000
   32        9.921184      9.921140   0.000000   0.000000
 
 -0.4285714E+00  0.1428571E+00  0.3747003E-15  0.1360544E-01
    1      -32.016756    -32.016758   1.000000   1.000000
    2      -27.826392    -27.826388   1.000000   1.000000
    3      -27.645978    -27.645974   1.000000   1.000000
    4      -27.521668    -27.521663   1.000000   1.000000
    5      -27.470271    -27.470266   1.000000   1.000000
    6      -27.425460    -27.425456   1.000000   1.000000
    7      -27.361338    -27.361333   1.000000   1.000000
    8      -14.672135    -14.672135   1.000000   1.000000
    9      -13.994824    -13.994824   1.000000   1.000000
   10      -13.964651    -13.964649   1.000000   1.000000
   11       -3.824793     -3.824796   1.000000   1.000000
   12       -2.662693     -2.662693   1.000000   1.000000
   13       -2.149762     -2.149763   1.000000   1.000000
   14       -1.509593     -1.509592   1.000000   1.000000
   15       -1.365058     -1.365058   1.000000   1.000000
   16       -0.610634     -0.610634   1.000000   1.000000
   17       -0.477722     -0.477721   1.000000   1.000000
   18       -0.208499     -0.208499   1.000000   1.000000
   19        0.936647      0.936649   1.000000   1.000000
   20        2.498758      2.498756   1.000000   1.000000
   21        4.472194      4.472197   0.256752   0.256730
   22        4.900842      4.900846   0.000000   0.000000
   23        5.566498      5.566499   0.000000   0.000000
   24        5.950781      5.950784   0.000000   0.000000
   25        6.425209      6.425213   0.000000   0.000000
   26        6.679913      6.679915   0.000000   0.000000
   27        7.789486      7.789487   0.000000   0.000000
   28        8.254506      8.254508   0.000000   0.000000
   29        8.455968      8.455971   0.000000   0.000000
   30        8.694703      8.694705   0.000000   0.000000
   31        9.162653      9.162658   0.000000   0.000000
   32        9.905975      9.905416   0.000000   0.000000
 
 -0.2857143E+00  0.1428571E+00  0.3434752E-15  0.1360544E-01
    1      -32.045021    -32.045024   1.000000   1.000000
    2      -27.741709    -27.741704   1.000000   1.000000
    3      -27.641759    -27.641755   1.000000   1.000000
    4      -27.533648    -27.533643   1.000000   1.000000
    5      -27.459002    -27.458996   1.000000   1.000000
    6      -27.396489    -27.396486   1.000000   1.000000
    7      -27.350135    -27.350131   1.000000   1.000000
    8      -14.386346    -14.386345   1.000000   1.000000
    9      -14.046753    -14.046753   1.000000   1.000000
   10      -14.005122    -14.005120   1.000000   1.000000
   11       -4.852593     -4.852595   1.000000   1.000000
   12       -2.973465     -2.973465   1.000000   1.000000
   13       -2.371251     -2.371252   1.000000   1.000000
   14       -1.651495     -1.651494   1.000000   1.000000
   15       -0.893225     -0.893225   1.000000   1.000000
   16       -0.610970     -0.610969   1.000000   1.000000
   17       -0.054010     -0.054009   1.000000   1.000000
   18        0.173807      0.173808   1.000000   1.000000
   19        1.214756      1.214758   1.000000   1.000000
   20        2.753522      2.753520   1.000000   1.000000
   21        4.278877      4.278880   0.953204   0.953201
   22        4.878209      4.878213   0.000000   0.000000
   23        5.518749      5.518753   0.000000   0.000000
   24        5.811239      5.811240   0.000000   0.000000
   25        6.391603      6.391605   0.000000   0.000000
   26        6.946471      6.946473   0.000000   0.000000
   27        7.642804      7.642805   0.000000   0.000000
   28        8.316027      8.316028   0.000000   0.000000
   29        8.569834      8.569837   0.000000   0.000000
   30        8.772091      8.772094   0.000000   0.000000
   31        9.052392      9.052397   0.000000   0.000000
   32        9.591465      9.591512   0.000000   0.000000
 
 -0.1428571E+00  0.1428571E+00  0.3573530E-15  0.1360544E-01
    1      -32.079875    -32.079877   1.000000   1.000000
    2      -27.675393    -27.675388   1.000000   1.000000
    3      -27.614618    -27.614614   1.000000   1.000000
    4      -27.546434    -27.546429   1.000000   1.000000
    5      -27.448692    -27.448687   1.000000   1.000000
    6      -27.364966    -27.364962   1.000000   1.000000
    7      -27.308706    -27.308703   1.000000   1.000000
    8      -14.111384    -14.111384   1.000000   1.000000
    9      -14.061753    -14.061751   1.000000   1.000000
   10      -13.995817    -13.995816   1.000000   1.000000
   11       -5.724965     -5.724966   1.000000   1.000000
   12       -3.653238     -3.653239   1.000000   1.000000
   13       -2.607227     -2.607228   1.000000   1.000000
   14       -1.649344     -1.649343   1.000000   1.000000
   15       -1.094851     -1.094850   1.000000   1.000000
   16       -0.496224     -0.496223   1.000000   1.000000
   17        0.477470      0.477468   1.000000   1.000000
   18        0.926193      0.926193   1.000000   1.000000
   19        2.168219      2.168221   1.000000   1.000000
   20        3.280916      3.280917   1.000000   1.000000
   21        4.391333      4.391336   0.978223   0.978217
   22        4.684562      4.684565  -0.015443  -0.015443
   23        5.281154      5.281157   0.000000   0.000000
   24        5.692714      5.692716   0.000000   0.000000
   25        6.083117      6.083120   0.000000   0.000000
   26        6.217703      6.217705   0.000000   0.000000
   27        6.977666      6.977666   0.000000   0.000000
   28        7.719507      7.719509   0.000000   0.000000
   29        8.315501      8.315502   0.000000   0.000000
   30        8.896240      8.896243   0.000000   0.000000
   31        9.453765      9.453762   0.000000   0.000000
   32       10.005686     10.005700   0.000000   0.000000
 
  0.3738329E-15  0.2857143E+00  0.3885781E-15  0.1360544E-01
    1      -32.080910    -32.080912   1.000000   1.000000
    2      -27.708546    -27.708541   1.000000   1.000000
    3      -27.597579    -27.597574   1.000000   1.000000
    4      -27.551679    -27.551675   1.000000   1.000000
    5      -27.461322    -27.461316   1.000000   1.000000
    6      -27.361885    -27.361880   1.000000   1.000000
    7      -27.272990    -27.272987   1.000000   1.000000
    8      -14.297192    -14.297191   1.000000   1.000000
    9      -14.102588    -14.102587   1.000000   1.000000
   10      -13.802571    -13.802570   1.000000   1.000000
   11       -5.376182     -5.376184   1.000000   1.000000
   12       -3.683227     -3.683228   1.000000   1.000000
   13       -2.388300     -2.388300   1.000000   1.000000
   14       -1.765644     -1.765644   1.000000   1.000000
   15       -1.325135     -1.325135   1.000000   1.000000
   16       -0.742656     -0.742654   1.000000   1.000000
   17        0.155710      0.155708   1.000000   1.000000
   18        1.168935      1.168936   1.000000   1.000000
   19        3.399530      3.399534   1.000000   1.000000
   20        3.776237      3.776239   1.000000   1.000000
   21        3.847333      3.847336   1.050142   1.050144
   22        4.603298      4.603298   0.000147   0.000147
   23        4.789484      4.789485   0.000000   0.000000
   24        5.080025      5.080029   0.000000   0.000000
   25        5.430070      5.430074   0.000000   0.000000
   26        6.176692      6.176694   0.000000   0.000000
   27        7.209954      7.209956   0.000000   0.000000
   28        7.916803      7.916808   0.000000   0.000000
   29        8.694724      8.694718   0.000000   0.000000
   30        8.786459      8.786461   0.000000   0.000000
   31        9.245770      9.245759   0.000000   0.000000
   32        9.407044      9.406978   0.000000   0.000000
 
  0.1428571E+00  0.2857143E+00  0.3608225E-15  0.1360544E-01
    1      -32.065728    -32.065730   1.000000   1.000000
    2      -27.698767    -27.698763   1.000000   1.000000
    3      -27.616238    -27.616234   1.000000   1.000000
    4      -27.575458    -27.575453   1.000000   1.000000
    5      -27.462733    -27.462728   1.000000   1.000000
    6      -27.365572    -27.365568   1.000000   1.000000
    7      -27.308543    -27.308540   1.000000   1.000000
    8      -14.269966    -14.269965   1.000000   1.000000
    9      -14.075713    -14.075712   1.000000   1.000000
   10      -13.977349    -13.977348   1.000000   1.000000
   11       -5.031745     -5.031747   1.000000   1.000000
   12       -3.454793     -3.454793   1.000000   1.000000
   13       -2.249204     -2.249204   1.000000   1.000000
   14       -1.782308     -1.782307   1.000000   1.000000
   15       -1.237578     -1.237577   1.000000   1.000000
   16       -0.718647     -0.718647   1.000000   1.000000
   17       -0.038263     -0.038265   1.000000   1.000000
   18        0.864372      0.864373   1.000000   1.000000
   19        2.070709      2.070711   1.000000   1.000000
   20        3.063222      3.063223   1.000000   1.000000
   21        4.352857      4.352860   0.591310   0.591302
   22        4.926357      4.926362  -0.001463  -0.001463
   23        5.258723      5.258724   0.000000   0.000000
   24        5.711086      5.711089   0.000000   0.000000
   25        5.910272      5.910274   0.000000   0.000000
   26        6.316182      6.316184   0.000000   0.000000
   27        7.413496      7.413496   0.000000   0.000000
   28        7.780213      7.780215   0.000000   0.000000
   29        8.051031      8.051030   0.000000   0.000000
   30        8.917605      8.917598   0.000000   0.000000
   31        9.483130      9.483141   0.000000   0.000000
   32        9.986828      9.985066   0.000000   0.000000
 
  0.2857143E+00  0.2857143E+00  0.3885781E-15  0.1360544E-01
    1      -32.031385    -32.031387   1.000000   1.000000
    2      -27.740353    -27.740348   1.000000   1.000000
    3      -27.657234    -27.657230   1.000000   1.000000
    4      -27.557810    -27.557805   1.000000   1.000000
    5      -27.475665    -27.475660   1.000000   1.000000
    6      -27.405923    -27.405920   1.000000   1.000000
    7      -27.351526    -27.351522   1.000000   1.000000
    8      -14.352220    -14.352219   1.000000   1.000000
    9      -14.201089    -14.201088   1.000000   1.000000
   10      -14.014083    -14.014082   1.000000   1.000000
   11       -4.198266     -4.198267   1.000000   1.000000
   12       -2.867731     -2.867731   1.000000   1.000000
   13       -2.160712     -2.160712   1.000000   1.000000
   14       -1.611573     -1.611573   1.000000   1.000000
   15       -1.150516     -1.150515   1.000000   1.000000
   16       -0.895773     -0.895773   1.000000   1.000000
   17       -0.366532     -0.366532   1.000000   1.000000
   18        0.236728      0.236729   1.000000   1.000000
   19        1.075546      1.075548   1.000000   1.000000
   20        2.318290      2.318289   1.000000   1.000000
   21        4.531906      4.531910   0.054792   0.054778
   22        4.878654      4.878658   0.000000   0.000000
   23        5.929630      5.929632   0.000000   0.000000
   24        6.116843      6.116845   0.000000   0.000000
   25        6.817488      6.817489   0.000000   0.000000
   26        7.167765      7.167769   0.000000   0.000000
   27        7.440787      7.440790   0.000000   0.000000
   28        7.805459      7.805462   0.000000   0.000000
   29        8.294390      8.294397   0.000000   0.000000
   30        8.654970      8.654975   0.000000   0.000000
   31        9.126240      9.126242   0.000000   0.000000
   32        9.752075      9.752762   0.000000   0.000000
 
  0.4285714E+00  0.2857143E+00  0.1276756E-14  0.1360544E-01
    1      -32.003575    -32.003578   1.000000   1.000000
    2      -27.822133    -27.822128   1.000000   1.000000
    3      -27.652820    -27.652816   1.000000   1.000000
    4      -27.538049    -27.538044   1.000000   1.000000
    5      -27.495080    -27.495074   1.000000   1.000000
    6      -27.436461    -27.436458   1.000000   1.000000
    7      -27.369985    -27.369981   1.000000   1.000000
    8      -14.627559    -14.627559   1.000000   1.000000
    9      -14.150016    -14.150015   1.000000   1.000000
   10      -13.963535    -13.963535   1.000000   1.000000
   11       -3.318539     -3.318541   1.000000   1.000000
   12       -2.520380     -2.520379   1.000000   1.000000
   13       -2.127583     -2.127584   1.000000   1.000000
   14       -1.500534     -1.500534   1.000000   1.000000
   15       -1.312404     -1.312404   1.000000   1.000000
   16       -1.013734     -1.013734   1.000000   1.000000
   17       -0.556618     -0.556617   1.000000   1.000000
   18       -0.375985     -0.375984   1.000000   1.000000
   19        0.973929      0.973931   1.000000   1.000000
   20        1.982612      1.982610   1.000000   1.000000
   21        4.710148      4.710152  -0.053316  -0.053318
   22        5.263056      5.263060   0.000000   0.000000
   23        6.026302      6.026305   0.000000   0.000000
   24        6.254893      6.254897   0.000000   0.000000
   25        6.819759      6.819760   0.000000   0.000000
   26        7.229549      7.229551   0.000000   0.000000
   27        7.618539      7.618542   0.000000   0.000000
   28        7.941376      7.941377   0.000000   0.000000
   29        8.180578      8.180581   0.000000   0.000000
   30        8.615298      8.615299   0.000000   0.000000
   31        9.242259      9.242261   0.000000   0.000000
   32        9.724427      9.724410   0.000000   0.000000
 
 -0.4285714E+00  0.2857143E+00  0.1299525E-14  0.1360544E-01
    1      -32.003604    -32.003606   1.000000   1.000000
    2      -27.822063    -27.822059   1.000000   1.000000
    3      -27.652146    -27.652143   1.000000   1.000000
    4      -27.541527    -27.541522   1.000000   1.000000
    5      -27.492084    -27.492078   1.000000   1.000000
    6      -27.435000    -27.434997   1.000000   1.000000
    7      -27.371574    -27.371570   1.000000   1.000000
    8      -14.627427    -14.627427   1.000000   1.000000
    9      -14.148992    -14.148991   1.000000   1.000000
   10      -13.963442    -13.963441   1.000000   1.000000
   11       -3.429728     -3.429730   1.000000   1.000000
   12       -2.360598     -2.360598   1.000000   1.000000
   13       -1.920268     -1.920267   1.000000   1.000000
   14       -1.724496     -1.724496   1.000000   1.000000
   15       -1.333132     -1.333132   1.000000   1.000000
   16       -1.015173     -1.015173   1.000000   1.000000