   14   14   60    1
  0.1143464E+02  0.6887628E-09  0.5374090E-09  0.5026353E-09  0.5000000E-15
  1.000000000000000E-004
  CAR 
 unknown system                          
     51    253     36
 
  0.3742002E-15  0.3742002E-15  0.3742002E-15  0.1984127E-02
    1      -32.963253   1.000000
    2      -32.886041   1.000000
    3      -32.381314   1.000000
    4      -28.563686   1.000000
    5      -28.537545   1.000000
    6      -28.487069   1.000000
    7      -15.253338   1.000000
    8      -15.195162   1.000000
    9      -15.115369   1.000000
   10      -14.892775   1.000000
   11      -14.818679   1.000000
   12      -14.796463   1.000000
   13      -14.494703   1.000000
   14      -14.473879   1.000000
   15      -14.415286   1.000000
   16       -5.156778   1.000000
   17       -2.065774   1.000000
   18       -1.663856   1.000000
   19       -1.510246   1.000000
   20       -1.343508   1.000000
   21       -1.202404   1.000000
   22       -1.070845   1.000000
   23       -0.893631   1.000000
   24       -0.171379   1.000000
   25       -0.017713   1.000000
   26        2.281498   0.999904
   27        4.175272   0.000000
   28        4.403674   0.000000
   29        5.100030   0.000000
   30        5.413983   0.000000
   31        5.602130   0.000000
   32        6.064208   0.000000
   33        6.471802   0.000000
   34        6.943000   0.000000
   35        7.329611   0.000000
   36        7.754923   0.000000
 
  0.1428571E+00  0.3761368E-15  0.3677614E-15  0.3968254E-02
    1      -32.963091   1.000000
    2      -32.886068   1.000000
    3      -32.381509   1.000000
    4      -28.563705   1.000000
    5      -28.537572   1.000000
    6      -28.486873   1.000000
    7      -15.255514   1.000000
    8      -15.198071   1.000000
    9      -15.105118   1.000000
   10      -14.891805   1.000000
   11      -14.815898   1.000000
   12      -14.796181   1.000000
   13      -14.494529   1.000000
   14      -14.474240   1.000000
   15      -14.426954   1.000000
   16       -5.055749   1.000000
   17       -2.266813   1.000000
   18       -1.746705   1.000000
   19       -1.608584   1.000000
   20       -1.377020   1.000000
   21       -1.133510   1.000000
   22       -1.091261   1.000000
   23       -0.778591   1.000000
   24       -0.120291   1.000000
   25        0.051099   1.000000
   26        2.331750   0.999051
   27        4.069008   0.000000
   28        4.464994   0.000000
   29        5.066076   0.000000
   30        5.407918   0.000000
   31        5.642401   0.000000
   32        6.086067   0.000000
   33        6.647794   0.000000
   34        6.886747   0.000000
   35        7.063966   0.000000
   36        7.784716   0.000000
 
  0.2857143E+00  0.3983630E-15  0.3330669E-15  0.3968254E-02
    1      -32.962727   1.000000
    2      -32.886130   1.000000
    3      -32.381959   1.000000
    4      -28.563794   1.000000
    5      -28.537596   1.000000
    6      -28.486796   1.000000
    7      -15.260229   1.000000
    8      -15.204243   1.000000
    9      -15.080783   1.000000
   10      -14.890478   1.000000
   11      -14.810047   1.000000
   12      -14.795645   1.000000
   13      -14.498563   1.000000
   14      -14.481024   1.000000
   15      -14.444876   1.000000
   16       -4.783443   1.000000
   17       -2.702193   1.000000
   18       -1.883816   1.000000
   19       -1.755962   1.000000
   20       -1.462178   1.000000
   21       -1.268483   1.000000
   22       -1.002608   1.000000
   23       -0.526482   1.000000
   24       -0.028759   1.000000
   25        0.242910   1.000000
   26        2.374602   0.996491
   27        3.884893   0.000000
   28        4.501213   0.000000
   29        4.954480   0.000000
   30        5.462892   0.000000
   31        5.778604   0.000000
   32        6.154693   0.000000
   33        6.676078   0.000000
   34        7.061061   0.000000
   35        7.178016   0.000000
   36        7.715927   0.000000
 
  0.4285714E+00  0.3853255E-15  0.3747003E-15  0.3968254E-02
    1      -32.962433   1.000000
    2      -32.886177   1.000000
    3      -32.382319   1.000000
    4      -28.563757   1.000000
    5      -28.537609   1.000000
    6      -28.486698   1.000000
    7      -15.263849   1.000000
    8      -15.209027   1.000000
    9      -15.058918   1.000000
   10      -14.889441   1.000000
   11      -14.805645   1.000000
   12      -14.795151   1.000000
   13      -14.516271   1.000000
   14      -14.484781   1.000000
   15      -14.447915   1.000000
   16       -4.472596   1.000000
   17       -3.109634   1.000000
   18       -1.969696   1.000000
   19       -1.837397   1.000000
   20       -1.606046   1.000000
   21       -1.317261   1.000000
   22       -0.934454   1.000000
   23       -0.375589   1.000000
   24        0.040099   1.000000
   25        0.437086   1.000000
   26        2.321886   0.999359
   27        3.780088   0.000000
   28        4.443003   0.000000
   29        4.820106   0.000000
   30        5.545878   0.000000
   31        5.967854   0.000000
   32        6.409522   0.000000
   33        6.642124   0.000000
   34        7.268371   0.000000
   35        7.425751   0.000000
   36        7.732097   0.000000
 
  0.3722066E-15  0.1250000E+00  0.3729655E-15  0.3968254E-02
    1      -32.960672   1.000000
    2      -32.888519   1.000000
    3      -32.381414   1.000000
    4      -28.563649   1.000000
    5      -28.537520   1.000000
    6      -28.487001   1.000000
    7      -15.241768   1.000000
    8      -15.183079   1.000000
    9      -15.104340   1.000000
   10      -14.901095   1.000000
   11      -14.832531   1.000000
   12      -14.816294   1.000000
   13      -14.494648   1.000000
   14      -14.473095   1.000000
   15      -14.421787   1.000000
   16       -5.037632   1.000000
   17       -2.034466   1.000000
   18       -1.694840   1.000000
   19       -1.641415   1.000000
   20       -1.390710   1.000000
   21       -1.170439   1.000000
   22       -1.066328   1.000000
   23       -0.895869   1.000000
   24       -0.182550   1.000000
   25        0.064812   1.000000
   26        2.337291   0.998832
   27        4.184667   0.000000
   28        4.433192   0.000000
   29        4.957816   0.000000
   30        5.289885   0.000000
   31        5.589048   0.000000
   32        6.075945   0.000000
   33        6.558104   0.000000
   34        6.992656   0.000000
   35        7.410263   0.000000
   36        7.597852   0.000000
 
  0.1428571E+00  0.1250000E+00  0.3608225E-15  0.3968254E-02
    1      -32.960399   1.000000
    2      -32.888575   1.000000
    3      -32.381716   1.000000
    4      -28.563668   1.000000
    5      -28.537477   1.000000
    6      -28.486823   1.000000
    7      -15.244068   1.000000
    8      -15.187917   1.000000
    9      -15.088868   1.000000
   10      -14.898643   1.000000
   11      -14.827502   1.000000
   12      -14.816876   1.000000
   13      -14.493234   1.000000
   14      -14.471179   1.000000
   15      -14.444420   1.000000
   16       -4.863481   1.000000
   17       -2.365166   1.000000
   18       -1.802876   1.000000
   19       -1.716867   1.000000
   20       -1.532914   1.000000
   21       -1.082099   1.000000
   22       -1.018226   1.000000
   23       -0.787579   1.000000
   24       -0.144330   1.000000
   25        0.210415   1.000000
   26        2.419229   0.996179
   27        3.993826   0.000000
   28        4.521088   0.000000
   29        5.015374   0.000000
   30        5.244870   0.000000
   31        5.607260   0.000000
   32        6.183949   0.000000
   33        6.507084   0.000000
   34        7.062436   0.000000
   35        7.356425   0.000000
   36        7.631415   0.000000
 
  0.2857143E+00  0.1250000E+00  0.4024558E-15  0.3968254E-02
    1      -32.960046   1.000000
    2      -32.888647   1.000000
    3      -32.382142   1.000000
    4      -28.563724   1.000000
    5      -28.537541   1.000000
    6      -28.486724   1.000000
    7      -15.248491   1.000000
    8      -15.193960   1.000000
    9      -15.064587   1.000000
   10      -14.896793   1.000000
   11      -14.823374   1.000000
   12      -14.817493   1.000000
   13      -14.497749   1.000000
   14      -14.483499   1.000000
   15      -14.453571   1.000000
   16       -4.558842   1.000000
   17       -2.821336   1.000000
   18       -1.913887   1.000000
   19       -1.821384   1.000000
   20       -1.663082   1.000000
   21       -1.208164   1.000000
   22       -0.934285   1.000000
   23       -0.518658   1.000000
   24       -0.059037   1.000000
   25        0.367541   1.000000
   26        2.406324   0.995114
   27        3.839738   0.000000
   28        4.550745   0.000000
   29        4.914476   0.000000
   30        5.261387   0.000000
   31        5.812945   0.000000
   32        6.394891   0.000000
   33        6.576017   0.000000
   34        7.208286   0.000000
   35        7.367420   0.000000
   36        7.684747   0.000000
 
  0.4285714E+00  0.1250000E+00  0.3053113E-15  0.3968254E-02
    1      -32.959879   1.000000
    2      -32.888669   1.000000
    3      -32.382364   1.000000
    4      -28.563752   1.000000
    5      -28.537641   1.000000
    6      -28.486732   1.000000
    7      -15.251141   1.000000
    8      -15.196546   1.000000
    9      -15.051292   1.000000
   10      -14.896706   1.000000
   11      -14.823535   1.000000
   12      -14.816955   1.000000
   13      -14.512885   1.000000
   14      -14.485040   1.000000
   15      -14.449120   1.000000
   16       -4.336875   1.000000
   17       -3.109557   1.000000
   18       -1.963439   1.000000
   19       -1.879810   1.000000
   20       -1.714844   1.000000
   21       -1.258478   1.000000
   22       -0.916859   1.000000
   23       -0.368196   1.000000
   24        0.008472   1.000000
   25        0.433229   1.000000
   26        2.311983   0.999581
   27        3.782015   0.000000
   28        4.577779   0.000000
   29        4.840832   0.000000
   30        5.294101   0.000000
   31        6.089834   0.000000
   32        6.476165   0.000000
   33        6.589227   0.000000
   34        7.188983   0.000000
   35        7.490435   0.000000
   36        7.606744   0.000000
 
 -0.4285714E+00  0.1250000E+00  0.4163336E-15  0.3968254E-02
    1      -32.960026   1.000000
    2      -32.888625   1.000000
    3      -32.382215   1.000000
    4      -28.563778   1.000000
    5      -28.537659   1.000000
    6      -28.486780   1.000000
    7      -15.249815   1.000000
    8      -15.193859   1.000000
    9      -15.062079   1.000000
   10      -14.897780   1.000000
   11      -14.823959   1.000000
   12      -14.818452   1.000000
   13      -14.509257   1.000000
   14      -14.483535   1.000000
   15      -14.442548   1.000000
   16       -4.505232   1.000000
   17       -2.906072   1.000000
   18       -1.927846   1.000000
   19       -1.859180   1.000000
   20       -1.643064   1.000000
   21       -1.235145   1.000000
   22       -0.961862   1.000000
   23       -0.381677   1.000000
   24        0.013240   1.000000
   25        0.299778   1.000000
   26        2.305318   0.999690
   27        3.829835   0.000000
   28        4.650912   0.000000
   29        4.903340   0.000000
   30        5.309196   0.000000
   31        6.040169   0.000000
   32        6.233308   0.000000
   33        6.372264   0.000000
   34        7.283987   0.000000
   35        7.480243   0.000000
   36        7.597927   0.000000
 
 -0.2857143E+00  0.1250000E+00  0.4163336E-15  0.3968254E-02
    1      -32.960375   1.000000
    2      -32.888554   1.000000
    3      -32.381808   1.000000
    4      -28.563710   1.000000
    5      -28.537664   1.000000
    6      -28.486821   1.000000
    7      -15.246043   1.000000
    8      -15.187747   1.000000
    9      -15.085539   1.000000
   10      -14.899875   1.000000
   11      -14.828666   1.000000
   12      -14.817595   1.000000
   13      -14.499046   1.000000
   14      -14.480011   1.000000
   15      -14.430273   1.000000
   16       -4.818159   1.000000
   17       -2.463207   1.000000
   18       -1.820813   1.000000
   19       -1.768656   1.000000
   20       -1.517069   1.000000
   21       -1.139035   1.000000
   22       -1.048750   1.000000
   23       -0.555360   1.000000
   24       -0.035670   1.000000
   25        0.073781   1.000000
   26        2.329339   0.999135
   27        3.998228   0.000000
   28        4.599494   0.000000
   29        4.949776   0.000000
   30        5.351128   0.000000
   31        5.780618   0.000000
   32        6.084829   0.000000
   33        6.385103   0.000000
   34        7.015147   0.000000
   35        7.422371   0.000000
   36        7.692842   0.000000
 
 -0.1428571E+00  0.1250000E+00  0.3920475E-15  0.3968254E-02
    1      -32.960660   1.000000
    2      -32.888507   1.000000
    3      -32.381452   1.000000
    4      -28.563692   1.000000
    5      -28.537565   1.000000
    6      -28.486994   1.000000
    7      -15.242801   1.000000
    8      -15.182983   1.000000
    9      -15.102792   1.000000
   10      -14.901685   1.000000
   11      -14.833135   1.000000
   12      -14.816434   1.000000
   13      -14.495884   1.000000
   14      -14.476252   1.000000
   15      -14.417482   1.000000
   16       -5.021117   1.000000
   17       -2.085457   1.000000
   18       -1.697724   1.000000
   19       -1.657762   1.000000
   20       -1.455147   1.000000
   21       -1.150822   1.000000
   22       -1.027006   1.000000
   23       -0.818007   1.000000
   24       -0.129496   1.000000
   25       -0.005890   1.000000
   26        2.308814   0.999636
   27        4.205022   0.000000
   28        4.452796   0.000000
   29        4.889775   0.000000
   30        5.374087   0.000000
   31        5.606152   0.000000
   32        6.065277   0.000000
   33        6.624998   0.000000
   34        6.957871   0.000000
   35        7.250064   0.000000
   36        7.644588   0.000000
 
  0.3729655E-15  0.2500000E+00  0.3677614E-15  0.3968254E-02
    1      -32.953555   1.000000
    2      -32.895399   1.000000
    3      -32.381665   1.000000
    4      -28.563642   1.000000
    5      -28.537569   1.000000
    6      -28.487035   1.000000
    7      -15.207084   1.000000
    8      -15.148169   1.000000
    9      -15.076113   1.000000
   10      -14.925100   1.000000
   11      -14.872453   1.000000
   12      -14.869338   1.000000
   13      -14.494555   1.000000
   14      -14.471353   1.000000
   15      -14.436821   1.000000
   16       -4.703115   1.000000
   17       -2.082861   1.000000
   18       -1.932252   1.000000
   19       -1.697625   1.000000
   20       -1.549742   1.000000
   21       -1.193406   1.000000
   22       -0.993309   1.000000
   23       -0.723091   1.000000
   24       -0.262286   1.000000
   25        0.191544   1.000000
   26        2.431242   0.998922
   27        4.128204   0.000000
   28        4.552629   0.000000
   29        4.873907   0.000000
   30        4.995862   0.000000
   31        5.633414   0.000000
   32        6.258074   0.000000
   33        6.393902   0.000000
   34        6.752935   0.000000
   35        7.148876   0.000000
   36        7.504667   0.000000
 
  0.1428571E+00  0.2500000E+00  0.3747003E-15  0.3968254E-02
    1      -32.953253   1.000000
    2      -32.895496   1.000000
    3      -32.381964   1.000000
    4      -28.563690   1.000000
    5      -28.537655   1.000000
    6      -28.486927   1.000000
    7      -15.208451   1.000000
    8      -15.154022   1.000000
    9      -15.061307   1.000000
   10      -14.920445   1.000000
   11      -14.876528   1.000000
   12      -14.864195   1.000000
   13      -14.493144   1.000000
   14      -14.468963   1.000000
   15      -14.458488   1.000000
   16       -4.487627   1.000000
   17       -2.414264   1.000000
   18       -2.095974   1.000000
   19       -1.786696   1.000000
   20       -1.618954   1.000000
   21       -1.127117   1.000000
   22       -0.917437   1.000000
   23       -0.626633   1.000000
   24       -0.226338   1.000000
   25        0.286879   1.000000
   26        2.472511   1.026373
   27        3.943607   0.000000
   28        4.712374   0.000000
   29        4.934192   0.000000
   30        5.006497   0.000000
   31        5.666045   0.000000
   32        6.272888   0.000000
   33        6.493740   0.000000
   34        6.833807   0.000000
   35        7.184723   0.000000
   36        7.278220   0.000000
 
  0.2857143E+00  0.2500000E+00  0.3469447E-15  0.3968254E-02
    1      -32.952996   1.000000
    2      -32.895546   1.000000
    3      -32.382255   1.000000
    4      -28.563697   1.000000
    5      -28.537673   1.000000
    6      -28.486703   1.000000
    7      -15.211409   1.000000
    8      -15.158324   1.000000
    9      -15.042835   1.000000
   10      -14.919066   1.000000
   11      -14.883189   1.000000
   12      -14.860258   1.000000
   13      -14.495199   1.000000
   14      -14.482377   1.000000
   15      -14.456480   1.000000
   16       -4.209778   1.000000
   17       -2.797018   1.000000
   18       -2.207776   1.000000
   19       -1.861344   1.000000
   20       -1.679657   1.000000
   21       -1.149289   1.000000
   22       -0.883594   1.000000
   23       -0.427737   1.000000
   24       -0.141379   1.000000
   25        0.345487   1.000000
   26        2.391707   0.995356
   27        3.838016   0.000000
   28        4.848330   0.000000
   29        4.918844   0.000000
   30        4.991323   0.000000
   31        5.920370   0.000000
   32        6.222190   0.000000
   33        6.696949   0.000000
   34        6.823163   0.000000
   35        7.233480   0.000000
   36        7.326133   0.000000
 
  0.4285714E+00  0.2500000E+00  0.4163336E-15  0.3968254E-02
    1      -32.952992   1.000000
    2      -32.895520   1.000000
    3      -32.382330   1.000000
    4      -28.563706   1.000000
    5      -28.537755   1.000000
    6      -28.486755   1.000000
    7      -15.212391   1.000000
    8      -15.158013   1.000000
    9      -15.040895   1.000000
   10      -14.920156   1.000000
   11      -14.884073   1.000000
   12      -14.861685   1.000000
   13      -14.504279   1.000000
   14      -14.483803   1.000000
   15      -14.445319   1.000000
   16       -4.142874   1.000000
   17       -2.895404   1.000000
   18       -2.222542   1.000000
   19       -1.877672   1.000000
   20       -1.700645   1.000000
   21       -1.126248   1.000000
   22       -0.907068   1.000000
   23       -0.340624   1.000000
   24       -0.069988   1.000000
   25        0.301340   1.000000
   26        2.304086   0.999707
   27        3.825623   0.000000
   28        4.868220   0.000000
   29        4.999727   0.000000
   30        5.016308   0.000000
   31        6.032814   0.000000
   32        6.225368   0.000000
   33        6.490454   0.000000
   34        6.755788   0.000000
   35        7.298675   0.000000
   36        7.418767   0.000000
 
 -0.4285714E+00  0.2500000E+00  0.4302114E-15  0.3968254E-02
    1      -32.953230   1.000000
    2      -32.895427   1.000000
    3      -32.382115   1.000000
    4      -28.563710   1.000000
    5      -28.537684   1.000000
    6      -28.486670   1.000000
    7      -15.210513   1.000000
    8      -15.153103   1.000000
    9      -15.057429   1.000000
   10      -14.921782   1.000000
   11      -14.877850   1.000000
   12      -14.867266   1.000000
   13      -14.504782   1.000000
   14      -14.482636   1.000000
   15      -14.431295   1.000000
   16       -4.385316   1.000000
   17       -2.591267   1.000000
   18       -2.138771   1.000000
   19       -1.822948   1.000000
   20       -1.682496   1.000000
   21       -1.039127   1.000000
   22       -0.965306   1.000000
   23       -0.429458   1.000000
   24       -0.047734   1.000000
   25        0.156023   1.000000
   26        2.307172   0.999662
   27        3.923156   0.000000
   28        4.790680   0.000000
   29        5.012853   0.000000
   30        5.115569   0.000000
   31        5.974078   0.000000
   32        6.052381   0.000000
   33        6.307867   0.000000
   34        6.675027   0.000000
   35        7.201108   0.000000
   36        7.322460   0.000000
 
 -0.2857143E+00  0.2500000E+00  0.4163336E-15  0.3968254E-02
    1      -32.953536   1.000000
    2      -32.895345   1.000000
    3      -32.381785   1.000000
    4      -28.563696   1.000000
    5      -28.537686   1.000000
    6      -28.486847   1.000000
    7      -15.208782   1.000000
    8      -15.147311   1.000000
    9      -15.073774   1.000000
   10      -14.926065   1.000000
   11      -14.873836   1.000000
   12      -14.871324   1.000000
   13      -14.499615   1.000000
   14      -14.480684   1.000000
   15      -14.420803   1.000000
   16       -4.642126   1.000000
   17       -2.191051   1.000000
   18       -2.011792   1.000000
   19       -1.725326   1.000000
   20       -1.666009   1.000000
   21       -1.046548   1.000000
   22       -0.943215   1.000000
   23       -0.641098   1.000000
   24       -0.112791   1.000000
   25        0.068760   1.000000
   26        2.329791   0.999120
   27        4.130434   0.000000
   28        4.614492   0.000000
   29        4.843651   0.000000
   30        5.107537   0.000000
   31        5.930213   0.000000
   32        6.113970   0.000000
   33        6.198213   0.000000
   34        6.646509   0.000000
   35        7.164296   0.000000
   36        7.277238   0.000000
 
 -0.1428571E+00  0.2500000E+00  0.3868433E-15  0.3968254E-02
    1      -32.953682   1.000000
    2      -32.895333   1.000000
    3      -32.381585   1.000000
    4      -28.563622   1.000000
    5      -28.537615   1.000000
    6      -28.487023   1.000000
    7      -15.207816   1.000000
    8      -15.145079   1.000000
    9      -15.079916   1.000000
   10      -14.928075   1.000000
   11      -14.875243   1.000000
   12      -14.869315   1.000000
   13      -14.496095   1.000000
   14      -14.476381   1.000000
   15      -14.421701   1.000000
   16       -4.761483   1.000000
   17       -1.993912   1.000000
   18       -1.848091   1.000000
   19       -1.666825   1.000000
   20       -1.623902   1.000000
   21       -1.146930   1.000000
   22       -1.039496   1.000000
   23       -0.703465   1.000000
   24       -0.216100   1.000000
   25        0.105398   1.000000
   26        2.357056   0.997758
   27        4.291555   0.000000
   28        4.496807   0.000000
   29        4.696100   0.000000
   30        5.054875   0.000000
   31        5.726691   0.000000
   32        6.151589   0.000000
   33        6.438806   0.000000
   34        6.718585   0.000000
   35        7.075264   0.000000
   36        7.486313   0.000000
 
  0.3707971E-15  0.3750000E+00  0.3816392E-15  0.3968254E-02
    1      -32.944087   1.000000
    2      -32.904628   1.000000
    3      -32.381918   1.000000
    4      -28.563705   1.000000
    5      -28.537643   1.000000
    6      -28.487056   1.000000
    7      -15.152218   1.000000
    8      -15.098339   1.000000
    9      -15.040817   1.000000
   10      -14.969225   1.000000
   11      -14.932858   1.000000
   12      -14.924475   1.000000
   13      -14.494821   1.000000
   14      -14.469939   1.000000
   15      -14.450493   1.000000
   16       -4.231918   1.000000
   17       -2.588975   1.000000
   18       -1.950675   1.000000
   19       -1.714082   1.000000
   20       -1.579885   1.000000
   21       -1.268751   1.000000
   22       -0.884123   1.000000
   23       -0.479532   1.000000
   24       -0.353367   1.000000
   25        0.211008   1.000000
   26        2.490562   1.043082
   27        4.009575   0.000000
   28        4.616311   0.000000
   29        4.945120   0.000000
   30        5.048805   0.000000
   31        5.554602   0.000000
   32        6.133885   0.000000
   33        6.223039   0.000000
   34        6.570210   0.000000
   35        6.782540   0.000000
   36        7.230399   0.000000
 
  0.1428571E+00  0.3750000E+00  0.3747003E-15  0.3968254E-02
    1      -32.943872   1.000000
    2      -32.904714   1.000000
    3      -32.382097   1.000000
    4      -28.563655   1.000000
    5      -28.537658   1.000000
    6      -28.486965   1.000000
    7      -15.151939   1.000000
    8      -15.102894   1.000000
    9      -15.032167   1.000000
   10      -14.965795   1.000000
   11      -14.939557   1.000000
   12      -14.919264   1.000000
   13      -14.493843   1.000000
   14      -14.468559   1.000000
   15      -14.461278   1.000000
   16       -4.036428   1.000000
   17       -2.707245   1.000000
   18       -2.268819   1.000000
   19       -1.752894   1.000000
   20       -1.575076   1.000000
   21       -1.194595   1.000000
   22       -0.849309   1.000000
   23       -0.408066   1.000000
   24       -0.310663   1.000000
   25        0.234236   1.000000
   26        2.478559   1.032181
   27        3.917603   0.000000
   28        4.595523   0.000000
   29        5.098980   0.000000
   30        5.180206   0.000000
   31        5.650533   0.000000
   32        6.078469   0.000000
   33        6.108693   0.000000
   34        6.716821   0.000000
   35        6.859718   0.000000
   36        7.024971   0.000000
 
  0.2857143E+00  0.3750000E+00  0.3608225E-15  0.3968254E-02
    1      -32.943793   1.000000
    2      -32.904700   1.000000
    3      -32.382234   1.000000
    4      -28.563644   1.000000
    5      -28.537671   1.000000
    6      -28.486774   1.000000
    7      -15.152462   1.000000
    8      -15.103823   1.000000
    9      -15.022533   1.000000
   10      -14.973730   1.000000
   11      -14.939819   1.000000
   12      -14.919241   1.000000
   13      -14.495195   1.000000
   14      -14.478373   1.000000
   15      -14.451124   1.000000
   16       -3.870495   1.000000
   17       -2.727388   1.000000
   18       -2.565089   1.000000
   19       -1.789118   1.000000
   20       -1.602875   1.000000
   21       -1.101222   1.000000
   22       -0.858086   1.000000
   23       -0.326921   1.000000
   24       -0.209002   1.000000
   25        0.218485   1.000000
   26        2.385513   0.995712
   27        3.874272   0.000000
   28        4.617663   0.000000
   29        5.217222   0.000000
   30        5.264865   0.000000
   31        5.733205   0.000000
   32        5.884806   0.000000
   33        6.143180   0.000000
   34        6.726791   0.000000
   35        6.897125   0.000000
   36        6.985801   0.000000
 
  0.4285714E+00  0.3750000E+00  0.3608225E-15  0.3968254E-02
    1      -32.943914   1.000000
    2      -32.904597   1.000000
    3      -32.382227   1.000000
    4      -28.563626   1.000000
    5      -28.537653   1.000000
    6      -28.486773   1.000000
    7      -15.151476   1.000000
    8      -15.100107   1.000000
    9      -15.031531   1.000000
   10      -14.976826   1.000000
   11      -14.932788   1.000000
   12      -14.924083   1.000000
   13      -14.502330   1.000000
   14      -14.482812   1.000000
   15      -14.433769   1.000000
   16       -3.912631   1.000000
   17       -2.790237   1.000000
   18       -2.423416   1.000000
   19       -1.792202   1.000000
   20       -1.675801   1.000000
   21       -0.972887   1.000000
   22       -0.889150   1.000000
   23       -0.353167   1.000000
   24       -0.138066   1.000000
   25        0.162577   1.000000
   26        2.339463   0.998737
   27        3.897628   0.000000
   28        4.582712   0.000000
   29        5.286513   0.000000
   30        5.399051   0.000000
   31        5.686158   0.000000
   32        5.855938   0.000000
   33        6.086012   0.000000
   34        6.542651   0.000000
   35        6.830055   0.000000
   36        7.017828   0.000000
 
 -0.4285714E+00  0.3750000E+00  0.4302114E-15  0.3968254E-02
    1      -32.944135   1.000000
    2      -32.904479   1.000000
    3      -32.382075   1.000000
    4      -28.563716   1.000000
    5      -28.537662   1.000000
    6      -28.486647   1.000000
    7      -15.150800   1.000000
    8      -15.094403   1.000000
    9      -15.044503   1.000000
   10      -14.976633   1.000000
   11      -14.931275   1.000000
   12      -14.925935   1.000000
   13      -14.504153   1.000000
   14      -14.483101   1.000000
   15      -14.422267   1.000000
   16       -4.115338   1.000000
   17       -2.686031   1.000000
   18       -2.116859   1.000000
   19       -1.800678   1.000000
   20       -1.726197   1.000000
   21       -0.938821   1.000000
   22       -0.849857   1.000000
   23       -0.482937   1.000000
   24       -0.152241   1.000000
   25        0.122186   1.000000
   26        2.350036   0.998192
   27        3.989341   0.000000
   28        4.549697   0.000000
   29        5.115439   0.000000
   30        5.347741   0.000000
   31        5.773044   0.000000
   32        5.868736   0.000000
   33        6.162724   0.000000
   34        6.483194   0.000000
   35        6.680581   0.000000
   36        6.744124   0.000000
 
 -0.2857143E+00  0.3750000E+00  0.3955170E-15  0.3968254E-02
    1      -32.944298   1.000000
    2      -32.904435   1.000000
    3      -32.381898   1.000000
    4      -28.563681   1.000000
    5      -28.537641   1.000000
    6      -28.486843   1.000000
    7      -15.152592   1.000000
    8      -15.090980   1.000000
    9      -15.046094   1.000000
   10      -14.978300   1.000000
   11      -14.934311   1.000000
   12      -14.925975   1.000000
   13      -14.498932   1.000000
   14      -14.480645   1.000000
   15      -14.423616   1.000000
   16       -4.286372   1.000000
   17       -2.506490   1.000000
   18       -1.929521   1.000000
   19       -1.798699   1.000000
   20       -1.672509   1.000000
   21       -1.002055   1.000000
   22       -0.941737   1.000000
   23       -0.496728   1.000000
   24       -0.225188   1.000000
   25        0.126990   1.000000
   26        2.366742   0.997079
   27        4.097468   0.000000
   28        4.586525   0.000000
   29        4.919093   0.000000