   8   8   1   0
  0.8329708E+01  0.3522522E-09  0.3582575E-09  0.5284153E-09  0.5000000E-15
  1.000000000000000E-004
  CAR 
 unknown system                          
     23.17022920    -34.75239025  301      3.56927502      1.00000000
    -34.752  0.0000E+00  0.0000E+00  0.0000E+00  0.0000E+00
    -34.559  0.0000E+00  0.0000E+00  0.0000E+00  0.0000E+00
    -34.366  0.0000E+00  0.0000E+00  0.0000E+00  0.0000E+00
    -34.173  0.0000E+00  0.0000E+00  0.0000E+00  0.0000E+00
    -33.980  0.0000E+00  0.0000E+00  0.0000E+00  0.0000E+00
    -33.787  0.0000E+00  0.0000E+00  0.0000E+00  0.0000E+00
    -33.594  0.0000E+00  0.0000E+00  0.0000E+00  0.0000E+00
    -33.401  0.0000E+00  0.0000E+00  0.0000E+00  0.0000E+00
    -33.208  0.0000E+00  0.0000E+00  0.0000E+00  0.0000E+00
    -33.015  0.0000E+00  0.0000E+00  0.0000E+00  0.0000E+00
    -32.822  0.0000E+00  0.0000E+00  0.0000E+00  0.0000E+00
    -32.629  0.0000E+00  0.0000E+00  0.0000E+00  0.0000E+00
    -32.435  0.0000E+00  0.0000E+00  0.0000E+00  0.0000E+00
    -32.242  0.0000E+00  0.0000E+00  0.0000E+00  0.0000E+00
    -32.049  0.9303E-01  0.1316E+00  0.9366E-02  0.7765E-02
    -31.856  0.0000E+00  0.0000E+00  0.1010E-01  0.1010E-01
    -31.663  0.0000E+00  0.0000E+00  0.1010E-01  0.1010E-01
    -31.470  0.0000E+00  0.0000E+00  0.1010E-01  0.1010E-01
    -31.277  0.0000E+00  0.0000E+00  0.1010E-01  0.1010E-01
    -31.084  0.0000E+00  0.0000E+00  0.1010E-01  0.1010E-01
    -30.891  0.0000E+00  0.0000E+00  0.1010E-01  0.1010E-01
    -30.698  0.0000E+00  0.0000E+00  0.1010E-01  0.1010E-01
    -30.505  0.0000E+00  0.0000E+00  0.1010E-01  0.1010E-01
    -30.312  0.0000E+00  0.0000E+00  0.1010E-01  0.1010E-01
    -30.119  0.0000E+00  0.0000E+00  0.1010E-01  0.1010E-01
    -29.926  0.0000E+00  0.0000E+00  0.1010E-01  0.1010E-01
    -29.732  0.0000E+00  0.0000E+00  0.1010E-01  0.1010E-01
    -29.539  0.0000E+00  0.0000E+00  0.1010E-01  0.1010E-01
    -29.346  0.0000E+00  0.0000E+00  0.1010E-01  0.1010E-01
    -29.153  0.0000E+00  0.0000E+00  0.1010E-01  0.1010E-01
    -28.960  0.0000E+00  0.0000E+00  0.1010E-01  0.1010E-01
    -28.767  0.0000E+00  0.0000E+00  0.1010E-01  0.1010E-01
    -28.574  0.0000E+00  0.0000E+00  0.1010E-01  0.1010E-01
    -28.381  0.1039E+00  0.0000E+00  0.1207E-01  0.1010E-01
    -28.188  0.0000E+00  0.0000E+00  0.4040E-01  0.1010E-01
    -27.995  0.0000E+00  0.1094E+00  0.4040E-01  0.2020E-01
    -27.802  0.0000E+00  0.0000E+00  0.4040E-01  0.3030E-01
    -27.609  0.0000E+00  0.0000E+00  0.4040E-01  0.4040E-01
    -27.416  0.0000E+00  0.0000E+00  0.4040E-01  0.4040E-01
    -27.222  0.0000E+00  0.0000E+00  0.4040E-01  0.4040E-01
    -27.029  0.0000E+00  0.0000E+00  0.4040E-01  0.4040E-01
    -26.836  0.0000E+00  0.0000E+00  0.4040E-01  0.4040E-01
    -26.643  0.0000E+00  0.0000E+00  0.4040E-01  0.4040E-01
    -26.450  0.0000E+00  0.0000E+00  0.4040E-01  0.4040E-01
    -26.257  0.0000E+00  0.0000E+00  0.4040E-01  0.4040E-01
    -26.064  0.0000E+00  0.0000E+00  0.4040E-01  0.4040E-01
    -25.871  0.0000E+00  0.0000E+00  0.4040E-01  0.4040E-01
    -25.678  0.0000E+00  0.0000E+00  0.4040E-01  0.4040E-01
    -25.485  0.0000E+00  0.0000E+00  0.4040E-01  0.4040E-01
    -25.292  0.0000E+00  0.0000E+00  0.4040E-01  0.4040E-01
    -25.099  0.0000E+00  0.0000E+00  0.4040E-01  0.4040E-01
    -24.906  0.0000E+00  0.0000E+00  0.4040E-01  0.4040E-01
    -24.712  0.0000E+00  0.0000E+00  0.4040E-01  0.4040E-01
    -24.519  0.0000E+00  0.0000E+00  0.4040E-01  0.4040E-01
    -24.326  0.0000E+00  0.0000E+00  0.4040E-01  0.4040E-01
    -24.133  0.0000E+00  0.0000E+00  0.4040E-01  0.4040E-01
    -23.940  0.0000E+00  0.0000E+00  0.4040E-01  0.4040E-01
    -23.747  0.0000E+00  0.0000E+00  0.4040E-01  0.4040E-01
    -23.554  0.0000E+00  0.0000E+00  0.4040E-01  0.4040E-01
    -23.361  0.0000E+00  0.0000E+00  0.4040E-01  0.4040E-01
    -23.168  0.0000E+00  0.0000E+00  0.4040E-01  0.4040E-01
    -22.975  0.0000E+00  0.0000E+00  0.4040E-01  0.4040E-01
    -22.782  0.0000E+00  0.0000E+00  0.4040E-01  0.4040E-01
    -22.589  0.0000E+00  0.0000E+00  0.4040E-01  0.4040E-01
    -22.396  0.0000E+00  0.0000E+00  0.4040E-01  0.4040E-01
    -22.202  0.0000E+00  0.0000E+00  0.4040E-01  0.4040E-01
    -22.009  0.0000E+00  0.0000E+00  0.4040E-01  0.4040E-01
    -21.816  0.0000E+00  0.0000E+00  0.4040E-01  0.4040E-01
    -21.623  0.0000E+00  0.0000E+00  0.4040E-01  0.4040E-01
    -21.430  0.0000E+00  0.0000E+00  0.4040E-01  0.4040E-01
    -21.237  0.0000E+00  0.0000E+00  0.4040E-01  0.4040E-01
    -21.044  0.0000E+00  0.0000E+00  0.4040E-01  0.4040E-01
    -20.851  0.0000E+00  0.0000E+00  0.4040E-01  0.4040E-01
    -20.658  0.0000E+00  0.0000E+00  0.4040E-01  0.4040E-01
    -20.465  0.0000E+00  0.0000E+00  0.4040E-01  0.4040E-01
    -20.272  0.0000E+00  0.0000E+00  0.4040E-01  0.4040E-01
    -20.079  0.0000E+00  0.0000E+00  0.4040E-01  0.4040E-01
    -19.886  0.0000E+00  0.0000E+00  0.4040E-01  0.4040E-01
    -19.693  0.0000E+00  0.0000E+00  0.4040E-01  0.4040E-01
    -19.499  0.0000E+00  0.0000E+00  0.4040E-01  0.4040E-01
    -19.306  0.0000E+00  0.0000E+00  0.4040E-01  0.4040E-01
    -19.113  0.0000E+00  0.0000E+00  0.4040E-01  0.4040E-01
    -18.920  0.0000E+00  0.0000E+00  0.4040E-01  0.4040E-01
    -18.727  0.0000E+00  0.0000E+00  0.4040E-01  0.4040E-01
    -18.534  0.0000E+00  0.0000E+00  0.4040E-01  0.4040E-01
    -18.341  0.0000E+00  0.0000E+00  0.4040E-01  0.4040E-01
    -18.148  0.0000E+00  0.0000E+00  0.4040E-01  0.4040E-01
    -17.955  0.0000E+00  0.0000E+00  0.4040E-01  0.4040E-01
    -17.762  0.0000E+00  0.0000E+00  0.4040E-01  0.4040E-01
    -17.569  0.0000E+00  0.0000E+00  0.4040E-01  0.4040E-01
    -17.376  0.0000E+00  0.0000E+00  0.4040E-01  0.4040E-01
    -17.183  0.0000E+00  0.0000E+00  0.4040E-01  0.4040E-01
    -16.989  0.0000E+00  0.0000E+00  0.4040E-01  0.4040E-01
    -16.796  0.0000E+00  0.0000E+00  0.4040E-01  0.4040E-01
    -16.603  0.0000E+00  0.0000E+00  0.4040E-01  0.4040E-01
    -16.410  0.0000E+00  0.0000E+00  0.4040E-01  0.4040E-01
    -16.217  0.0000E+00  0.0000E+00  0.4040E-01  0.4040E-01
    -16.024  0.0000E+00  0.0000E+00  0.4040E-01  0.4040E-01
    -15.831  0.0000E+00  0.0000E+00  0.4040E-01  0.4040E-01
    -15.638  0.0000E+00  0.0000E+00  0.4040E-01  0.4040E-01
    -15.445  0.0000E+00  0.0000E+00  0.4040E-01  0.4040E-01
    -15.252  0.0000E+00  0.0000E+00  0.4040E-01  0.4040E-01
    -15.059  0.0000E+00  0.0000E+00  0.4040E-01  0.4040E-01
    -14.866  0.0000E+00  0.0000E+00  0.4040E-01  0.4040E-01
    -14.673  0.0000E+00  0.0000E+00  0.4040E-01  0.4040E-01
    -14.479  0.5334E-01  0.3579E-01  0.4309E-01  0.4213E-01
    -14.286  0.5024E-01  0.3346E-01  0.5031E-01  0.4953E-01
    -14.093  0.1036E+00  0.7318E-01  0.6158E-01  0.6009E-01
    -13.900  0.0000E+00  0.0000E+00  0.7071E-01  0.7071E-01
    -13.707  0.0000E+00  0.0000E+00  0.7071E-01  0.7071E-01
    -13.514  0.0000E+00  0.0000E+00  0.7071E-01  0.7071E-01
    -13.321  0.0000E+00  0.0000E+00  0.7071E-01  0.7071E-01
    -13.128  0.0000E+00  0.0000E+00  0.7071E-01  0.7071E-01
    -12.935  0.0000E+00  0.0000E+00  0.7071E-01  0.7071E-01
    -12.742  0.0000E+00  0.0000E+00  0.7071E-01  0.7071E-01
    -12.549  0.0000E+00  0.0000E+00  0.7071E-01  0.7071E-01
    -12.356  0.0000E+00  0.0000E+00  0.7071E-01  0.7071E-01
    -12.163  0.0000E+00  0.0000E+00  0.7071E-01  0.7071E-01
    -11.969  0.0000E+00  0.0000E+00  0.7071E-01  0.7071E-01
    -11.776  0.0000E+00  0.0000E+00  0.7071E-01  0.7071E-01
    -11.583  0.0000E+00  0.0000E+00  0.7071E-01  0.7071E-01
    -11.390  0.0000E+00  0.0000E+00  0.7071E-01  0.7071E-01
    -11.197  0.0000E+00  0.0000E+00  0.7071E-01  0.7071E-01
    -11.004  0.0000E+00  0.0000E+00  0.7071E-01  0.7071E-01
    -10.811  0.0000E+00  0.0000E+00  0.7071E-01  0.7071E-01
    -10.618  0.0000E+00  0.0000E+00  0.7071E-01  0.7071E-01
    -10.425  0.0000E+00  0.0000E+00  0.7071E-01  0.7071E-01
    -10.232  0.0000E+00  0.0000E+00  0.7071E-01  0.7071E-01
    -10.039  0.0000E+00  0.0000E+00  0.7071E-01  0.7071E-01
     -9.846  0.0000E+00  0.0000E+00  0.7071E-01  0.7071E-01
     -9.653  0.0000E+00  0.0000E+00  0.7071E-01  0.7071E-01
     -9.460  0.0000E+00  0.0000E+00  0.7071E-01  0.7071E-01
     -9.266  0.0000E+00  0.0000E+00  0.7071E-01  0.7071E-01
     -9.073  0.0000E+00  0.0000E+00  0.7071E-01  0.7071E-01
     -8.880  0.0000E+00  0.0000E+00  0.7071E-01  0.7071E-01
     -8.687  0.0000E+00  0.0000E+00  0.7071E-01  0.7071E-01
     -8.494  0.0000E+00  0.0000E+00  0.7071E-01  0.7071E-01
     -8.301  0.0000E+00  0.0000E+00  0.7071E-01  0.7071E-01
     -8.108  0.0000E+00  0.0000E+00  0.7071E-01  0.7071E-01
     -7.915  0.0000E+00  0.0000E+00  0.7071E-01  0.7071E-01
     -7.722  0.0000E+00  0.0000E+00  0.7071E-01  0.7071E-01
     -7.529  0.0000E+00  0.0000E+00  0.7071E-01  0.7071E-01
     -7.336  0.0000E+00  0.0000E+00  0.7071E-01  0.7071E-01
     -7.143  0.0000E+00  0.0000E+00  0.7071E-01  0.7071E-01
     -6.950  0.0000E+00  0.0000E+00  0.7071E-01  0.7071E-01
     -6.756  0.0000E+00  0.0000E+00  0.7071E-01  0.7071E-01
     -6.563  0.0000E+00  0.0000E+00  0.7071E-01  0.7071E-01
     -6.370  0.0000E+00  0.0000E+00  0.7071E-01  0.7071E-01
     -6.177  0.0000E+00  0.0000E+00  0.7071E-01  0.7071E-01
     -5.984  0.1782E-03  0.4508E-04  0.7072E-01  0.7071E-01
     -5.791  0.9244E-03  0.5983E-03  0.7081E-01  0.7076E-01
     -5.598  0.1657E-02  0.1449E-02  0.7107E-01  0.7096E-01
     -5.405  0.2201E-02  0.2004E-02  0.7144E-01  0.7130E-01
     -5.212  0.2857E-02  0.2709E-02  0.7193E-01  0.7175E-01
     -5.019  0.2975E-02  0.2938E-02  0.7250E-01  0.7231E-01
     -4.826  0.3203E-02  0.3131E-02  0.7309E-01  0.7289E-01
     -4.633  0.3376E-02  0.3322E-02  0.7373E-01  0.7351E-01
     -4.440  0.3547E-02  0.3463E-02  0.7440E-01  0.7417E-01
     -4.246  0.3800E-02  0.3687E-02  0.7511E-01  0.7486E-01
     -4.053  0.5350E-02  0.4022E-02  0.7593E-01  0.7559E-01
     -3.860  0.5937E-02  0.6506E-02  0.7713E-01  0.7669E-01
     -3.667  0.3312E-02  0.3677E-02  0.7795E-01  0.7772E-01
     -3.474  0.2971E-02  0.3112E-02  0.7856E-01  0.7836E-01
     -3.281  0.2627E-02  0.2765E-02  0.7910E-01  0.7893E-01
     -3.088  0.2393E-02  0.2368E-02  0.7957E-01  0.7942E-01
     -2.895  0.2779E-02  0.2519E-02  0.8007E-01  0.7988E-01
     -2.702  0.8237E-02  0.7263E-02  0.8115E-01  0.8073E-01
     -2.509  0.1517E-01  0.1259E-01  0.8332E-01  0.8252E-01
     -2.316  0.1723E-01  0.1450E-01  0.8627E-01  0.8525E-01
     -2.123  0.2217E-01  0.1529E-01  0.8965E-01  0.8853E-01
     -1.930  0.1566E-01  0.1846E-01  0.9395E-01  0.9237E-01
     -1.736  0.2519E-01  0.1361E-01  0.9740E-01  0.9521E-01
     -1.543  0.8957E-02  0.1436E-01  0.1004E+00  0.9882E-01
     -1.350  0.7395E-02  0.7515E-02  0.1016E+00  0.1009E+00
     -1.157  0.1670E-01  0.9022E-02  0.1040E+00  0.1025E+00
     -0.964  0.1649E-01  0.2084E-01  0.1080E+00  0.1052E+00
     -0.771  0.1677E-01  0.1528E-01  0.1111E+00  0.1086E+00
     -0.578  0.1197E-01  0.1514E-01  0.1139E+00  0.1117E+00
     -0.385  0.1025E-01  0.1242E-01  0.1161E+00  0.1142E+00
     -0.192  0.1076E-01  0.1083E-01  0.1181E+00  0.1165E+00
      0.001  0.1225E-01  0.1131E-01  0.1204E+00  0.1186E+00
      0.194  0.8900E-02  0.1266E-01  0.1225E+00  0.1209E+00
      0.387  0.7129E-02  0.7976E-02  0.1239E+00  0.1229E+00
      0.580  0.7352E-02  0.7454E-02  0.1253E+00  0.1243E+00
      0.773  0.6418E-02  0.7048E-02  0.1267E+00  0.1257E+00
      0.967  0.5120E-02  0.5950E-02  0.1278E+00  0.1270E+00
      1.160  0.3807E-02  0.4786E-02  0.1286E+00  0.1280E+00
      1.353  0.3054E-02  0.3497E-02  0.1293E+00  0.1288E+00
      1.546  0.2663E-02  0.2929E-02  0.1298E+00  0.1294E+00
      1.739  0.2297E-02  0.2561E-02  0.1303E+00  0.1300E+00
      1.932  0.1996E-02  0.2194E-02  0.1307E+00  0.1304E+00
      2.125  0.1466E-02  0.1889E-02  0.1311E+00  0.1308E+00
      2.318  0.5103E-03  0.1235E-02  0.1313E+00  0.1311E+00
      2.511  0.2819E-04  0.3832E-03  0.1313E+00  0.1313E+00
      2.704  0.0000E+00  0.1302E-04  0.1313E+00  0.1313E+00
      2.897  0.9808E-02  0.0000E+00  0.1320E+00  0.1313E+00
      3.090  0.1931E-01  0.0000E+00  0.1358E+00  0.1313E+00
      3.283  0.9772E-02  0.0000E+00  0.1385E+00  0.1313E+00
      3.477  0.4792E-02  0.6615E-02  0.1398E+00  0.1317E+00
      3.670  0.2527E-02  0.2192E-01  0.1405E+00  0.1342E+00
      3.863  0.1672E-02  0.1125E-01  0.1409E+00  0.1380E+00
      4.056  0.1039E-02  0.6044E-02  0.1411E+00  0.1397E+00
      4.249  0.3535E-02  0.2710E-02  0.1415E+00  0.1405E+00
      4.442  0.1189E-01  0.4985E-02  0.1429E+00  0.1411E+00
      4.635  0.1427E-01  0.1302E-01  0.1454E+00  0.1427E+00
      4.828  0.3739E-01  0.1266E-01  0.1492E+00  0.1452E+00
      5.021  0.1170E-01  0.1511E-01  0.1532E+00  0.1477E+00
      5.214  0.1162E-01  0.1301E-01  0.1556E+00  0.1526E+00
      5.407  0.6825E-02  0.1204E-01  0.1575E+00  0.1551E+00
      5.600  0.7688E-02  0.9108E-02  0.1589E+00  0.1571E+00
      5.793  0.1162E-01  0.6787E-02  0.1607E+00  0.1585E+00
      5.987  0.1325E-01  0.1103E-01  0.1634E+00  0.1602E+00
      6.180  0.1264E-01  0.1449E-01  0.1656E+00  0.1627E+00
      6.373  0.1937E-01  0.1139E-01  0.1686E+00  0.1652E+00
      6.566  0.1439E-01  0.1718E-01  0.1718E+00  0.1680E+00
      6.759  0.1406E-01  0.1478E-01  0.1744E+00  0.1713E+00
      6.952  0.1346E-01  0.1384E-01  0.1769E+00  0.1740E+00
      7.145  0.1411E-01  0.1358E-01  0.1797E+00  0.1767E+00
      7.338  0.1329E-01  0.1306E-01  0.1825E+00  0.1793E+00
      7.531  0.2653E-01  0.1676E-01  0.1860E+00  0.1823E+00
      7.724  0.1425E-01  0.2490E-01  0.1906E+00  0.1862E+00
      7.917  0.3061E-02  0.1292E-01  0.1918E+00  0.1907E+00
      8.110  0.1214E-01  0.4137E-02  0.1930E+00  0.1920E+00
      8.303  0.2530E-01  0.2259E-01  0.1975E+00  0.1940E+00
      8.496  0.9888E-02  0.1711E-01  0.2005E+00  0.1989E+00
      8.690  0.5023E-02  0.7589E-02  0.2018E+00  0.2011E+00
      8.883  0.2298E-01  0.1439E-01  0.2050E+00  0.2024E+00
      9.076  0.2046E-01  0.2507E-01  0.2096E+00  0.2068E+00
      9.269  0.8910E-02  0.1754E-01  0.2126E+00  0.2108E+00
      9.462  0.2101E-01  0.1085E-01  0.2151E+00  0.2133E+00
      9.655  0.1854E-01  0.2443E-01  0.2196E+00  0.2169E+00
      9.848  0.1167E-01  0.1409E-01  0.2223E+00  0.2207E+00
     10.041  0.1420E-01  0.1436E-01  0.2248E+00  0.2233E+00
     10.234  0.1099E-01  0.1088E-01  0.2270E+00  0.2258E+00
     10.427  0.1360E-01  0.1398E-01  0.2296E+00  0.2280E+00
     10.620  0.2172E-01  0.1638E-01  0.2329E+00  0.2308E+00
     10.813  0.1979E-01  0.2389E-01  0.2374E+00  0.2346E+00
     11.006  0.1321E-01  0.1845E-01  0.2405E+00  0.2388E+00
     11.200  0.5706E-02  0.6174E-02  0.2420E+00  0.2414E+00
     11.393  0.9704E-02  0.6779E-02  0.2434E+00  0.2424E+00
     11.586  0.1465E-01  0.9482E-02  0.2460E+00  0.2439E+00
     11.779  0.1406E-01  0.1254E-01  0.2488E+00  0.2461E+00
     11.972  0.7107E-02  0.1240E-01  0.2510E+00  0.2486E+00
     12.165  0.4028E-02  0.8765E-02  0.2519E+00  0.2507E+00
     12.358  0.4432E-02  0.5410E-02  0.2528E+00  0.2519E+00
     12.551  0.5423E-02  0.5291E-02  0.2537E+00  0.2529E+00
     12.744  0.7600E-02  0.5709E-02  0.2550E+00  0.2540E+00
     12.937  0.1073E-01  0.7394E-02  0.2567E+00  0.2553E+00
     13.130  0.1305E-01  0.1183E-01  0.2590E+00  0.2571E+00
     13.323  0.1556E-01  0.1412E-01  0.2617E+00  0.2596E+00
     13.516  0.7620E-02  0.1660E-01  0.2642E+00  0.2625E+00
     13.710  0.8180E-02  0.7256E-02  0.2656E+00  0.2647E+00
     13.903  0.1517E-01  0.8717E-02  0.2677E+00  0.2662E+00
     14.096  0.1392E-01  0.1635E-01  0.2709E+00  0.2685E+00
     14.289  0.9498E-02  0.1328E-01  0.2732E+00  0.2714E+00
     14.482  0.8120E-02  0.9134E-02  0.2749E+00  0.2735E+00
     14.675  0.8709E-02  0.8515E-02  0.2764E+00  0.2751E+00
     14.868  0.9952E-02  0.9018E-02  0.2782E+00  0.2768E+00
     15.061  0.1234E-01  0.1055E-01  0.2803E+00  0.2787E+00
     15.254  0.9151E-02  0.1012E-01  0.2823E+00  0.2808E+00
     15.447  0.8097E-02  0.8362E-02  0.2839E+00  0.2827E+00
     15.640  0.8359E-02  0.7654E-02  0.2854E+00  0.2842E+00
     15.833  0.1202E-01  0.8939E-02  0.2873E+00  0.2858E+00
     16.026  0.1331E-01  0.1272E-01  0.2898E+00  0.2879E+00
     16.220  0.7163E-02  0.1225E-01  0.2919E+00  0.2904E+00
     16.413  0.2259E-02  0.6106E-02  0.2927E+00  0.2921E+00
     16.606  0.2079E-02  0.2097E-02  0.2931E+00  0.2928E+00
     16.799  0.6583E-02  0.1798E-02  0.2938E+00  0.2931E+00
     16.992  0.1669E-01  0.6678E-02  0.2959E+00  0.2937E+00
     17.185  0.1520E-01  0.1909E-01  0.2992E+00  0.2963E+00
     17.378  0.1102E-01  0.1407E-01  0.3016E+00  0.2997E+00
     17.571  0.1000E-01  0.1029E-01  0.3036E+00  0.3019E+00
     17.764  0.1143E-01  0.1001E-01  0.3057E+00  0.3039E+00
     17.957  0.9709E-02  0.1094E-01  0.3077E+00  0.3060E+00
     18.150  0.1046E-01  0.1104E-01  0.3097E+00  0.3081E+00
     18.343  0.9717E-02  0.1083E-01  0.3116E+00  0.3102E+00
     18.536  0.1343E-01  0.9940E-02  0.3139E+00  0.3122E+00
     18.729  0.1224E-01  0.1278E-01  0.3164E+00  0.3145E+00
     18.923  0.1118E-01  0.1172E-01  0.3186E+00  0.3169E+00
     19.116  0.9286E-02  0.1001E-01  0.3206E+00  0.3190E+00
     19.309  0.3856E-02  0.9438E-02  0.3219E+00  0.3208E+00
     19.502  0.2138E-02  0.3410E-02  0.3225E+00  0.3220E+00
     19.695  0.1220E-02  0.1847E-02  0.3228E+00  0.3225E+00
     19.888  0.7848E-03  0.1229E-02  0.3230E+00  0.3228E+00
     20.081  0.5320E-03  0.7701E-03  0.3231E+00  0.3230E+00
     20.274  0.3188E-03  0.5857E-03  0.3232E+00  0.3231E+00
     20.467  0.0000E+00  0.3173E-03  0.3232E+00  0.3232E+00
     20.660  0.0000E+00  0.0000E+00  0.3232E+00  0.3232E+00
     20.853  0.0000E+00  0.0000E+00  0.3232E+00  0.3232E+00
     21.046  0.0000E+00  0.0000E+00  0.3232E+00  0.3232E+00
     21.239  0.0000E+00  0.0000E+00  0.3232E+00  0.3232E+00
     21.433  0.0000E+00  0.0000E+00  0.3232E+00  0.3232E+00
     21.626  0.0000E+00  0.0000E+00  0.3232E+00  0.3232E+00
     21.819  0.0000E+00  0.0000E+00  0.3232E+00  0.3232E+00
     22.012  0.0000E+00  0.0000E+00  0.3232E+00  0.3232E+00
     22.205  0.0000E+00  0.0000E+00  0.3232E+00  0.3232E+00
     22.398  0.0000E+00  0.0000E+00  0.3232E+00  0.3232E+00
     22.591  0.0000E+00  0.0000E+00  0.3232E+00  0.3232E+00
     22.784  0.0000E+00  0.0000E+00  0.3232E+00  0.3232E+00
     22.977  0.0000E+00  0.0000E+00  0.3232E+00  0.3232E+00
     23.170  0.0000E+00  0.0000E+00  0.3232E+00  0.3232E+00
     23.17022920    -34.75239025  301      3.56927502      1.00000000
    -34.752  0.0000E+00  0.0000E+00  0.0000E+00  0.0000E+00  0.0000E+00  0.0000E+00  0.0000E+00  0.0000E+00  0.0000E+00  0.0000E+00  0.0000E+00  0.0000E+00  0.0000E+00  0.0000E+00  0.0000E+00  0.0000E+00  0.0000E+00  0.0000E+00
    -34.559  0.0000E+00  0.0000E+00  0.0000E+00  0.0000E+00  0.0000E+00  0.0000E+00  0.0000E+00  0.0000E+00  0.0000E+00  0.0000E+00  0.0000E+00  0.0000E+00  0.0000E+00  0.0000E+00  0.0000E+00  0.0000E+00  0.0000E+00  0.0000E+00
    -34.366  0.0000E+00  0.0000E+00  0.0000E+00  0.0000E+00  0.0000E+00  0.0000E+00  0.0000E+00  0.0000E+00  0.0000E+00  0.0000E+00  0.0000E+00  0.0000E+00  0.0000E+00  0.0000E+00  0.0000E+00  0.0000E+00  0.0000E+00  0.0000E+00
    -34.173  0.0000E+00  0.0000E+00  0.0000E+00  0.0000E+00  0.0000E+00  0.0000E+00  0.0000E+00  0.0000E+00  0.0000E+00  0.0000E+00  0.0000E+00  0.0000E+00  0.0000E+00  0.0000E+00  0.0000E+00  0.0000E+00  0.0000E+00  0.0000E+00
    -33.980  0.0000E+00  0.0000E+00  0.0000E+00  0.0000E+00  0.0000E+00  0.0000E+00  0.0000E+00  0.0000E+00  0.0000E+00  0.0000E+00  0.0000E+00  0.0000E+00  0.0000E+00  0.0000E+00  0.0000E+00  0.0000E+00  0.0000E+00  0.0000E+00
    -33.787  0.0000E+00  0.0000E+00  0.0000E+00  0.0000E+00  0.0000E+00  0.0000E+00  0.0000E+00  0.0000E+00  0.0000E+00  0.0000E+00  0.0000E+00  0.0000E+00  0.0000E+00  0.0000E+00  0.0000E+00  0.0000E+00  0.0000E+00  0.0000E+00
    -33.594  0.0000E+00  0.0000E+00  0.0000E+00  0.0000E+00  0.0000E+00  0.0000E+00  0.0000E+00  0.0000E+00  0.0000E+00  0.0000E+00  0.0000E+00  0.0000E+00  0.0000E+00  0.0000E+00  0.0000E+00  0.0000E+00  0.0000E+00  0.0000E+00
    -33.401  0.0000E+00  0.0000E+00  0.0000E+00  0.0000E+00  0.0000E+00  0.0000E+00  0.0000E+00  0.0000E+00  0.0000E+00  0.0000E+00  0.0000E+00  0.0000E+00  0.0000E+00  0.0000E+00  0.0000E+00  0.0000E+00  0.0000E+00  0.0000E+00
    -33.208  0.0000E+00  0.0000E+00  0.0000E+00  0.0000E+00  0.0000E+00  0.0000E+00  0.0000E+00  0.0000E+00  0.0000E+00  0.0000E+00  0.0000E+00  0.0000E+00  0.0000E+00  0.0000E+00  0.0000E+00  0.0000E+00  0.0000E+00  0.0000E+00
    -33.015  0.0000E+00  0.0000E+00  0.0000E+00  0.0000E+00  0.0000E+00  0.0000E+00  0.0000E+00  0.0000E+00  0.0000E+00  0.0000E+00  0.0000E+00  0.0000E+00  0.0000E+00  0.0000E+00  0.0000E+00  0.0000E+00  0.0000E+00  0.0000E+00
    -32.822  0.0000E+00  0.0000E+00  0.0000E+00  0.0000E+00  0.0000E+00  0.0000E+00  0.0000E+00  0.0000E+00  0.0000E+00  0.0000E+00  0.0000E+00  0.0000E+00  0.0000E+00  0.0000E+00  0.0000E+00  0.0000E+00  0.0000E+00  0.0000E+00
    -32.629  0.0000E+00  0.0000E+00  0.0000E+00  0.0000E+00  0.0000E+00  0.0000E+00  0.0000E+00  0.0000E+00  0.0000E+00  0.0000E+00  0.0000E+00  0.0000E+00  0.0000E+00  0.0000E+00  0.0000E+00  0.0000E+00  0.0000E+00  0.0000E+00
    -32.435  0.0000E+00  0.0000E+00  0.0000E+00  0.0000E+00  0.0000E+00  0.0000E+00  0.0000E+00  0.0000E+00  0.0000E+00  0.0000E+00  0.0000E+00  0.0000E+00  0.0000E+00  0.0000E+00  0.0000E+00  0.0000E+00  0.0000E+00  0.0000E+00
    -32.242  0.0000E+00  0.0000E+00  0.0000E+00  0.0000E+00  0.0000E+00  0.0000E+00  0.0000E+00  0.0000E+00  0.0000E+00  0.0000E+00  0.0000E+00  0.0000E+00  0.0000E+00  0.0000E+00  0.0000E+00  0.0000E+00  0.0000E+00  0.0000E+00
    -32.049  0.9017E+01  0.1274E+02  0.2957E-04  0.5184E-04  0.1185E-04  0.1689E-04  0.2850E-04  0.5360E-04  0.7601E-06  0.2431E-05  0.2564E-05  0.5154E-05  0.1171E-04  0.2607E-04  0.2733E-07  0.1404E-06  0.3065E-05  0.1598E-04
    -31.856  0.0000E+00  0.0000E+00  0.0000E+00  0.0000E+00  0.0000E+00  0.0000E+00  0.0000E+00  0.0000E+00  0.0000E+00  0.0000E+00  0.0000E+00  0.0000E+00  0.0000E+00  0.0000E+00  0.0000E+00  0.0000E+00  0.0000E+00  0.0000E+00
    -31.663  0.0000E+00  0.0000E+00  0.0000E+00  0.0000E+00  0.0000E+00  0.0000E+00  0.0000E+00  0.0000E+00  0.0000E+00  0.0000E+00  0.0000E+00  0.0000E+00  0.0000E+00  0.0000E+00  0.0000E+00  0.0000E+00  0.0000E+00  0.0000E+00
    -31.470  0.0000E+00  0.0000E+00  0.0000E+00  0.0000E+00  0.0000E+00  0.0000E+00  0.0000E+00  0.0000E+00  0.0000E+00  0.0000E+00  0.0000E+00  0.0000E+00  0.0000E+00  0.0000E+00  0.0000E+00  0.0000E+00  0.0000E+00  0.0000E+00
    -31.277  0.0000E+00  0.0000E+00  0.0000E+00  0.0000E+00  0.0000E+00  0.0000E+00  0.0000E+00  0.0000E+00  0.0000E+00  0.0000E+00  0.0000E+00  0.0000E+00  0.0000E+00  0.0000E+00  0.0000E+00  0.0000E+00  0.0000E+00  0.0000E+00
    -31.084  0.0000E+00  0.0000E+00  0.0000E+00  0.0000E+00  0.0000E+00  0.0000E+00  0.0000E+00  0.0000E+00  0.0000E+00  0.0000E+00  0.0000E+00  0.0000E+00  0.0000E+00  0.0000E+00  0.0000E+00  0.0000E+00  0.0000E+00  0.0000E+00
    -30.891  0.0000E+00  0.0000E+00  0.0000E+00  0.0000E+00  0.0000E+00  0.0000E+00  0.0000E+00  0.0000E+00  0.0000E+00  0.0000E+00  0.0000E+00  0.0000E+00  0.0000E+00  0.0000E+00  0.0000E+00  0.0000E+00  0.0000E+00  0.0000E+00
    -30.698  0.0000E+00  0.0000E+00  0.0000E+00  0.0000E+00  0.0000E+00  0.0000E+00  0.0000E+00  0.0000E+00  0.0000E+00  0.0000E+00  0.0000E+00  0.0000E+00  0.0000E+00  0.0000E+00  0.0000E+00  0.0000E+00  0.0000E+00  0.0000E+00
    -30.505  0.0000E+00  0.0000E+00  0.0000E+00  0.0000E+00  0.0000E+00  0.0000E+00  0.0000E+00  0.0000E+00  0.0000E+00  0.0000E+00  0.0000E+00  0.0000E+00  0.0000E+00  0.0000E+00  0.0000E+00  0.0000E+00  0.0000E+00  0.0000E+00
    -30.312  0.0000E+00  0.0000E+00  0.0000E+00  0.0000E+00  0.0000E+00  0.0000E+00  0.0000E+00  0.0000E+00  0.0000E+00  0.0000E+00  0.0000E+00  0.0000E+00  0.0000E+00  0.0000E+00  0.0000E+00  0.0000E+00  0.0000E+00  0.0000E+00
    -30.119  0.0000E+00  0.0000E+00  0.0000E+00  0.0000E+00  0.0000E+00  0.0000E+00  0.0000E+00  0.0000E+00  0.0000E+00  0.0000E+00  0.0000E+00  0.0000E+00  0.0000E+00  0.0000E+00  0.0000E+00  0.0000E+00  0.0000E+00  0.0000E+00
    -29.926  0.0000E+00  0.0000E+00  0.0000E+00  0.0000E+00  0.0000E+00  0.0000E+00  0.0000E+00  0.0000E+00  0.0000E+00  0.0000E+00  0.0000E+00  0.0000E+00  0.0000E+00  0.0000E+00  0.0000E+00  0.0000E+00  0.0000E+00  0.0000E+00
    -29.732  0.0000E+00  0.0000E+00  0.0000E+00  0.0000E+00  0.0000E+00  0.0000E+00  0.0000E+00  0.0000E+00  0.0000E+00  0.0000E+00  0.0000E+00  0.0000E+00  0.0000E+00  0.0000E+00  0.0000E+00  0.0000E+00  0.0000E+00  0.0000E+00
    -29.539  0.0000E+00  0.0000E+00  0.0000E+00  0.0000E+00  0.0000E+00  0.0000E+00  0.0000E+00  0.0000E+00  0.0000E+00  0.0000E+00  0.0000E+00  0.0000E+00  0.0000E+00  0.0000E+00  0.0000E+00  0.0000E+00  0.0000E+00  0.0000E+00
    -29.346  0.0000E+00  0.0000E+00  0.0000E+00  0.0000E+00  0.0000E+00  0.0000E+00  0.0000E+00  0.0000E+00  0.0000E+00  0.0000E+00  0.0000E+00  0.0000E+00  0.0000E+00  0.0000E+00  0.0000E+00  0.0000E+00  0.0000E+00  0.0000E+00
    -29.153  0.0000E+00  0.0000E+00  0.0000E+00  0.0000E+00  0.0000E+00  0.0000E+00  0.0000E+00  0.0000E+00  0.0000E+00  0.0000E+00  0.0000E+00  0.0000E+00  0.0000E+00  0.0000E+00  0.0000E+00  0.0000E+00  0.0000E+00  0.0000E+00
    -28.960  0.0000E+00  0.0000E+00  0.0000E+00  0.0000E+00  0.0000E+00  0.0000E+00  0.0000E+00  0.0000E+00  0.0000E+00  0.0000E+00  0.0000E+00  0.0000E+00  0.0000E+00  0.0000E+00  0.0000E+00  0.0000E+00  0.0000E+00  0.0000E+00
    -28.767  0.0000E+00  0.0000E+00  0.0000E+00  0.0000E+00  0.0000E+00  0.0000E+00  0.0000E+00  0.0000E+00  0.0000E+00  0.0000E+00  0.0000E+00  0.0000E+00  0.0000E+00  0.0000E+00  0.0000E+00  0.0000E+00  0.0000E+00  0.0000E+00
    -28.574  0.0000E+00  0.0000E+00  0.0000E+00  0.0000E+00  0.0000E+00  0.0000E+00  0.0000E+00  0.0000E+00  0.0000E+00  0.0000E+00  0.0000E+00  0.0000E+00  0.0000E+00  0.0000E+00  0.0000E+00  0.0000E+00  0.0000E+00  0.0000E+00
    -28.381  0.6925E-03  0.0000E+00  0.5617E-04  0.0000E+00  0.1256E-03  0.0000E+00  0.1424E-04  0.0000E+00  0.7626E-06  0.0000E+00  0.2699E-04  0.0000E+00  0.1919E-04  0.0000E+00  0.8052E-05  0.0000E+00  0.3059E-05  0.0000E+00
    -28.188  0.0000E+00  0.0000E+00  0.0000E+00  0.0000E+00  0.0000E+00  0.0000E+00  0.0000E+00  0.0000E+00  0.0000E+00  0.0000E+00  0.0000E+00  0.0000E+00  0.0000E+00  0.0000E+00  0.0000E+00  0.0000E+00  0.0000E+00  0.0000E+00
    -27.995  0.0000E+00  0.3685E-03  0.0000E+00  0.3723E-04  0.0000E+00  0.7276E-04  0.0000E+00  0.2621E-04  0.0000E+00  0.5198E-05  0.0000E+00  0.1542E-04  0.0000E+00  0.8407E-05  0.0000E+00  0.1209E-04  0.0000E+00  0.2814E-05
    -27.802  0.0000E+00  0.0000E+00  0.0000E+00  0.0000E+00  0.0000E+00  0.0000E+00  0.0000E+00  0.0000E+00  0.0000E+00  0.0000E+00  0.0000E+00  0.0000E+00  0.0000E+00  0.0000E+00  0.0000E+00  0.0000E+00  0.0000E+00  0.0000E+00
    -27.609  0.0000E+00  0.0000E+00  0.0000E+00  0.0000E+00  0.0000E+00  0.0000E+00  0.0000E+00  0.0000E+00  0.0000E+00  0.0000E+00  0.0000E+00  0.0000E+00  0.0000E+00  0.0000E+00  0.0000E+00  0.0000E+00  0.0000E+00  0.0000E+00
    -27.416  0.0000E+00  0.0000E+00  0.0000E+00  0.0000E+00  0.0000E+00  0.0000E+00  0.0000E+00  0.0000E+00  0.0000E+00  0.0000E+00  0.0000E+00  0.0000E+00  0.0000E+00  0.0000E+00  0.0000E+00  0.0000E+00  0.0000E+00  0.0000E+00
    -27.222  0.0000E+00  0.0000E+00  0.0000E+00  0.0000E+00  0.0000E+00  0.0000E+00  0.0000E+00  0.0000E+00  0.0000E+00  0.0000E+00  0.0000E+00  0.0000E+00  0.0000E+00  0.0000E+00  0.0000E+00  0.0000E+00  0.0000E+00  0.0000E+00
    -27.029  0.0000E+00  0.0000E+00  0.0000E+00  0.0000E+00  0.0000E+00  0.0000E+00  0.0000E+00  0.0000E+00  0.0000E+00  0.0000E+00  0.0000E+00  0.0000E+00  0.0000E+00  0.0000E+00  0.0000E+00  0.0000E+00  0.0000E+00  0.0000E+00
    -26.836  0.0000E+00  0.0000E+00  0.0000E+00  0.0000E+00  0.0000E+00  0.0000E+00  0.0000E+00  0.0000E+00  0.0000E+00  0.0000E+00  0.0000E+00  0.0000E+00  0.0000E+00  0.0000E+00  0.0000E+00  0.0000E+00  0.0000E+00  0.0000E+00
    -26.643  0.0000E+00  0.0000E+00  0.0000E+00  0.0000E+00  0.0000E+00  0.0000E+00  0.0000E+00  0.0000E+00  0.0000E+00  0.0000E+00  0.0000E+00  0.0000E+00  0.0000E+00  0.0000E+00  0.0000E+00  0.0000E+00  0.0000E+00  0.0000E+00
    -26.450  0.0000E+00  0.0000E+00  0.0000E+00  0.0000E+00  0.0000E+00  0.0000E+00  0.0000E+00  0.0000E+00  0.0000E+00  0.0000E+00  0.0000E+00  0.0000E+00  0.0000E+00  0.0000E+00  0.0000E+00  0.0000E+00  0.0000E+00  0.0000E+00
    -26.257  0.0000E+00  0.0000E+00  0.0000E+00  0.0000E+00  0.0000E+00  0.0000E+00  0.0000E+00  0.0000E+00  0.0000E+00  0.0000E+00  0.0000E+00  0.0000E+00  0.0000E+00  0.0000E+00  0.0000E+00  0.0000E+00  0.0000E+00  0.0000E+00
    -26.064  0.0000E+00  0.0000E+00  0.0000E+00  0.0000E+00  0.0000E+00  0.0000E+00  0.0000E+00  0.0000E+00  0.0000E+00  0.0000E+00  0.0000E+00  0.0000E+00  0.0000E+00  0.0000E+00  0.0000E+00  0.0000E+00  0.0000E+00  0.0000E+00
    -25.871  0.0000E+00  0.0000E+00  0.0000E+00  0.0000E+00  0.0000E+00  0.0000E+00  0.0000E+00  0.0000E+00  0.0000E+00  0.0000E+00  0.0000E+00  0.0000E+00  0.0000E+00  0.0000E+00  0.0000E+00  0.0000E+00  0.0000E+00  0.0000E+00
    -25.678  0.0000E+00  0.0000E+00  0.0000E+00  0.0000E+00  0.0000E+00  0.0000E+00  0.0000E+00  0.0000E+00  0.0000E+00  0.0000E+00  0.0000E+00  0.0000E+00  0.0000E+00  0.0000E+00  0.0000E+00  0.0000E+00  0.0000E+00  0.0000E+00
    -25.485  0.0000E+00  0.0000E+00  0.0000E+00  0.0000E+00  0.0000E+00  0.0000E+00  0.0000E+00  0.0000E+00  0.0000E+00  0.0000E+00  0.0000E+00  0.0000E+00  0.0000E+00  0.0000E+00  0.0000E+00  0.0000E+00  0.0000E+00  0.0000E+00
    -25.292  0.0000E+00  0.0000E+00  0.0000E+00  0.0000E+00  0.0000E+00  0.0000E+00  0.0000E+00  0.0000E+00  0.0000E+00  0.0000E+00  0.0000E+00  0.0000E+00  0.0000E+00  0.0000E+00  0.0000E+00  0.0000E+00  0.0000E+00  0.0000E+00
    -25.099  0.0000E+00  0.0000E+00  0.0000E+00  0.0000E+00  0.0000E+00  0.0000E+00  0.0000E+00  0.0000E+00  0.0000E+00  0.0000E+00  0.0000E+00  0.0000E+00  0.0000E+00  0.0000E+00  0.0000E+00  0.0000E+00  0.0000E+00  0.0000E+00