 running on   16 total cores
 distrk:  each k-point on   16 cores,    1 groups
 distr:  one band on    1 cores,   16 groups
 using from now: INCAR     
 vasp.5.4.4.18Apr17-6-g9f103f2a35 (build Nov 01 2019 12:17:22) complex          
  
 POSCAR found type information on POSCAR  Sr Nb H 
 POSCAR found :  3 types and       8 ions

 ----------------------------------------------------------------------------- 
|                                                                             |
|           W    W    AA    RRRRR   N    N  II  N    N   GGGG   !!!           |
|           W    W   A  A   R    R  NN   N  II  NN   N  G    G  !!!           |
|           W    W  A    A  R    R  N N  N  II  N N  N  G       !!!           |
|           W WW W  AAAAAA  RRRRR   N  N N  II  N  N N  G  GGG   !            |
|           WW  WW  A    A  R   R   N   NN  II  N   NN  G    G                |
|           W    W  A    A  R    R  N    N  II  N    N   GGGG   !!!           |
|                                                                             |
|      For optimal performance we recommend to set                            |
|        NCORE= 4 - approx SQRT( number of cores)                             |
|      NCORE specifies how many cores store one orbital (NPAR=cpu/NCORE).     |
|      This setting can  greatly improve the performance of VASP for DFT.     |
|      The default,   NCORE=1            might be grossly inefficient         |
|      on modern multi-core architectures or massively parallel machines.     |
|      Do your own testing !!!!                                               |
|      Unfortunately you need to use the default for GW and RPA calculations. |
|      (for HF NCORE is supported but not extensively tested yet)             |
|                                                                             |
 ----------------------------------------------------------------------------- 


 ----------------------------------------------------------------------------- 
|                                                                             |
|  ADVICE TO THIS USER RUNNING 'VASP/VAMP'   (HEAR YOUR MASTER'S VOICE ...):  |
|                                                                             |
|      You have a (more or less) 'small supercell' and for smaller cells      |
|      it is recommended  to use the reciprocal-space projection scheme!      |
|      The real space optimization is not  efficient for small cells and it   |
|      is also less accurate ...                                              |
|      Therefore set LREAL=.FALSE. in the  INCAR file                         |
|                                                                             |
 ----------------------------------------------------------------------------- 

 LDA part: xc-table for Pade appr. of Perdew
 POSCAR, INCAR and KPOINTS ok, starting setup
 FFT: planning ...
 WAVECAR not read
 entering main loop
       N       E                     dE             d eps       ncg     rms          rms(c)
DAV:   1     0.137089625280E+03    0.13709E+03   -0.12629E+04 12688   0.798E+02
DAV:   2    -0.271479775699E+02   -0.16424E+03   -0.15426E+03 14976   0.234E+02
DAV:   3    -0.340373931696E+02   -0.68894E+01   -0.68311E+01 21824   0.448E+01
DAV:   4    -0.341157305520E+02   -0.78337E-01   -0.78349E-01 13776   0.319E+00
DAV:   5    -0.341175901756E+02   -0.18596E-02   -0.18598E-02 19968   0.404E-01    0.351E+01
RMM:   6    -0.336467485394E+02    0.47084E+00   -0.32178E+00 13505   0.783E+00    0.152E+01
RMM:   7    -0.333822790565E+02    0.26447E+00   -0.41932E-01 13450   0.414E+00    0.755E+00
RMM:   8    -0.333769136020E+02    0.53655E-02   -0.81565E-02 13504   0.185E+00    0.399E+00
RMM:   9    -0.333795314379E+02   -0.26178E-02   -0.19690E-02 13438   0.978E-01    0.148E+00
RMM:  10    -0.333792612561E+02    0.27018E-03   -0.54272E-03 13513   0.563E-01    0.928E-01
RMM:  11    -0.333794383605E+02   -0.17710E-03   -0.10278E-03 11629   0.212E-01
   1 F= -.33379438E+02 E0= -.33379438E+02  d E =-.333794E+02  mag=     0.5454
 curvature:   0.00 expect dE= 0.000E+00 dE for cont linesearch  0.000E+00
 trial: gam= 0.00000 g(F)=  0.744E-02 g(S)=  0.515E-01 ort = 0.000E+00 (trialstep = 0.100E+01)
 search vector abs. value=  0.589E-01
 bond charge predicted
       N       E                     dE             d eps       ncg     rms          rms(c)
DAV:   1    -0.335835880023E+02   -0.20433E+00   -0.35133E+00 18880   0.124E+01    0.435E+00
RMM:   2    -0.334417716226E+02    0.14182E+00   -0.26828E-01 13062   0.287E+00    0.107E+00
RMM:   3    -0.334198992332E+02    0.21872E-01   -0.28843E-02 13838   0.136E+00    0.101E+00
RMM:   4    -0.334167108907E+02    0.31883E-02   -0.13522E-02 14050   0.604E-01    0.953E-01
RMM:   5    -0.334171904921E+02   -0.47960E-03   -0.67695E-03 13616   0.463E-01    0.413E-01
RMM:   6    -0.334174545304E+02   -0.26404E-03   -0.44891E-03 12781   0.270E-01    0.845E-02
RMM:   7    -0.334176568102E+02   -0.20228E-03   -0.18433E-03 11525   0.218E-01
   2 F= -.33417657E+02 E0= -.33417657E+02  d E =-.382184E-01  mag=     0.6206
 trial-energy change:   -0.038218  1 .order   -0.042195   -0.058898   -0.025492
 step:   1.7631(harm=  1.7631)  dis= 0.00864  next Energy=   -33.431360 (dE=-0.519E-01)
 bond charge predicted
       N       E                     dE             d eps       ncg     rms          rms(c)
DAV:   1    -0.335184350777E+02   -0.10098E+00   -0.20161E+00 14432   0.934E+00    0.323E+00
RMM:   2    -0.334369506822E+02    0.81484E-01   -0.14449E-01 12963   0.214E+00    0.793E-01
RMM:   3    -0.334255791809E+02    0.11372E-01   -0.17274E-02 13984   0.100E+00    0.733E-01
RMM:   4    -0.334241917560E+02    0.13874E-02   -0.87930E-03 13547   0.460E-01    0.698E-01
RMM:   5    -0.334247406081E+02   -0.54885E-03   -0.33001E-03 12754   0.342E-01    0.356E-01
RMM:   6    -0.334249453705E+02   -0.20476E-03   -0.25106E-03 12144   0.221E-01
   3 F= -.33424945E+02 E0= -.33424945E+02  d E =-.455070E-01  mag=     0.6711
 curvature:  -0.88 expect dE=-0.729E-02 dE for cont linesearch -0.149E-03
 trial: gam= 0.08681 g(F)=  0.668E-02 g(S)=  0.159E-02 ort = 0.316E-02 (trialstep = 0.115E+01)
 search vector abs. value=  0.926E-02
 bond charge predicted
       N       E                     dE             d eps       ncg     rms          rms(c)
DAV:   1    -0.334327593974E+02   -0.80188E-02   -0.99119E-01 16336   0.678E+00    0.462E-01
RMM:   2    -0.334324550038E+02    0.30439E-03   -0.34337E-02 13138   0.835E-01    0.268E-01
RMM:   3    -0.334316200525E+02    0.83495E-03   -0.19757E-03 11576   0.511E-01    0.336E-01
RMM:   4    -0.334315311814E+02    0.88871E-04   -0.27723E-04  9499   0.113E-01
   4 F= -.33431531E+02 E0= -.33431531E+02  d E =-.658581E-02  mag=     0.6947
 trial-energy change:   -0.006586  1 .order   -0.007521   -0.009846   -0.005195
 step:   2.4398(harm=  2.4398)  dis= 0.01733  next Energy=   -33.435366 (dE=-0.104E-01)
 bond charge predicted
       N       E                     dE             d eps       ncg     rms          rms(c)
DAV:   1    -0.334333952616E+02   -0.17752E-02   -0.12310E+00 17248   0.758E+00    0.549E-01
RMM:   2    -0.334331130033E+02    0.28226E-03   -0.43303E-02 13088   0.937E-01    0.273E-01
RMM:   3    -0.334319804385E+02    0.11326E-02   -0.26817E-03 11778   0.591E-01    0.437E-01
RMM:   4    -0.334318651128E+02    0.11533E-03   -0.37447E-04  9789   0.129E-01
   5 F= -.33431865E+02 E0= -.33431865E+02  d E =-.691974E-02  mag=     0.7220
 curvature:  -1.32 expect dE=-0.216E-01 dE for cont linesearch -0.134E-03
 trial: gam= 2.14033 g(F)=  0.104E-01 g(S)=  0.599E-02 ort =-0.970E-03 (trialstep = 0.239E+00)
 search vector abs. value=  0.546E-01
 bond charge predicted
       N       E                     dE             d eps       ncg     rms          rms(c)
DAV:   1    -0.334359198590E+02   -0.39394E-02   -0.11035E-01 21872   0.203E+00    0.334E-01
RMM:   2    -0.334339752788E+02    0.19446E-02   -0.38622E-03 12939   0.330E-01    0.181E-01
RMM:   3    -0.334336022971E+02    0.37298E-03   -0.34695E-04  9133   0.195E-01
   6 F= -.33433602E+02 E0= -.33433602E+02  d E =-.173718E-02  mag=     0.7301
 ZBRENT: can't locate minimum, use default step
 trial-energy change:   -0.001737  1 .order   -0.003189   -0.003414   -0.002965
 step:   0.9561(harm=  1.8165)  dis= 0.02002  next Energy=   -33.444837 (dE=-0.130E-01)
 bond charge predicted
       N       E                     dE             d eps       ncg     rms          rms(c)
DAV:   1    -0.334587820210E+02   -0.24807E-01   -0.10360E+00 18864   0.615E+00    0.121E+00
RMM:   2    -0.334390472382E+02    0.19735E-01   -0.40998E-02 13574   0.105E+00    0.511E-01
RMM:   3    -0.334354183799E+02    0.36289E-02   -0.36299E-03 13035   0.475E-01    0.347E-01
RMM:   4    -0.334344386842E+02    0.97970E-03   -0.33202E-03 13001   0.320E-01    0.290E-01
RMM:   5    -0.334345603175E+02   -0.12163E-03   -0.11468E-03 10980   0.236E-01
   7 F= -.33434560E+02 E0= -.33434560E+02  d E =-.269520E-02  mag=     0.7564
 curvature:  -2.44 expect dE=-0.185E-01 dE for cont linesearch -0.238E-04
 trial: gam=-0.07156 g(F)=  0.679E-02 g(S)=  0.772E-03 ort = 0.730E-03 (trialstep = 0.382E+00)
 search vector abs. value=  0.774E-02
 reached required accuracy - stopping structural energy minimisation
