   10   10   60    1
  0.8013828E+01  0.3686416E-09  0.3373997E-09  0.6715295E-09  0.5000000E-15
  1.000000000000000E-004
  CAR 
 unknown system                          
     29    398     20
 
  0.3742002E-15  0.3742002E-15  0.3742002E-15  0.1262626E-02
    1      -32.453604   1.000000
    2      -28.612044   1.000000
    3      -28.564751   1.000000
    4      -28.494949   1.000000
    5      -14.609876   1.000000
    6      -14.295326   1.000000
    7      -14.121289   1.000000
    8       -7.818666   1.000000
    9       -3.397802   1.000000
   10       -2.490950   1.000000
   11       -1.657033   1.000000
   12       -0.180879   1.000000
   13        0.483483   1.000000
   14        1.272552   1.000000
   15        2.183027   1.000000
   16        3.808135   0.000000
   17        4.658901   0.000000
   18        6.059056   0.000000
   19        6.463146   0.000000
   20        7.021089   0.000000
 
  0.9090909E-01  0.3750120E-15  0.3677614E-15  0.2525253E-02
    1      -32.450814   1.000000
    2      -28.616744   1.000000
    3      -28.563583   1.000000
    4      -28.498139   1.000000
    5      -14.604528   1.000000
    6      -14.340097   1.000000
    7      -14.118178   1.000000
    8       -7.727127   1.000000
    9       -3.455338   1.000000
   10       -2.400618   1.000000
   11       -1.667205   1.000000
   12       -0.509854   1.000000
   13        0.777718   1.000000
   14        1.253168   1.000000
   15        2.277968   1.000000
   16        3.739262   0.000000
   17        4.618312   0.000000
   18        6.146375   0.000000
   19        6.419465   0.000000
   20        7.137108   0.000000
 
  0.1818182E+00  0.3763808E-15  0.4024558E-15  0.2525253E-02
    1      -32.443298   1.000000
    2      -28.630547   1.000000
    3      -28.560234   1.000000
    4      -28.505117   1.000000
    5      -14.589672   1.000000
    6      -14.457250   1.000000
    7      -14.109716   1.000000
    8       -7.465919   1.000000
    9       -3.613739   1.000000
   10       -2.229320   1.000000
   11       -1.718361   1.000000
   12       -0.841650   1.000000
   13        0.967929   1.000000
   14        1.285139   1.000000
   15        2.589027   0.999976
   16        3.581510   0.000000
   17        4.594289   0.000000
   18        6.099307   0.000000
   19        6.529284   0.000000
   20        7.348348   0.000000
 
  0.2727273E+00  0.3781426E-15  0.4163336E-15  0.2525253E-02
    1      -32.433429   1.000000
    2      -28.651547   1.000000
    3      -28.555855   1.000000
    4      -28.511594   1.000000
    5      -14.607211   1.000000
    6      -14.567528   1.000000
    7      -14.098855   1.000000
    8       -7.079077   1.000000
    9       -3.863792   1.000000
   10       -2.255361   1.000000
   11       -1.726899   1.000000
   12       -0.861544   1.000000
   13        0.903979   1.000000
   14        1.379460   1.000000
   15        3.054883  -0.039257
   16        3.435279   0.000000
   17        4.533150   0.000000
   18        5.935543   0.000000
   19        6.763484   0.000000
   20        7.413876   0.000000
 
  0.3636364E+00  0.3812326E-15  0.4163336E-15  0.2525253E-02
    1      -32.424318   1.000000
    2      -28.672740   1.000000
    3      -28.552033   1.000000
    4      -28.515253   1.000000
    5      -14.736879   1.000000
    6      -14.549650   1.000000
    7      -14.088729   1.000000
    8       -6.647709   1.000000
    9       -4.172198   1.000000
   10       -2.439644   1.000000
   11       -1.716088   1.000000
   12       -0.641999   1.000000
   13        0.817672   1.000000
   14        1.423380   1.000000
   15        3.288574   0.000019
   16        3.686442   0.000000
   17        4.282139   0.000000
   18        5.936572   0.000000
   19        6.803985   0.000000
   20        7.201910   0.000000
 
  0.4545455E+00  0.3808260E-15  0.3608225E-15  0.2525253E-02
    1      -32.418900   1.000000
    2      -28.686192   1.000000
    3      -28.549775   1.000000
    4      -28.516832   1.000000
    5      -14.812629   1.000000
    6      -14.538221   1.000000
    7      -14.082876   1.000000
    8       -6.321842   1.000000
    9       -4.429155   1.000000
   10       -2.570220   1.000000
   11       -1.732219   1.000000
   12       -0.424733   1.000000
   13        0.747546   1.000000
   14        1.431948   1.000000
   15        3.248118   0.000171
   16        4.014234   0.000000
   17        4.295165   0.000000
   18        5.936625   0.000000
   19        6.425046   0.000000
   20        7.098765   0.000000
 
  0.3745919E-15  0.8333333E-01  0.3781697E-15  0.2525253E-02
    1      -32.447490   1.000000
    2      -28.618940   1.000000
    3      -28.565685   1.000000
    4      -28.500645   1.000000
    5      -14.599763   1.000000
    6      -14.288414   1.000000
    7      -14.194303   1.000000
    8       -7.724452   1.000000
    9       -3.344430   1.000000
   10       -2.420450   1.000000
   11       -1.648444   1.000000
   12       -0.239551   1.000000
   13        0.532565   1.000000
   14        1.017242   1.000000
   15        2.063599   1.000000
   16        3.942526   0.000000
   17        4.876276   0.000000
   18        5.916087   0.000000
   19        6.622460   0.000000
   20        6.886346   0.000000
 
  0.9090909E-01  0.8333333E-01  0.3816392E-15  0.2525253E-02
    1      -32.444657   1.000000
    2      -28.622489   1.000000
    3      -28.564613   1.000000
    4      -28.504799   1.000000
    5      -14.594463   1.000000
    6      -14.334396   1.000000
    7      -14.191355   1.000000
    8       -7.629549   1.000000
    9       -3.393953   1.000000
   10       -2.371836   1.000000
   11       -1.675604   1.000000
   12       -0.563502   1.000000
   13        0.862756   1.000000
   14        1.132785   1.000000
   15        2.108336   1.000000
   16        3.825519   0.000000
   17        4.780070   0.000000
   18        5.972518   0.000000
   19        6.510095   0.000000
   20        7.210980   0.000000
 
  0.1818182E+00  0.8333333E-01  0.3885781E-15  0.2525253E-02
    1      -32.437146   1.000000
    2      -28.634250   1.000000
    3      -28.561683   1.000000
    4      -28.513353   1.000000
    5      -14.579826   1.000000
    6      -14.450897   1.000000
    7      -14.182195   1.000000
    8       -7.367800   1.000000
    9       -3.537126   1.000000
   10       -2.276556   1.000000
   11       -1.720886   1.000000
   12       -0.823617   1.000000
   13        0.817349   1.000000
   14        1.403770   1.000000
   15        2.416539   1.000000
   16        3.660561   0.000000
   17        4.739641   0.000000
   18        6.071524   0.000000
   19        6.452631   0.000000
   20        7.466665   0.000000
 
  0.2727273E+00  0.8333333E-01  0.3885781E-15  0.2525253E-02
    1      -32.427329   1.000000
    2      -28.653444   1.000000
    3      -28.558173   1.000000
    4      -28.520854   1.000000
    5      -14.599204   1.000000
    6      -14.557960   1.000000
    7      -14.169756   1.000000
    8       -6.989555   1.000000
    9       -3.772733   1.000000
   10       -2.323700   1.000000
   11       -1.730722   1.000000
   12       -0.846762   1.000000
   13        0.737747   1.000000
   14        1.453741   1.000000
   15        2.832044   1.049377
   16        3.616465   0.000000
   17        4.701218   0.000000
   18        6.022607   0.000000
   19        6.531928   0.000000
   20        7.417966   0.000000
 
  0.3636364E+00  0.8333333E-01  0.4163336E-15  0.2525253E-02
    1      -32.418309   1.000000
    2      -28.673815   1.000000
    3      -28.555070   1.000000
    4      -28.524858   1.000000
    5      -14.726898   1.000000
    6      -14.540329   1.000000
    7      -14.157899   1.000000
    8       -6.574345   1.000000
    9       -4.072159   1.000000
   10       -2.455131   1.000000
   11       -1.739610   1.000000
   12       -0.689997   1.000000
   13        0.666982   1.000000
   14        1.371008   1.000000
   15        3.126240   0.004375
   16        3.869344   0.000000
   17        4.493820   0.000000
   18        6.054832   0.000000
   19        6.515817   0.000000
   20        7.207882   0.000000
 
  0.4545455E+00  0.8333333E-01  0.4163336E-15  0.2525253E-02
    1      -32.412968   1.000000
    2      -28.686811   1.000000
    3      -28.553089   1.000000
    4      -28.526091   1.000000
    5      -14.800564   1.000000
    6      -14.528845   1.000000
    7      -14.149947   1.000000
    8       -6.263076   1.000000
    9       -4.316751   1.000000
   10       -2.540544   1.000000
   11       -1.746757   1.000000
   12       -0.499337   1.000000
   13        0.550524   1.000000
   14        1.248810   1.000000
   15        3.272968   0.000046
   16        4.244002   0.000000
   17        4.345709   0.000000
   18        6.053583   0.000000
   19        6.382096   0.000000
   20        6.992436   0.000000
 
 -0.4545455E+00  0.8333333E-01  0.3608225E-15  0.2525253E-02
    1      -32.413029   1.000000
    2      -28.687139   1.000000
    3      -28.552945   1.000000
    4      -28.525764   1.000000
    5      -14.799480   1.000000
    6      -14.528682   1.000000
    7      -14.148691   1.000000
    8       -6.269612   1.000000
    9       -4.318733   1.000000
   10       -2.511142   1.000000
   11       -1.716426   1.000000
   12       -0.483925   1.000000
   13        0.465406   1.000000
   14        1.144226   1.000000
   15        3.337466   0.000001
   16        4.188293   0.000000
   17        4.435739   0.000000
   18        5.951338   0.000000
   19        6.582836   0.000000
   20        6.957799   0.000000
 
 -0.3636364E+00  0.8333333E-01  0.3469447E-15  0.2525253E-02
    1      -32.418471   1.000000
    2      -28.674575   1.000000
    3      -28.554610   1.000000
    4      -28.523942   1.000000
    5      -14.723722   1.000000
    6      -14.539795   1.000000
    7      -14.154538   1.000000
    8       -6.589201   1.000000
    9       -4.078268   1.000000
   10       -2.345527   1.000000
   11       -1.672058   1.000000
   12       -0.697260   1.000000
   13        0.458790   1.000000
   14        1.106527   1.000000
   15        3.265871   0.000068
   16        3.943540   0.000000
   17        4.554908   0.000000
   18        5.975922   0.000000
   19        6.773459   0.000000
   20        7.135798   0.000000
 
 -0.2727273E+00  0.8333333E-01  0.3469447E-15  0.2525253E-02
    1      -32.427544   1.000000
    2      -28.654633   1.000000
    3      -28.557814   1.000000
    4      -28.519513   1.000000
    5      -14.594933   1.000000
    6      -14.557283   1.000000
    7      -14.165601   1.000000
    8       -7.010280   1.000000
    9       -3.786224   1.000000
   10       -2.105697   1.000000
   11       -1.691216   1.000000
   12       -0.903406   1.000000
   13        0.465324   1.000000
   14        1.109361   1.000000
   15        2.990663   0.039264
   16        3.804511   0.000000
   17        4.758918   0.000000
   18        6.060416   0.000000
   19        6.666621   0.000000
   20        7.180953   0.000000
 
 -0.1818182E+00  0.8333333E-01  0.3608225E-15  0.2525253E-02
    1      -32.437346   1.000000
    2      -28.635762   1.000000
    3      -28.561577   1.000000
    4      -28.511994   1.000000
    5      -14.579242   1.000000
    6      -14.446974   1.000000
    7      -14.178484   1.000000
    8       -7.388659   1.000000
    9       -3.550970   1.000000
   10       -2.095647   1.000000
   11       -1.672690   1.000000
   12       -0.843728   1.000000
   13        0.508687   1.000000
   14        1.061704   1.000000
   15        2.608028   0.999929
   16        3.853422   0.000000
   17        4.809702   0.000000
   18        6.312426   0.000000
   19        6.379291   0.000000
   20        7.066258   0.000000
 
 -0.9090909E-01  0.8333333E-01  0.3712308E-15  0.2525253E-02
    1      -32.444770   1.000000
    2      -28.623292   1.000000
    3      -28.564615   1.000000
    4      -28.503965   1.000000
    5      -14.594108   1.000000
    6      -14.331786   1.000000
    7      -14.189167   1.000000
    8       -7.640216   1.000000
    9       -3.399902   1.000000
   10       -2.308309   1.000000
   11       -1.628795   1.000000
   12       -0.462529   1.000000
   13        0.486993   1.000000
   14        1.007011   1.000000
   15        2.247021   1.000000
   16        3.944747   0.000000
   17        4.854533   0.000000
   18        6.072812   0.000000
   19        6.608702   0.000000
   20        6.825685   0.000000
 
  0.3751340E-15  0.1666667E+00  0.3747003E-15  0.2525253E-02
    1      -32.430731   1.000000
    2      -28.647733   1.000000
    3      -28.565738   1.000000
    4      -28.508695   1.000000
    5      -14.572086   1.000000
    6      -14.387606   1.000000
    7      -14.269729   1.000000
    8       -7.457074   1.000000
    9       -3.201203   1.000000
   10       -2.311944   1.000000
   11       -1.594395   1.000000
   12       -0.397709   1.000000
   13        0.392006   1.000000
   14        0.792555   1.000000
   15        1.798141   1.000000
   16        4.220153   0.000000
   17        5.275652   0.000000
   18        5.599217   0.000000
   19        6.777025   0.000000
   20        7.019077   0.000000
 
  0.9090909E-01  0.1666667E+00  0.3747003E-15  0.2525253E-02
    1      -32.427900   1.000000
    2      -28.649124   1.000000
    3      -28.566119   1.000000
    4      -28.513774   1.000000
    5      -14.567139   1.000000
    6      -14.386315   1.000000
    7      -14.312947   1.000000
    8       -7.361705   1.000000
    9       -3.231272   1.000000
   10       -2.334408   1.000000
   11       -1.628141   1.000000
   12       -0.611239   1.000000
   13        0.419771   1.000000
   14        1.185935   1.000000
   15        1.802993   1.000000
   16        4.106178   0.000000
   17        5.116489   0.000000
   18        5.692317   0.000000
   19        6.887202   0.000000
   20        7.142461   0.000000
 
  0.1818182E+00  0.1666667E+00  0.3885781E-15  0.2525253E-02
    1      -32.420490   1.000000
    2      -28.655035   1.000000
    3      -28.567689   1.000000
    4      -28.523465   1.000000
    5      -14.552991   1.000000
    6      -14.433232   1.000000
    7      -14.366794   1.000000
    8       -7.110453   1.000000
    9       -3.333690   1.000000
   10       -2.323580   1.000000
   11       -1.678115   1.000000
   12       -0.794153   1.000000
   13        0.312718   1.000000
   14        1.284099   1.000000
   15        2.235879   1.000000
   16        4.020184   0.000000
   17        5.033499   0.000000
   18        5.858890   0.000000
   19        6.813747   0.000000
   20        7.210376   0.000000
 
  0.2727273E+00  0.1666667E+00  0.3608225E-15  0.2525253E-02
    1      -32.410825   1.000000
    2      -28.666913   1.000000
    3      -28.571811   1.000000
    4      -28.529940   1.000000
    5      -14.573202   1.000000
    6      -14.531265   1.000000
    7      -14.353442   1.000000
    8       -6.754688   1.000000
    9       -3.526370   1.000000
   10       -2.361985   1.000000
   11       -1.706362   1.000000
   12       -0.896987   1.000000
   13        0.275216   1.000000
   14        1.150315   1.000000
   15        2.719146   0.995613
   16        4.033803   0.000000
   17        5.075791   0.000000
   18        5.877258   0.000000
   19        6.689241   0.000000
   20        6.985399   0.000000
 
  0.3636364E+00  0.1666667E+00  0.4163336E-15  0.2525253E-02
    1      -32.401968   1.000000
    2      -28.681939   1.000000
    3      -28.575536   1.000000
    4      -28.531517   1.000000
    5      -14.695295   1.000000
    6      -14.514073   1.000000
    7      -14.337601   1.000000
    8       -6.371993   1.000000
    9       -3.786058   1.000000
   10       -2.411142   1.000000
   11       -1.753319   1.000000
   12       -0.857966   1.000000
   13        0.231227   1.000000
   14        0.925814   1.000000
   15        3.143997   0.004853
   16        4.188626   0.000000
   17        5.021474   0.000000
   18        5.762155   0.000000
   19        6.672256   0.000000
   20        6.979640   0.000000
 
  0.4545455E+00  0.1666667E+00  0.4163336E-15  0.2525253E-02
    1      -32.396759   1.000000
    2      -28.692877   1.000000
    3      -28.577085   1.000000
    4      -28.531297   1.000000
    5      -14.766145   1.000000
    6      -14.502841   1.000000
    7      -14.326860   1.000000
    8       -6.104522   1.000000
    9       -3.995756   1.000000
   10       -2.439229   1.000000
   11       -1.779733   1.000000
   12       -0.690534   1.000000
   13        0.056584   1.000000
   14        0.706958   1.000000
   15        3.467885   0.000000
   16        4.403880   0.000000
   17        4.892327   0.000000
   18        5.703753   0.000000
   19        6.605623   0.000000
   20        7.036530   0.000000
 
 -0.4545455E+00  0.1666667E+00  0.3608225E-15  0.2525253E-02
    1      -32.396864   1.000000
    2      -28.693477   1.000000
    3      -28.576269   1.000000
    4      -28.531126   1.000000
    5      -14.764381   1.000000
    6      -14.502588   1.000000
    7      -14.324533   1.000000
    8       -6.113212   1.000000
    9       -3.999898   1.000000
   10       -2.387847   1.000000
   11       -1.708540   1.000000
   12       -0.641109   1.000000
   13       -0.117485   1.000000
   14        0.569557   1.000000
   15        3.571356   0.000000
   16        4.363006   0.000000
   17        4.932277   0.000000
   18        5.778280   0.000000
   19        6.548327   0.000000
   20        7.220418   0.000000
 
 -0.3636364E+00  0.1666667E+00  0.3747003E-15  0.2525253E-02
    1      -32.402255   1.000000
    2      -28.683958   1.000000
    3      -28.573537   1.000000
    4      -28.531073   1.000000
    5      -14.690980   1.000000
    6      -14.513280   1.000000
    7      -14.331430   1.000000
    8       -6.403581   1.000000
    9       -3.803407   1.000000
   10       -2.200638   1.000000
   11       -1.598776   1.000000
   12       -0.858923   1.000000
   13       -0.174782   1.000000
   14        0.577985   1.000000
   15        3.416817   0.000000
   16        4.175173   0.000000
   17        5.097900   0.000000
   18        5.854107   0.000000
   19        6.618100   0.000000
   20        7.290034   0.000000
 
 -0.2727273E+00  0.1666667E+00  0.3608225E-15  0.2525253E-02
    1      -32.411198   1.000000
    2      -28.669494   1.000000
    3      -28.569496   1.000000
    4      -28.528880   1.000000
    5      -14.567560   1.000000
    6      -14.529977   1.000000
    7      -14.345003   1.000000
    8       -6.793083   1.000000
    9       -3.562963   1.000000
   10       -1.901188   1.000000
   11       -1.632137   1.000000
   12       -0.988098   1.000000
   13       -0.239210   1.000000
   14        0.672354   1.000000
   15        3.092211  -0.007090
   16        4.106617   0.000000
   17        5.235817   0.000000
   18        5.857232   0.000000
   19        6.558694   0.000000
   20        7.122062   0.000000
 
 -0.1818182E+00  0.1666667E+00  0.3538836E-15  0.2525253E-02
    1      -32.420829   1.000000
    2      -28.657313   1.000000
    3      -28.566520   1.000000
    4      -28.521695   1.000000
    5      -14.552068   1.000000
    6      -14.429304   1.000000
    7      -14.357061   1.000000
    8       -7.146019   1.000000
    9       -3.369269   1.000000
   10       -1.940112   1.000000
   11       -1.561012   1.000000
   12       -0.868667   1.000000
   13       -0.164817   1.000000
   14        0.719636   1.000000
   15        2.628914   0.999792
   16        4.208934   0.000000
   17        5.203204   0.000000
   18        5.829455   0.000000
   19        6.531531   0.000000
   20        7.089701   0.000000
 
 -0.9090909E-01  0.1666667E+00  0.3773566E-15  0.2525253E-02
    1      -32.428101   1.000000
    2      -28.650380   1.000000
    3      -28.565609   1.000000
    4      -28.512577   1.000000
    5      -14.566458   1.000000
    6      -14.383761   1.000000
    7      -14.307158   1.000000
    8       -7.382899   1.000000
    9       -3.247415   1.000000
   10       -2.176666   1.000000
   11       -1.544984   1.000000
   12       -0.491202   1.000000
   13        0.025171   1.000000
   14        0.728569   1.000000
   15        2.123692   1.000000
   16        4.291718   0.000000
   17        5.243711   0.000000
   18        5.669535   0.000000
   19        6.630857   0.000000
   20        7.117427   0.000000
 
  0.3738329E-15  0.2500000E+00  0.3885781E-15  0.2525253E-02
    1      -32.407690   1.000000
    2      -28.700352   1.000000
    3      -28.561647   1.000000
    4      -28.509791   1.000000
    5      -14.641653   1.000000
    6      -14.530556   1.000000
    7      -14.243989   1.000000
    8       -7.048702   1.000000
    9       -3.021220   1.000000
   10       -2.403156   1.000000
   11       -1.462018   1.000000
   12       -0.577790   1.000000
   13       -0.018249   1.000000
   14        0.960009   1.000000
   15        1.603901   1.000000
   16        4.332805   0.000000
   17        5.304231   0.000000
   18        5.809037   0.000000
   19        6.759498   0.000000
   20        7.077958   0.000000
 
  0.9090909E-01  0.2500000E+00  0.3747003E-15  0.2525253E-02
    1      -32.404900   1.000000
    2      -28.700243   1.000000
    3      -28.563296   1.000000
    4      -28.514589   1.000000
    5      -14.637406   1.000000
    6      -14.525457   1.000000
    7      -14.286726   1.000000
    8       -6.955395   1.000000
    9       -3.018329   1.000000
   10       -2.459247   1.000000
   11       -1.545475   1.000000
   12       -0.646567   1.000000
   13       -0.000706   1.000000
   14        1.109102   1.000000
   15        1.723616   1.000000
   16        4.247362   0.000000
   17        5.322839   0.000000
   18        5.721169   0.000000
   19        6.856784   0.000000
   20        7.225582   0.000000
 
  0.1818182E+00  0.2500000E+00  0.4024558E-15  0.2525253E-02
    1      -32.397650   1.000000
    2      -28.701588   1.000000
    3      -28.570392   1.000000
    4      -28.523115   1.000000
    5      -14.622777   1.000000
    6      -14.511196   1.000000
    7      -14.393567   1.000000
    8       -6.726254   1.000000
    9       -3.057807   1.000000
   10       -2.465289   1.000000
   11       -1.642602   1.000000
   12       -0.815167   1.000000
   13       -0.092019   1.000000
   14        0.938264   1.000000
   15        2.272983   1.000000
   16        4.277283   0.000000
   17        5.184160   0.000000
   18        5.876823   0.000000
   19        6.719572   0.000000
   20        7.051523   0.000000
 
  0.2727273E+00  0.2500000E+00  0.4163336E-15  0.2525253E-02
    1      -32.388210   1.000000
    2      -28.705435   1.000000
    3      -28.584619   1.000000
    4      -28.527126   1.000000
    5      -14.603220   1.000000
    6      -14.528071   1.000000
    7      -14.490045   1.000000
    8       -6.409861   1.000000
    9       -3.184381   1.000000
   10       -2.436818   1.000000
   11       -1.687893   1.000000
   12       -1.073389   1.000000
   13       -0.128324   1.000000
   14        0.687688   1.000000
   15        2.796128   1.018632
   16        4.355424   0.000000
   17        5.137912   0.000000
   18        6.051019   0.000000
   19        6.498010   0.000000
   20        7.141270   0.000000
 
  0.3636364E+00  0.2500000E+00  0.3608225E-15  0.2525253E-02
    1      -32.379572   1.000000
    2      -28.711795   1.000000
    3      -28.598328   1.000000
    4      -28.527004   1.000000
    5      -14.651266   1.000000
    6      -14.576433   1.000000
    7      -14.472777   1.000000
    8       -6.083824   1.000000
    9       -3.372649   1.000000
   10       -2.370273   1.000000
   11       -1.784128   1.000000
   12       -1.146100   1.000000
   13       -0.229928   1.000000
   14        0.387845   1.000000
   15        3.297926   0.000011
   16        4.448102   0.000000
   17        5.133685   0.000000
   18        5.994713   0.000000
   19        6.511635   0.000000
   20        7.166463   0.000000
 
  0.4545455E+00  0.2500000E+00  0.3608225E-15  0.2525253E-02
    1      -32.374501   1.000000
    2      -28.717515   1.000000
    3      -28.605194   1.000000
    4      -28.526198   1.000000
    5      -14.718102   1.000000
    6      -14.563171   1.000000
    7      -14.461840   1.000000
    8       -5.869652   1.000000
    9       -3.514951   1.000000
   10       -2.314537   1.000000
   11       -1.875633   1.000000
   12       -0.963384   1.000000
   13       -0.475801   1.000000
   14        0.118490   1.000000
   15        3.728023   0.000000
   16        4.497364   0.000000
   17        5.138963   0.000000
   18        5.907539   0.000000
   19        6.453849   0.000000
   20        7.280981   0.000000
 
 -0.4545455E+00  0.2500000E+00  0.4024558E-15  0.2525253E-02
    1      -32.374629   1.000000
    2      -28.718311   1.000000
    3      -28.604073   1.000000
    4      -28.526086   1.000000
    5      -14.717864   1.000000
    6      -14.558731   1.000000
    7      -14.461642   1.000000
    8       -5.884622   1.000000
    9       -3.517335   1.000000
   10       -2.263615   1.000000
   11       -1.756233   1.000000
   12       -0.888428   1.000000
   13       -0.696105   1.000000
   14       -0.017726   1.000000
   15        3.842591   0.000000
   16        4.457795   0.000000
   17        5.178521   0.000000
   18        5.935086   0.000000
   19        6.512306   0.000000
   20        7.244249   0.000000
 
 -0.3636364E+00  0.2500000E+00  0.3608225E-15  0.2525253E-02
    1      -32.379908   1.000000
    2      -28.713896   1.000000
    3      -28.595634   1.000000
    4      -28.526964   1.000000
    5      -14.654493   1.000000
    6      -14.560633   1.000000
    7      -14.472492   1.000000
    8       -6.123078   1.000000
    9       -3.395649   1.000000
   10       -2.077306   1.000000
   11       -1.521996   1.000000
   12       -1.254554   1.000000
   13       -0.667519   1.000000
   14        0.066437   1.000000
   15        3.614337   0.000000
   16        4.353945   0.000000
   17        5.222024   0.000000
   18        6.006773   0.000000
   19        6.639576   0.000000
   20        7.133641   0.000000
 
 -0.2727273E+00  0.2500000E+00  0.3747003E-15  0.2525253E-02
    1      -32.388641   1.000000
    2      -28.707894   1.000000
    3      -28.581781   1.000000
    4      -28.526619   1.000000
    5      -14.605899   1.000000
    6      -14.508280   1.000000
    7      -14.489816   1.000000
    8       -6.459154   1.000000
    9       -3.245103   1.000000
   10       -1.808916   1.000000
   11       -1.586990   1.000000
   12       -1.189900   1.000000
   13       -0.758554   1.000000
   14        0.273050   1.000000
   15        3.199932   0.001336
   16        4.367064   0.000000
   17        5.183516   0.000000
   18        6.030106   0.000000
   19        6.379874   0.000000
   20        7.058963   0.000000
 
 -0.1818182E+00  0.2500000E+00  0.3642919E-15  0.2525253E-02
    1      -32.398044   1.000000
    2      -28.703537   1.000000
    3      -28.568924   1.000000
    4      -28.522144   1.000000
    5      -14.618624   1.000000
    6      -14.510165   1.000000
    7      -14.382703   1.000000
    8       -6.774372   1.000000
    9       -3.124680   1.000000
   10       -2.035124   1.000000
   11       -1.328322   1.000000
   12       -0.978301   1.000000
   13       -0.692450   1.000000
   14        0.468801   1.000000
   15        2.641442   0.999627
   16        4.578531   0.000000
   17        5.052558   0.000000
   18        5.826828   0.000000
   19        6.363975   0.000000
   20        7.064483   0.000000
 
 -0.9090909E-01  0.2500000E+00  0.3816392E-15  0.2525253E-02
    1      -32.405132   1.000000
    2      -28.701237   1.000000
    3      -28.562813   1.000000
    4      -28.513705   1.000000
    5      -14.634152   1.000000
    6      -14.524797   1.000000
    7      -14.280849   1.000000
    8       -6.982637   1.000000
    9       -3.051934   1.000000
   10       -2.262556   1.000000
   11       -1.371553   1.000000
   12       -0.645445   1.000000
   13       -0.380774   1.000000
   14        0.670041   1.000000
   15        2.044364   1.000000
   16        4.514229   0.000000
   17        5.218335   0.000000
   18        5.738211   0.000000
   19        6.501748   0.000000
   20        7.220404   0.000000
 
  0.3764350E-15  0.3333333E+00  0.4024558E-15  0.2525253E-02
    1      -32.384476   1.000000
    2      -28.758406   1.000000
    3      -28.555597   1.000000
    4      -28.506554   1.000000
    5      -14.878948   1.000000
    6      -14.492220   1.000000
    7      -14.217990   1.000000
    8       -6.555563   1.000000
    9       -3.008560   1.000000
   10       -2.595304   1.000000
   11       -1.450309   1.000000
   12       -0.639756   1.000000
   13       -0.184563   1.000000
   14        1.100267   1.000000
   15        1.586970   1.000000
   16        4.360599   0.000000
   17        5.204803   0.000000
   18        5.993844   0.000000
   19        6.555152   0.000000
   20        6.911087   0.000000
 
  0.9090909E-01  0.3333333E+00  0.3885781E-15  0.2525253E-02
    1      -32.381770   1.000000
    2      -28.758038   1.000000
    3      -28.557938   1.000000
    4      -28.511006   1.000000
    5      -14.873027   1.000000
    6      -14.487316   1.000000
    7      -14.258544   1.000000
    8       -6.473843   1.000000
    9       -3.008787   1.000000
   10       -2.594141   1.000000
   11       -1.563782   1.000000
   12       -0.738127   1.000000
   13       -0.080116   1.000000
   14        0.938065   1.000000
   15        1.846980   1.000000
   16        4.311172   0.000000
   17        5.318386   0.000000
   18        5.851896   0.000000
   19        6.530309   0.000000
   20        6.939094   0.000000
 
  0.1818182E+00  0.3333333E+00  0.3885781E-15  0.2525253E-02
    1      -32.374699   1.000000
    2      -28.757571   1.000000
    3      -28.567542   1.000000