   8   8   1   0
  0.8265089E+01  0.3433238E-09  0.3434397E-09  0.7414656E-09  0.5000000E-15
  1.000000000000000E-004
  CAR 
 unknown system                          
     23.58070639    -35.00265737  301      3.46805868      1.00000000
    -35.003  0.0000E+00  0.0000E+00  0.0000E+00  0.0000E+00
    -34.807  0.0000E+00  0.0000E+00  0.0000E+00  0.0000E+00
    -34.612  0.0000E+00  0.0000E+00  0.0000E+00  0.0000E+00
    -34.417  0.0000E+00  0.0000E+00  0.0000E+00  0.0000E+00
    -34.222  0.0000E+00  0.0000E+00  0.0000E+00  0.0000E+00
    -34.026  0.0000E+00  0.0000E+00  0.0000E+00  0.0000E+00
    -33.831  0.0000E+00  0.0000E+00  0.0000E+00  0.0000E+00
    -33.636  0.0000E+00  0.0000E+00  0.0000E+00  0.0000E+00
    -33.440  0.0000E+00  0.0000E+00  0.0000E+00  0.0000E+00
    -33.245  0.0000E+00  0.0000E+00  0.0000E+00  0.0000E+00
    -33.050  0.0000E+00  0.0000E+00  0.0000E+00  0.0000E+00
    -32.855  0.0000E+00  0.0000E+00  0.0000E+00  0.0000E+00
    -32.659  0.0000E+00  0.0000E+00  0.0000E+00  0.0000E+00
    -32.464  0.0000E+00  0.0000E+00  0.0000E+00  0.0000E+00
    -32.269  0.1071E+00  0.1071E+00  0.6766E-02  0.6766E-02
    -32.073  0.0000E+00  0.0000E+00  0.1010E-01  0.1010E-01
    -31.878  0.0000E+00  0.0000E+00  0.1010E-01  0.1010E-01
    -31.683  0.0000E+00  0.0000E+00  0.1010E-01  0.1010E-01
    -31.488  0.0000E+00  0.0000E+00  0.1010E-01  0.1010E-01
    -31.292  0.0000E+00  0.0000E+00  0.1010E-01  0.1010E-01
    -31.097  0.0000E+00  0.0000E+00  0.1010E-01  0.1010E-01
    -30.902  0.0000E+00  0.0000E+00  0.1010E-01  0.1010E-01
    -30.707  0.0000E+00  0.0000E+00  0.1010E-01  0.1010E-01
    -30.511  0.0000E+00  0.0000E+00  0.1010E-01  0.1010E-01
    -30.316  0.0000E+00  0.0000E+00  0.1010E-01  0.1010E-01
    -30.121  0.0000E+00  0.0000E+00  0.1010E-01  0.1010E-01
    -29.925  0.0000E+00  0.0000E+00  0.1010E-01  0.1010E-01
    -29.730  0.0000E+00  0.0000E+00  0.1010E-01  0.1010E-01
    -29.535  0.0000E+00  0.0000E+00  0.1010E-01  0.1010E-01
    -29.340  0.0000E+00  0.0000E+00  0.1010E-01  0.1010E-01
    -29.144  0.0000E+00  0.0000E+00  0.1010E-01  0.1010E-01
    -28.949  0.0000E+00  0.0000E+00  0.1010E-01  0.1010E-01
    -28.754  0.0000E+00  0.0000E+00  0.1010E-01  0.1010E-01
    -28.558  0.0000E+00  0.0000E+00  0.1010E-01  0.1010E-01
    -28.363  0.0000E+00  0.0000E+00  0.1010E-01  0.1010E-01
    -28.168  0.0000E+00  0.0000E+00  0.1010E-01  0.1010E-01
    -27.973  0.8090E-01  0.8090E-01  0.1837E-01  0.1837E-01
    -27.777  0.0000E+00  0.0000E+00  0.4040E-01  0.4040E-01
    -27.582  0.0000E+00  0.0000E+00  0.4040E-01  0.4040E-01
    -27.387  0.0000E+00  0.0000E+00  0.4040E-01  0.4040E-01
    -27.192  0.0000E+00  0.0000E+00  0.4040E-01  0.4040E-01
    -26.996  0.0000E+00  0.0000E+00  0.4040E-01  0.4040E-01
    -26.801  0.0000E+00  0.0000E+00  0.4040E-01  0.4040E-01
    -26.606  0.0000E+00  0.0000E+00  0.4040E-01  0.4040E-01
    -26.410  0.0000E+00  0.0000E+00  0.4040E-01  0.4040E-01
    -26.215  0.0000E+00  0.0000E+00  0.4040E-01  0.4040E-01
    -26.020  0.0000E+00  0.0000E+00  0.4040E-01  0.4040E-01
    -25.825  0.0000E+00  0.0000E+00  0.4040E-01  0.4040E-01
    -25.629  0.0000E+00  0.0000E+00  0.4040E-01  0.4040E-01
    -25.434  0.0000E+00  0.0000E+00  0.4040E-01  0.4040E-01
    -25.239  0.0000E+00  0.0000E+00  0.4040E-01  0.4040E-01
    -25.043  0.0000E+00  0.0000E+00  0.4040E-01  0.4040E-01
    -24.848  0.0000E+00  0.0000E+00  0.4040E-01  0.4040E-01
    -24.653  0.0000E+00  0.0000E+00  0.4040E-01  0.4040E-01
    -24.458  0.0000E+00  0.0000E+00  0.4040E-01  0.4040E-01
    -24.262  0.0000E+00  0.0000E+00  0.4040E-01  0.4040E-01
    -24.067  0.0000E+00  0.0000E+00  0.4040E-01  0.4040E-01
    -23.872  0.0000E+00  0.0000E+00  0.4040E-01  0.4040E-01
    -23.677  0.0000E+00  0.0000E+00  0.4040E-01  0.4040E-01
    -23.481  0.0000E+00  0.0000E+00  0.4040E-01  0.4040E-01
    -23.286  0.0000E+00  0.0000E+00  0.4040E-01  0.4040E-01
    -23.091  0.0000E+00  0.0000E+00  0.4040E-01  0.4040E-01
    -22.895  0.0000E+00  0.0000E+00  0.4040E-01  0.4040E-01
    -22.700  0.0000E+00  0.0000E+00  0.4040E-01  0.4040E-01
    -22.505  0.0000E+00  0.0000E+00  0.4040E-01  0.4040E-01
    -22.310  0.0000E+00  0.0000E+00  0.4040E-01  0.4040E-01
    -22.114  0.0000E+00  0.0000E+00  0.4040E-01  0.4040E-01
    -21.919  0.0000E+00  0.0000E+00  0.4040E-01  0.4040E-01
    -21.724  0.0000E+00  0.0000E+00  0.4040E-01  0.4040E-01
    -21.528  0.0000E+00  0.0000E+00  0.4040E-01  0.4040E-01
    -21.333  0.0000E+00  0.0000E+00  0.4040E-01  0.4040E-01
    -21.138  0.0000E+00  0.0000E+00  0.4040E-01  0.4040E-01
    -20.943  0.0000E+00  0.0000E+00  0.4040E-01  0.4040E-01
    -20.747  0.0000E+00  0.0000E+00  0.4040E-01  0.4040E-01
    -20.552  0.0000E+00  0.0000E+00  0.4040E-01  0.4040E-01
    -20.357  0.0000E+00  0.0000E+00  0.4040E-01  0.4040E-01
    -20.162  0.0000E+00  0.0000E+00  0.4040E-01  0.4040E-01
    -19.966  0.0000E+00  0.0000E+00  0.4040E-01  0.4040E-01
    -19.771  0.0000E+00  0.0000E+00  0.4040E-01  0.4040E-01
    -19.576  0.0000E+00  0.0000E+00  0.4040E-01  0.4040E-01
    -19.380  0.0000E+00  0.0000E+00  0.4040E-01  0.4040E-01
    -19.185  0.0000E+00  0.0000E+00  0.4040E-01  0.4040E-01
    -18.990  0.0000E+00  0.0000E+00  0.4040E-01  0.4040E-01
    -18.795  0.0000E+00  0.0000E+00  0.4040E-01  0.4040E-01
    -18.599  0.0000E+00  0.0000E+00  0.4040E-01  0.4040E-01
    -18.404  0.0000E+00  0.0000E+00  0.4040E-01  0.4040E-01
    -18.209  0.0000E+00  0.0000E+00  0.4040E-01  0.4040E-01
    -18.013  0.0000E+00  0.0000E+00  0.4040E-01  0.4040E-01
    -17.818  0.0000E+00  0.0000E+00  0.4040E-01  0.4040E-01
    -17.623  0.0000E+00  0.0000E+00  0.4040E-01  0.4040E-01
    -17.428  0.0000E+00  0.0000E+00  0.4040E-01  0.4040E-01
    -17.232  0.0000E+00  0.0000E+00  0.4040E-01  0.4040E-01
    -17.037  0.0000E+00  0.0000E+00  0.4040E-01  0.4040E-01
    -16.842  0.0000E+00  0.0000E+00  0.4040E-01  0.4040E-01
    -16.647  0.0000E+00  0.0000E+00  0.4040E-01  0.4040E-01
    -16.451  0.0000E+00  0.0000E+00  0.4040E-01  0.4040E-01
    -16.256  0.0000E+00  0.0000E+00  0.4040E-01  0.4040E-01
    -16.061  0.0000E+00  0.0000E+00  0.4040E-01  0.4040E-01
    -15.865  0.0000E+00  0.0000E+00  0.4040E-01  0.4040E-01
    -15.670  0.0000E+00  0.0000E+00  0.4040E-01  0.4040E-01
    -15.475  0.0000E+00  0.0000E+00  0.4040E-01  0.4040E-01
    -15.280  0.0000E+00  0.0000E+00  0.4040E-01  0.4040E-01
    -15.084  0.0000E+00  0.0000E+00  0.4040E-01  0.4040E-01
    -14.889  0.0000E+00  0.0000E+00  0.4040E-01  0.4040E-01
    -14.694  0.3374E-01  0.3374E-01  0.4551E-01  0.4551E-01
    -14.498  0.2408E-01  0.2407E-01  0.5004E-01  0.5004E-01
    -14.303  0.6792E-01  0.6792E-01  0.5588E-01  0.5588E-01
    -14.108  0.2440E-01  0.2440E-01  0.7021E-01  0.7021E-01
    -13.913  0.0000E+00  0.0000E+00  0.7071E-01  0.7071E-01
    -13.717  0.0000E+00  0.0000E+00  0.7071E-01  0.7071E-01
    -13.522  0.0000E+00  0.0000E+00  0.7071E-01  0.7071E-01
    -13.327  0.0000E+00  0.0000E+00  0.7071E-01  0.7071E-01
    -13.132  0.0000E+00  0.0000E+00  0.7071E-01  0.7071E-01
    -12.936  0.0000E+00  0.0000E+00  0.7071E-01  0.7071E-01
    -12.741  0.0000E+00  0.0000E+00  0.7071E-01  0.7071E-01
    -12.546  0.0000E+00  0.0000E+00  0.7071E-01  0.7071E-01
    -12.350  0.0000E+00  0.0000E+00  0.7071E-01  0.7071E-01
    -12.155  0.0000E+00  0.0000E+00  0.7071E-01  0.7071E-01
    -11.960  0.0000E+00  0.0000E+00  0.7071E-01  0.7071E-01
    -11.765  0.0000E+00  0.0000E+00  0.7071E-01  0.7071E-01
    -11.569  0.0000E+00  0.0000E+00  0.7071E-01  0.7071E-01
    -11.374  0.0000E+00  0.0000E+00  0.7071E-01  0.7071E-01
    -11.179  0.0000E+00  0.0000E+00  0.7071E-01  0.7071E-01
    -10.983  0.0000E+00  0.0000E+00  0.7071E-01  0.7071E-01
    -10.788  0.0000E+00  0.0000E+00  0.7071E-01  0.7071E-01
    -10.593  0.0000E+00  0.0000E+00  0.7071E-01  0.7071E-01
    -10.398  0.0000E+00  0.0000E+00  0.7071E-01  0.7071E-01
    -10.202  0.0000E+00  0.0000E+00  0.7071E-01  0.7071E-01
    -10.007  0.0000E+00  0.0000E+00  0.7071E-01  0.7071E-01
     -9.812  0.0000E+00  0.0000E+00  0.7071E-01  0.7071E-01
     -9.617  0.0000E+00  0.0000E+00  0.7071E-01  0.7071E-01
     -9.421  0.0000E+00  0.0000E+00  0.7071E-01  0.7071E-01
     -9.226  0.0000E+00  0.0000E+00  0.7071E-01  0.7071E-01
     -9.031  0.0000E+00  0.0000E+00  0.7071E-01  0.7071E-01
     -8.835  0.0000E+00  0.0000E+00  0.7071E-01  0.7071E-01
     -8.640  0.0000E+00  0.0000E+00  0.7071E-01  0.7071E-01
     -8.445  0.0000E+00  0.0000E+00  0.7071E-01  0.7071E-01
     -8.250  0.0000E+00  0.0000E+00  0.7071E-01  0.7071E-01
     -8.054  0.0000E+00  0.0000E+00  0.7071E-01  0.7071E-01
     -7.859  0.0000E+00  0.0000E+00  0.7071E-01  0.7071E-01
     -7.664  0.0000E+00  0.0000E+00  0.7071E-01  0.7071E-01
     -7.468  0.0000E+00  0.0000E+00  0.7071E-01  0.7071E-01
     -7.273  0.0000E+00  0.0000E+00  0.7071E-01  0.7071E-01
     -7.078  0.0000E+00  0.0000E+00  0.7071E-01  0.7071E-01
     -6.883  0.0000E+00  0.0000E+00  0.7071E-01  0.7071E-01
     -6.687  0.0000E+00  0.0000E+00  0.7071E-01  0.7071E-01
     -6.492  0.0000E+00  0.0000E+00  0.7071E-01  0.7071E-01
     -6.297  0.0000E+00  0.0000E+00  0.7071E-01  0.7071E-01
     -6.102  0.0000E+00  0.0000E+00  0.7071E-01  0.7071E-01
     -5.906  0.2672E-07  0.2674E-07  0.7071E-01  0.7071E-01
     -5.711  0.2581E-03  0.2581E-03  0.7072E-01  0.7072E-01
     -5.516  0.1169E-02  0.1169E-02  0.7085E-01  0.7085E-01
     -5.320  0.1384E-02  0.1384E-02  0.7109E-01  0.7109E-01
     -5.125  0.1957E-02  0.1957E-02  0.7141E-01  0.7141E-01
     -4.930  0.2570E-02  0.2570E-02  0.7186E-01  0.7186E-01
     -4.735  0.3420E-02  0.3420E-02  0.7244E-01  0.7244E-01
     -4.539  0.3679E-02  0.3679E-02  0.7312E-01  0.7312E-01
     -4.344  0.3792E-02  0.3792E-02  0.7385E-01  0.7385E-01
     -4.149  0.4920E-02  0.4920E-02  0.7467E-01  0.7467E-01
     -3.953  0.7725E-02  0.7725E-02  0.7595E-01  0.7595E-01
     -3.758  0.4874E-02  0.4874E-02  0.7722E-01  0.7722E-01
     -3.563  0.4730E-02  0.4730E-02  0.7810E-01  0.7810E-01
     -3.368  0.4465E-02  0.4465E-02  0.7901E-01  0.7901E-01
     -3.172  0.5948E-02  0.5948E-02  0.7998E-01  0.7998E-01
     -2.977  0.4680E-02  0.4680E-02  0.8102E-01  0.8102E-01
     -2.782  0.4682E-02  0.4682E-02  0.8191E-01  0.8191E-01
     -2.587  0.6320E-02  0.6320E-02  0.8291E-01  0.8291E-01
     -2.391  0.8045E-02  0.8045E-02  0.8430E-01  0.8430E-01
     -2.196  0.1139E-01  0.1139E-01  0.8619E-01  0.8619E-01
     -2.001  0.1918E-01  0.1918E-01  0.8952E-01  0.8952E-01
     -1.805  0.1818E-01  0.1818E-01  0.9277E-01  0.9277E-01
     -1.610  0.2450E-01  0.2450E-01  0.9672E-01  0.9672E-01
     -1.415  0.8187E-02  0.8187E-02  0.1009E+00  0.1009E+00
     -1.220  0.2940E-01  0.2940E-01  0.1034E+00  0.1034E+00
     -1.024  0.1188E-01  0.1188E-01  0.1079E+00  0.1079E+00
     -0.829  0.1189E-01  0.1189E-01  0.1108E+00  0.1108E+00
     -0.634  0.9457E-02  0.9457E-02  0.1129E+00  0.1129E+00
     -0.438  0.9371E-02  0.9371E-02  0.1147E+00  0.1147E+00
     -0.243  0.9584E-02  0.9584E-02  0.1166E+00  0.1166E+00
     -0.048  0.6017E-02  0.6017E-02  0.1183E+00  0.1183E+00
      0.147  0.2802E-02  0.2802E-02  0.1192E+00  0.1192E+00
      0.343  0.3355E-02  0.3355E-02  0.1198E+00  0.1198E+00
      0.538  0.3554E-02  0.3554E-02  0.1206E+00  0.1206E+00
      0.733  0.3528E-02  0.3528E-02  0.1213E+00  0.1213E+00
      0.928  0.3767E-02  0.3767E-02  0.1220E+00  0.1220E+00
      1.124  0.4279E-02  0.4279E-02  0.1228E+00  0.1228E+00
      1.319  0.4643E-02  0.4643E-02  0.1237E+00  0.1237E+00
      1.514  0.5490E-02  0.5490E-02  0.1246E+00  0.1246E+00
      1.710  0.8633E-02  0.8633E-02  0.1261E+00  0.1261E+00
      1.905  0.7589E-02  0.7589E-02  0.1277E+00  0.1277E+00
      2.100  0.7336E-02  0.7336E-02  0.1291E+00  0.1291E+00
      2.295  0.7572E-02  0.7572E-02  0.1306E+00  0.1306E+00
      2.491  0.6798E-02  0.6798E-02  0.1320E+00  0.1320E+00
      2.686  0.6048E-02  0.6048E-02  0.1333E+00  0.1333E+00
      2.881  0.4021E-02  0.4021E-02  0.1342E+00  0.1342E+00
      3.077  0.3051E-02  0.3051E-02  0.1349E+00  0.1349E+00
      3.272  0.3319E-02  0.3319E-02  0.1355E+00  0.1355E+00
      3.467  0.4982E-02  0.4982E-02  0.1364E+00  0.1364E+00
      3.662  0.5896E-02  0.5896E-02  0.1374E+00  0.1374E+00
      3.858  0.4425E-02  0.4425E-02  0.1385E+00  0.1385E+00
      4.053  0.6179E-02  0.6179E-02  0.1395E+00  0.1395E+00
      4.248  0.5241E-02  0.5240E-02  0.1406E+00  0.1406E+00
      4.443  0.5060E-02  0.5060E-02  0.1416E+00  0.1416E+00
      4.639  0.8301E-02  0.8301E-02  0.1429E+00  0.1429E+00
      4.834  0.1787E-01  0.1787E-01  0.1453E+00  0.1453E+00
      5.029  0.8332E-02  0.8332E-02  0.1474E+00  0.1474E+00
      5.225  0.9455E-02  0.9455E-02  0.1491E+00  0.1491E+00
      5.420  0.2546E-01  0.2546E-01  0.1524E+00  0.1524E+00
      5.615  0.1206E-01  0.1206E-01  0.1557E+00  0.1557E+00
      5.810  0.8869E-02  0.8869E-02  0.1578E+00  0.1578E+00
      6.006  0.1153E-01  0.1153E-01  0.1598E+00  0.1598E+00
      6.201  0.1219E-01  0.1219E-01  0.1620E+00  0.1620E+00
      6.396  0.1409E-01  0.1409E-01  0.1646E+00  0.1646E+00
      6.592  0.1295E-01  0.1295E-01  0.1677E+00  0.1677E+00
      6.787  0.5139E-02  0.5139E-02  0.1694E+00  0.1694E+00
      6.982  0.1232E-01  0.1232E-01  0.1713E+00  0.1713E+00
      7.177  0.1535E-01  0.1535E-01  0.1741E+00  0.1741E+00
      7.373  0.1181E-01  0.1181E-01  0.1769E+00  0.1769E+00
      7.568  0.1878E-01  0.1878E-01  0.1801E+00  0.1801E+00
      7.763  0.1567E-01  0.1567E-01  0.1828E+00  0.1828E+00
      7.958  0.2262E-01  0.2262E-01  0.1881E+00  0.1881E+00
      8.154  0.1097E-01  0.1097E-01  0.1911E+00  0.1911E+00
      8.349  0.1433E-01  0.1433E-01  0.1932E+00  0.1932E+00
      8.544  0.3202E-01  0.3202E-01  0.1978E+00  0.1978E+00
      8.740  0.7885E-02  0.7885E-02  0.2014E+00  0.2014E+00
      8.935  0.2623E-01  0.2623E-01  0.2041E+00  0.2041E+00
      9.130  0.1383E-01  0.1383E-01  0.2088E+00  0.2088E+00
      9.325  0.7395E-02  0.7395E-02  0.2108E+00  0.2108E+00
      9.521  0.1218E-01  0.1218E-01  0.2126E+00  0.2126E+00
      9.716  0.2123E-01  0.2123E-01  0.2160E+00  0.2160E+00
      9.911  0.2046E-01  0.2046E-01  0.2202E+00  0.2202E+00
     10.107  0.1470E-01  0.1470E-01  0.2235E+00  0.2235E+00
     10.302  0.1766E-01  0.1766E-01  0.2265E+00  0.2265E+00
     10.497  0.1279E-01  0.1279E-01  0.2297E+00  0.2297E+00
     10.692  0.1742E-01  0.1742E-01  0.2326E+00  0.2326E+00
     10.888  0.1405E-01  0.1405E-01  0.2358E+00  0.2358E+00
     11.083  0.1016E-01  0.1016E-01  0.2380E+00  0.2380E+00
     11.278  0.8601E-02  0.8601E-02  0.2400E+00  0.2400E+00
     11.473  0.7712E-02  0.7712E-02  0.2415E+00  0.2415E+00
     11.669  0.5256E-02  0.5255E-02  0.2431E+00  0.2431E+00
     11.864  0.9177E-02  0.9177E-02  0.2443E+00  0.2443E+00
     12.059  0.1731E-01  0.1731E-01  0.2470E+00  0.2470E+00
     12.255  0.1067E-01  0.1067E-01  0.2494E+00  0.2494E+00
     12.450  0.1067E-01  0.1067E-01  0.2515E+00  0.2515E+00
     12.645  0.1203E-01  0.1203E-01  0.2538E+00  0.2538E+00
     12.840  0.1223E-01  0.1223E-01  0.2560E+00  0.2560E+00
     13.036  0.1414E-01  0.1414E-01  0.2587E+00  0.2587E+00
     13.231  0.1019E-01  0.1019E-01  0.2611E+00  0.2611E+00
     13.426  0.9093E-02  0.9093E-02  0.2629E+00  0.2629E+00
     13.622  0.6944E-02  0.6944E-02  0.2643E+00  0.2643E+00
     13.817  0.7117E-02  0.7117E-02  0.2658E+00  0.2658E+00
     14.012  0.7592E-02  0.7592E-02  0.2673E+00  0.2673E+00
     14.207  0.1099E-01  0.1099E-01  0.2690E+00  0.2690E+00
     14.403  0.9625E-02  0.9625E-02  0.2712E+00  0.2712E+00
     14.598  0.6812E-02  0.6812E-02  0.2727E+00  0.2727E+00
     14.793  0.8718E-02  0.8718E-02  0.2742E+00  0.2742E+00
     14.988  0.1079E-01  0.1079E-01  0.2763E+00  0.2763E+00
     15.184  0.1377E-01  0.1377E-01  0.2787E+00  0.2787E+00
     15.379  0.7830E-02  0.7830E-02  0.2810E+00  0.2810E+00
     15.574  0.4977E-02  0.4977E-02  0.2821E+00  0.2821E+00
     15.770  0.3646E-02  0.3646E-02  0.2830E+00  0.2830E+00
     15.965  0.2761E-02  0.2761E-02  0.2836E+00  0.2836E+00
     16.160  0.5341E-02  0.5341E-02  0.2844E+00  0.2844E+00
     16.355  0.1230E-01  0.1230E-01  0.2861E+00  0.2861E+00
     16.551  0.9966E-02  0.9966E-02  0.2884E+00  0.2884E+00
     16.746  0.8912E-02  0.8912E-02  0.2902E+00  0.2902E+00
     16.941  0.1028E-01  0.1028E-01  0.2921E+00  0.2921E+00
     17.137  0.1241E-01  0.1241E-01  0.2943E+00  0.2943E+00
     17.332  0.1126E-01  0.1126E-01  0.2966E+00  0.2966E+00
     17.527  0.1163E-01  0.1163E-01  0.2989E+00  0.2989E+00
     17.722  0.9283E-02  0.9283E-02  0.3009E+00  0.3009E+00
     17.918  0.2949E-02  0.2949E-02  0.3021E+00  0.3021E+00
     18.113  0.2885E-02  0.2885E-02  0.3026E+00  0.3026E+00
     18.308  0.5552E-02  0.5552E-02  0.3034E+00  0.3034E+00
     18.503  0.8776E-02  0.8776E-02  0.3048E+00  0.3048E+00
     18.699  0.1295E-01  0.1295E-01  0.3070E+00  0.3070E+00
     18.894  0.1283E-01  0.1283E-01  0.3094E+00  0.3094E+00
     19.089  0.1551E-01  0.1551E-01  0.3122E+00  0.3122E+00
     19.285  0.1496E-01  0.1496E-01  0.3154E+00  0.3154E+00
     19.480  0.1022E-01  0.1022E-01  0.3179E+00  0.3179E+00
     19.675  0.8921E-02  0.8921E-02  0.3197E+00  0.3197E+00
     19.870  0.6933E-02  0.6933E-02  0.3213E+00  0.3213E+00
     20.066  0.4388E-02  0.4390E-02  0.3224E+00  0.3224E+00
     20.261  0.1416E-02  0.1413E-02  0.3230E+00  0.3230E+00
     20.456  0.5794E-03  0.5797E-03  0.3231E+00  0.3231E+00
     20.652  0.2507E-03  0.2508E-03  0.3232E+00  0.3232E+00
     20.847  0.4329E-04  0.4329E-04  0.3232E+00  0.3232E+00
     21.042  0.0000E+00  0.0000E+00  0.3232E+00  0.3232E+00
     21.237  0.0000E+00  0.0000E+00  0.3232E+00  0.3232E+00
     21.433  0.0000E+00  0.0000E+00  0.3232E+00  0.3232E+00
     21.628  0.0000E+00  0.0000E+00  0.3232E+00  0.3232E+00
     21.823  0.0000E+00  0.0000E+00  0.3232E+00  0.3232E+00
     22.018  0.0000E+00  0.0000E+00  0.3232E+00  0.3232E+00
     22.214  0.0000E+00  0.0000E+00  0.3232E+00  0.3232E+00
     22.409  0.0000E+00  0.0000E+00  0.3232E+00  0.3232E+00
     22.604  0.0000E+00  0.0000E+00  0.3232E+00  0.3232E+00
     22.800  0.0000E+00  0.0000E+00  0.3232E+00  0.3232E+00
     22.995  0.0000E+00  0.0000E+00  0.3232E+00  0.3232E+00
     23.190  0.0000E+00  0.0000E+00  0.3232E+00  0.3232E+00
     23.385  0.0000E+00  0.0000E+00  0.3232E+00  0.3232E+00
     23.581  0.0000E+00  0.0000E+00  0.3232E+00  0.3232E+00
     23.58070639    -35.00265737  301      3.46805868      1.00000000
    -35.003  0.0000E+00  0.0000E+00  0.0000E+00  0.0000E+00  0.0000E+00  0.0000E+00  0.0000E+00  0.0000E+00  0.0000E+00  0.0000E+00  0.0000E+00  0.0000E+00  0.0000E+00  0.0000E+00  0.0000E+00  0.0000E+00  0.0000E+00  0.0000E+00
    -34.807  0.0000E+00  0.0000E+00  0.0000E+00  0.0000E+00  0.0000E+00  0.0000E+00  0.0000E+00  0.0000E+00  0.0000E+00  0.0000E+00  0.0000E+00  0.0000E+00  0.0000E+00  0.0000E+00  0.0000E+00  0.0000E+00  0.0000E+00  0.0000E+00
    -34.612  0.0000E+00  0.0000E+00  0.0000E+00  0.0000E+00  0.0000E+00  0.0000E+00  0.0000E+00  0.0000E+00  0.0000E+00  0.0000E+00  0.0000E+00  0.0000E+00  0.0000E+00  0.0000E+00  0.0000E+00  0.0000E+00  0.0000E+00  0.0000E+00
    -34.417  0.0000E+00  0.0000E+00  0.0000E+00  0.0000E+00  0.0000E+00  0.0000E+00  0.0000E+00  0.0000E+00  0.0000E+00  0.0000E+00  0.0000E+00  0.0000E+00  0.0000E+00  0.0000E+00  0.0000E+00  0.0000E+00  0.0000E+00  0.0000E+00
    -34.222  0.0000E+00  0.0000E+00  0.0000E+00  0.0000E+00  0.0000E+00  0.0000E+00  0.0000E+00  0.0000E+00  0.0000E+00  0.0000E+00  0.0000E+00  0.0000E+00  0.0000E+00  0.0000E+00  0.0000E+00  0.0000E+00  0.0000E+00  0.0000E+00
    -34.026  0.0000E+00  0.0000E+00  0.0000E+00  0.0000E+00  0.0000E+00  0.0000E+00  0.0000E+00  0.0000E+00  0.0000E+00  0.0000E+00  0.0000E+00  0.0000E+00  0.0000E+00  0.0000E+00  0.0000E+00  0.0000E+00  0.0000E+00  0.0000E+00
    -33.831  0.0000E+00  0.0000E+00  0.0000E+00  0.0000E+00  0.0000E+00  0.0000E+00  0.0000E+00  0.0000E+00  0.0000E+00  0.0000E+00  0.0000E+00  0.0000E+00  0.0000E+00  0.0000E+00  0.0000E+00  0.0000E+00  0.0000E+00  0.0000E+00
    -33.636  0.0000E+00  0.0000E+00  0.0000E+00  0.0000E+00  0.0000E+00  0.0000E+00  0.0000E+00  0.0000E+00  0.0000E+00  0.0000E+00  0.0000E+00  0.0000E+00  0.0000E+00  0.0000E+00  0.0000E+00  0.0000E+00  0.0000E+00  0.0000E+00
    -33.440  0.0000E+00  0.0000E+00  0.0000E+00  0.0000E+00  0.0000E+00  0.0000E+00  0.0000E+00  0.0000E+00  0.0000E+00  0.0000E+00  0.0000E+00  0.0000E+00  0.0000E+00  0.0000E+00  0.0000E+00  0.0000E+00  0.0000E+00  0.0000E+00
    -33.245  0.0000E+00  0.0000E+00  0.0000E+00  0.0000E+00  0.0000E+00  0.0000E+00  0.0000E+00  0.0000E+00  0.0000E+00  0.0000E+00  0.0000E+00  0.0000E+00  0.0000E+00  0.0000E+00  0.0000E+00  0.0000E+00  0.0000E+00  0.0000E+00
    -33.050  0.0000E+00  0.0000E+00  0.0000E+00  0.0000E+00  0.0000E+00  0.0000E+00  0.0000E+00  0.0000E+00  0.0000E+00  0.0000E+00  0.0000E+00  0.0000E+00  0.0000E+00  0.0000E+00  0.0000E+00  0.0000E+00  0.0000E+00  0.0000E+00
    -32.855  0.0000E+00  0.0000E+00  0.0000E+00  0.0000E+00  0.0000E+00  0.0000E+00  0.0000E+00  0.0000E+00  0.0000E+00  0.0000E+00  0.0000E+00  0.0000E+00  0.0000E+00  0.0000E+00  0.0000E+00  0.0000E+00  0.0000E+00  0.0000E+00
    -32.659  0.0000E+00  0.0000E+00  0.0000E+00  0.0000E+00  0.0000E+00  0.0000E+00  0.0000E+00  0.0000E+00  0.0000E+00  0.0000E+00  0.0000E+00  0.0000E+00  0.0000E+00  0.0000E+00  0.0000E+00  0.0000E+00  0.0000E+00  0.0000E+00
    -32.464  0.0000E+00  0.0000E+00  0.0000E+00  0.0000E+00  0.0000E+00  0.0000E+00  0.0000E+00  0.0000E+00  0.0000E+00  0.0000E+00  0.0000E+00  0.0000E+00  0.0000E+00  0.0000E+00  0.0000E+00  0.0000E+00  0.0000E+00  0.0000E+00
    -32.269  0.1038E+02  0.1038E+02  0.6773E-04  0.6773E-04  0.7273E-05  0.7272E-05  0.6516E-04  0.6515E-04  0.1346E-05  0.1346E-05  0.1087E-04  0.1087E-04  0.5701E-04  0.5701E-04  0.1745E-04  0.1745E-04  0.3867E-04  0.3866E-04
    -32.073  0.0000E+00  0.0000E+00  0.0000E+00  0.0000E+00  0.0000E+00  0.0000E+00  0.0000E+00  0.0000E+00  0.0000E+00  0.0000E+00  0.0000E+00  0.0000E+00  0.0000E+00  0.0000E+00  0.0000E+00  0.0000E+00  0.0000E+00  0.0000E+00
    -31.878  0.0000E+00  0.0000E+00  0.0000E+00  0.0000E+00  0.0000E+00  0.0000E+00  0.0000E+00  0.0000E+00  0.0000E+00  0.0000E+00  0.0000E+00  0.0000E+00  0.0000E+00  0.0000E+00  0.0000E+00  0.0000E+00  0.0000E+00  0.0000E+00
    -31.683  0.0000E+00  0.0000E+00  0.0000E+00  0.0000E+00  0.0000E+00  0.0000E+00  0.0000E+00  0.0000E+00  0.0000E+00  0.0000E+00  0.0000E+00  0.0000E+00  0.0000E+00  0.0000E+00  0.0000E+00  0.0000E+00  0.0000E+00  0.0000E+00
    -31.488  0.0000E+00  0.0000E+00  0.0000E+00  0.0000E+00  0.0000E+00  0.0000E+00  0.0000E+00  0.0000E+00  0.0000E+00  0.0000E+00  0.0000E+00  0.0000E+00  0.0000E+00  0.0000E+00  0.0000E+00  0.0000E+00  0.0000E+00  0.0000E+00
    -31.292  0.0000E+00  0.0000E+00  0.0000E+00  0.0000E+00  0.0000E+00  0.0000E+00  0.0000E+00  0.0000E+00  0.0000E+00  0.0000E+00  0.0000E+00  0.0000E+00  0.0000E+00  0.0000E+00  0.0000E+00  0.0000E+00  0.0000E+00  0.0000E+00
    -31.097  0.0000E+00  0.0000E+00  0.0000E+00  0.0000E+00  0.0000E+00  0.0000E+00  0.0000E+00  0.0000E+00  0.0000E+00  0.0000E+00  0.0000E+00  0.0000E+00  0.0000E+00  0.0000E+00  0.0000E+00  0.0000E+00  0.0000E+00  0.0000E+00
    -30.902  0.0000E+00  0.0000E+00  0.0000E+00  0.0000E+00  0.0000E+00  0.0000E+00  0.0000E+00  0.0000E+00  0.0000E+00  0.0000E+00  0.0000E+00  0.0000E+00  0.0000E+00  0.0000E+00  0.0000E+00  0.0000E+00  0.0000E+00  0.0000E+00
    -30.707  0.0000E+00  0.0000E+00  0.0000E+00  0.0000E+00  0.0000E+00  0.0000E+00  0.0000E+00  0.0000E+00  0.0000E+00  0.0000E+00  0.0000E+00  0.0000E+00  0.0000E+00  0.0000E+00  0.0000E+00  0.0000E+00  0.0000E+00  0.0000E+00
    -30.511  0.0000E+00  0.0000E+00  0.0000E+00  0.0000E+00  0.0000E+00  0.0000E+00  0.0000E+00  0.0000E+00  0.0000E+00  0.0000E+00  0.0000E+00  0.0000E+00  0.0000E+00  0.0000E+00  0.0000E+00  0.0000E+00  0.0000E+00  0.0000E+00
    -30.316  0.0000E+00  0.0000E+00  0.0000E+00  0.0000E+00  0.0000E+00  0.0000E+00  0.0000E+00  0.0000E+00  0.0000E+00  0.0000E+00  0.0000E+00  0.0000E+00  0.0000E+00  0.0000E+00  0.0000E+00  0.0000E+00  0.0000E+00  0.0000E+00
    -30.121  0.0000E+00  0.0000E+00  0.0000E+00  0.0000E+00  0.0000E+00  0.0000E+00  0.0000E+00  0.0000E+00  0.0000E+00  0.0000E+00  0.0000E+00  0.0000E+00  0.0000E+00  0.0000E+00  0.0000E+00  0.0000E+00  0.0000E+00  0.0000E+00
    -29.925  0.0000E+00  0.0000E+00  0.0000E+00  0.0000E+00  0.0000E+00  0.0000E+00  0.0000E+00  0.0000E+00  0.0000E+00  0.0000E+00  0.0000E+00  0.0000E+00  0.0000E+00  0.0000E+00  0.0000E+00  0.0000E+00  0.0000E+00  0.0000E+00
    -29.730  0.0000E+00  0.0000E+00  0.0000E+00  0.0000E+00  0.0000E+00  0.0000E+00  0.0000E+00  0.0000E+00  0.0000E+00  0.0000E+00  0.0000E+00  0.0000E+00  0.0000E+00  0.0000E+00  0.0000E+00  0.0000E+00  0.0000E+00  0.0000E+00
    -29.535  0.0000E+00  0.0000E+00  0.0000E+00  0.0000E+00  0.0000E+00  0.0000E+00  0.0000E+00  0.0000E+00  0.0000E+00  0.0000E+00  0.0000E+00  0.0000E+00  0.0000E+00  0.0000E+00  0.0000E+00  0.0000E+00  0.0000E+00  0.0000E+00
    -29.340  0.0000E+00  0.0000E+00  0.0000E+00  0.0000E+00  0.0000E+00  0.0000E+00  0.0000E+00  0.0000E+00  0.0000E+00  0.0000E+00  0.0000E+00  0.0000E+00  0.0000E+00  0.0000E+00  0.0000E+00  0.0000E+00  0.0000E+00  0.0000E+00
    -29.144  0.0000E+00  0.0000E+00  0.0000E+00  0.0000E+00  0.0000E+00  0.0000E+00  0.0000E+00  0.0000E+00  0.0000E+00  0.0000E+00  0.0000E+00  0.0000E+00  0.0000E+00  0.0000E+00  0.0000E+00  0.0000E+00  0.0000E+00  0.0000E+00
    -28.949  0.0000E+00  0.0000E+00  0.0000E+00  0.0000E+00  0.0000E+00  0.0000E+00  0.0000E+00  0.0000E+00  0.0000E+00  0.0000E+00  0.0000E+00  0.0000E+00  0.0000E+00  0.0000E+00  0.0000E+00  0.0000E+00  0.0000E+00  0.0000E+00
    -28.754  0.0000E+00  0.0000E+00  0.0000E+00  0.0000E+00  0.0000E+00  0.0000E+00  0.0000E+00  0.0000E+00  0.0000E+00  0.0000E+00  0.0000E+00  0.0000E+00  0.0000E+00  0.0000E+00  0.0000E+00  0.0000E+00  0.0000E+00  0.0000E+00
    -28.558  0.0000E+00  0.0000E+00  0.0000E+00  0.0000E+00  0.0000E+00  0.0000E+00  0.0000E+00  0.0000E+00  0.0000E+00  0.0000E+00  0.0000E+00  0.0000E+00  0.0000E+00  0.0000E+00  0.0000E+00  0.0000E+00  0.0000E+00  0.0000E+00
    -28.363  0.0000E+00  0.0000E+00  0.0000E+00  0.0000E+00  0.0000E+00  0.0000E+00  0.0000E+00  0.0000E+00  0.0000E+00  0.0000E+00  0.0000E+00  0.0000E+00  0.0000E+00  0.0000E+00  0.0000E+00  0.0000E+00  0.0000E+00  0.0000E+00
    -28.168  0.0000E+00  0.0000E+00  0.0000E+00  0.0000E+00  0.0000E+00  0.0000E+00  0.0000E+00  0.0000E+00  0.0000E+00  0.0000E+00  0.0000E+00  0.0000E+00  0.0000E+00  0.0000E+00  0.0000E+00  0.0000E+00  0.0000E+00  0.0000E+00
    -27.973  0.1974E-03  0.1974E-03  0.1409E-04  0.1409E-04  0.4533E-04  0.4533E-04  0.1505E-04  0.1505E-04  0.1362E-05  0.1362E-05  0.6062E-05  0.6062E-05  0.5290E-05  0.5290E-05  0.5932E-05  0.5932E-05  0.1545E-05  0.1545E-05
    -27.777  0.0000E+00  0.0000E+00  0.0000E+00  0.0000E+00  0.0000E+00  0.0000E+00  0.0000E+00  0.0000E+00  0.0000E+00  0.0000E+00  0.0000E+00  0.0000E+00  0.0000E+00  0.0000E+00  0.0000E+00  0.0000E+00  0.0000E+00  0.0000E+00
    -27.582  0.0000E+00  0.0000E+00  0.0000E+00  0.0000E+00  0.0000E+00  0.0000E+00  0.0000E+00  0.0000E+00  0.0000E+00  0.0000E+00  0.0000E+00  0.0000E+00  0.0000E+00  0.0000E+00  0.0000E+00  0.0000E+00  0.0000E+00  0.0000E+00
    -27.387  0.0000E+00  0.0000E+00  0.0000E+00  0.0000E+00  0.0000E+00  0.0000E+00  0.0000E+00  0.0000E+00  0.0000E+00  0.0000E+00  0.0000E+00  0.0000E+00  0.0000E+00  0.0000E+00  0.0000E+00  0.0000E+00  0.0000E+00  0.0000E+00
    -27.192  0.0000E+00  0.0000E+00  0.0000E+00  0.0000E+00  0.0000E+00  0.0000E+00  0.0000E+00  0.0000E+00  0.0000E+00  0.0000E+00  0.0000E+00  0.0000E+00  0.0000E+00  0.0000E+00  0.0000E+00  0.0000E+00  0.0000E+00  0.0000E+00
    -26.996  0.0000E+00  0.0000E+00  0.0000E+00  0.0000E+00  0.0000E+00  0.0000E+00  0.0000E+00  0.0000E+00  0.0000E+00  0.0000E+00  0.0000E+00  0.0000E+00  0.0000E+00  0.0000E+00  0.0000E+00  0.0000E+00  0.0000E+00  0.0000E+00
    -26.801  0.0000E+00  0.0000E+00  0.0000E+00  0.0000E+00  0.0000E+00  0.0000E+00  0.0000E+00  0.0000E+00  0.0000E+00  0.0000E+00  0.0000E+00  0.0000E+00  0.0000E+00  0.0000E+00  0.0000E+00  0.0000E+00  0.0000E+00  0.0000E+00
    -26.606  0.0000E+00  0.0000E+00  0.0000E+00  0.0000E+00  0.0000E+00  0.0000E+00  0.0000E+00  0.0000E+00  0.0000E+00  0.0000E+00  0.0000E+00  0.0000E+00  0.0000E+00  0.0000E+00  0.0000E+00  0.0000E+00  0.0000E+00  0.0000E+00
    -26.410  0.0000E+00  0.0000E+00  0.0000E+00  0.0000E+00  0.0000E+00  0.0000E+00  0.0000E+00  0.0000E+00  0.0000E+00  0.0000E+00  0.0000E+00  0.0000E+00  0.0000E+00  0.0000E+00  0.0000E+00  0.0000E+00  0.0000E+00  0.0000E+00
    -26.215  0.0000E+00  0.0000E+00  0.0000E+00  0.0000E+00  0.0000E+00  0.0000E+00  0.0000E+00  0.0000E+00  0.0000E+00  0.0000E+00  0.0000E+00  0.0000E+00  0.0000E+00  0.0000E+00  0.0000E+00  0.0000E+00  0.0000E+00  0.0000E+00
    -26.020  0.0000E+00  0.0000E+00  0.0000E+00  0.0000E+00  0.0000E+00  0.0000E+00  0.0000E+00  0.0000E+00  0.0000E+00  0.0000E+00  0.0000E+00  0.0000E+00  0.0000E+00  0.0000E+00  0.0000E+00  0.0000E+00  0.0000E+00  0.0000E+00
    -25.825  0.0000E+00  0.0000E+00  0.0000E+00  0.0000E+00  0.0000E+00  0.0000E+00  0.0000E+00  0.0000E+00  0.0000E+00  0.0000E+00  0.0000E+00  0.0000E+00  0.0000E+00  0.0000E+00  0.0000E+00  0.0000E+00  0.0000E+00  0.0000E+00
    -25.629  0.0000E+00  0.0000E+00  0.0000E+00  0.0000E+00  0.0000E+00  0.0000E+00  0.0000E+00  0.0000E+00  0.0000E+00  0.0000E+00  0.0000E+00  0.0000E+00  0.0000E+00  0.0000E+00  0.0000E+00  0.0000E+00  0.0000E+00  0.0000E+00
    -25.434  0.0000E+00  0.0000E+00  0.0000E+00  0.0000E+00  0.0000E+00  0.0000E+00  0.0000E+00  0.0000E+00  0.0000E+00  0.0000E+00  0.0000E+00  0.0000E+00  0.0000E+00  0.0000E+00  0.0000E+00  0.0000E+00  0.0000E+00  0.0000E+00
    -25.239  0.0000E+00  0.0000E+00  0.0000E+00  0.0000E+00  0.0000E+00  0.0000E+00  0.0000E+00  0.0000E+00  0.0000E+00  0.0000E+00  0.0000E+00  0.0000E+00  0.0000E+00  0.0000E+00  0.0000E+00  0.0000E+00  0.0000E+00  0.0000E+00