Automatically generated mesh
      36
Reciprocal lattice
    0.00000000000000    0.00000000000000    0.00000000000000             1
    0.20000000000000    0.00000000000000    0.00000000000000             2
    0.40000000000000    0.00000000000000    0.00000000000000             2
    0.00000000000000    0.14285714285714    0.00000000000000             2
    0.20000000000000    0.14285714285714    0.00000000000000             2
    0.40000000000000    0.14285714285714    0.00000000000000             2
   -0.40000000000000    0.14285714285714    0.00000000000000             2
   -0.20000000000000    0.14285714285714    0.00000000000000             2
    0.00000000000000    0.28571428571429    0.00000000000000             2
    0.20000000000000    0.28571428571429    0.00000000000000             2
    0.40000000000000    0.28571428571429    0.00000000000000             2
   -0.40000000000000    0.28571428571429    0.00000000000000             2
   -0.20000000000000    0.28571428571429    0.00000000000000             2
    0.00000000000000    0.42857142857143    0.00000000000000             2
    0.20000000000000    0.42857142857143    0.00000000000000             2
    0.40000000000000    0.42857142857143    0.00000000000000             2
   -0.40000000000000    0.42857142857143    0.00000000000000             2
   -0.20000000000000    0.42857142857143    0.00000000000000             2
    0.00000000000000    0.00000000000000    0.50000000000000             1
    0.20000000000000    0.00000000000000    0.50000000000000             2
    0.40000000000000    0.00000000000000    0.50000000000000             2
    0.00000000000000    0.14285714285714    0.50000000000000             2
    0.20000000000000    0.14285714285714    0.50000000000000             2
    0.40000000000000    0.14285714285714    0.50000000000000             2
   -0.40000000000000    0.14285714285714    0.50000000000000             2
   -0.20000000000000    0.14285714285714    0.50000000000000             2
    0.00000000000000    0.28571428571429    0.50000000000000             2
    0.20000000000000    0.28571428571429    0.50000000000000             2
    0.40000000000000    0.28571428571429    0.50000000000000             2
   -0.40000000000000    0.28571428571429    0.50000000000000             2
   -0.20000000000000    0.28571428571429    0.50000000000000             2
    0.00000000000000    0.42857142857143    0.50000000000000             2
    0.20000000000000    0.42857142857143    0.50000000000000             2
    0.40000000000000    0.42857142857143    0.50000000000000             2
   -0.40000000000000    0.42857142857143    0.50000000000000             2
   -0.20000000000000    0.42857142857143    0.50000000000000             2
Tetrahedra
       207    0.00238095238095
         2         1         4         5        23
         2         1         2         5        23
         2         1         2        20        23
         2         1         4        22        23
         2         1        19        22        23
         2         1        19        20        23
         2         2         5         6        24
         2         2         3         6        24
         2         2         3        21        24
         2         2         5        23        24
         2         2        20        23        24
         2         2        20        21        24
         2         3         6         7        25
         2         3         3         7        25
         2         3         3        21        25
         2         3         6        24        25
         2         3        21        24        25
         2         3        21        21        25
         2         3         7         8        26
         2         2         3         8        26
         2         2         3        20        26
         2         3         7        25        26
         2         3        21        25        26
         2         3        20        21        26
         2         2         4         8        22
         2         1         2         4        22
         2         1         2        19        22
         2         2         8        22        26
         2         2        20        22        26
         2         2        19        20        22
         2         4         9        10        28
         2         4         5        10        28
         2         4         5        23        28
         2         4         9        27        28
         2         4        22        27        28
         2         4        22        23        28
         2         5        10        11        29
         2         5         6        11        29
         2         5         6        24        29
         2         5        10        28        29
         2         5        23        28        29
         2         5        23        24        29
         2         6        11        12        30
         2         6         7        12        30
         2         6         7        25        30
         2         6        11        29        30
         2         6        24        29        30
         2         6        24        25        30
         2         7        12        13        31
         2         7         8        13        31
         2         7         8        26        31
         2         7        12        30        31
         2         7        25        30        31
         2         7        25        26        31
         2         8         9        13        27
         2         4         8         9        27
         2         4         8        22        27
         2         8        13        27        31
         2         8        26        27        31
         2         8        22        26        27
         2         9        14        15        33
         2         9        10        15        33
         2         9        10        28        33
         2         9        14        32        33
         2         9        27        32        33
         2         9        27        28        33
         2        10        15        16        34
         2        10        11        16        34
         2        10        11        29        34
         2        10        15        33        34
         2        10        28        33        34
         2        10        28        29        34
         2        11        16        17        35
         2        11        12        17        35
         2        11        12        30        35
         2        11        16        34        35
         2        11        29        34        35
         2        11        29        30        35
         2        12        17        18        36
         2        12        13        18        36
         2        12        13        31        36
         2        12        17        35        36
         2        12        30        35        36
         2        12        30        31        36
         2        13        14        18        32
         2         9        13        14        32
         2         9        13        27        32
         2        13        18        32        36
         2        13        31        32        36
         2        13        27        31        32
         2        14        14        18        36
         2        14        15        18        36
         2        14        15        33        36
         2        14        14        32        36
         2        14        32        32        36
         2        14        32        33        36
         2        15        17        18        35
         2        15        16        17        35
         2        15        16        34        35
         2        15        18        35        36
         2        15        33        35        36
         2        15        33        34        35
         4        16        16        17        34
         4        16        17        34        35
         4        16        34        34        35
         2        15        16        17        33
         2        15        17        18        33
         2        17        18        33        36
         2        16        17        33        34
         2        17        33        34        35
         2        17        33        35        36
         2        14        15        18        32
         2        14        14        18        32
         2        14        18        32        32
         2        15        18        32        33
         2        18        32        33        36
         2        18        32        32        36
         2         9        13        14        31
         2        13        14        18        31
         2        14        18        31        36
         2         9        14        27        31
         2        14        27        31        32
         2        14        31        32        36
         2        12        13        18        30
         2        12        17        18        30
         2        17        18        30        35
         2        13        18        30        31
         2        18        30        31        36
         2        18        30        35        36
         2        11        12        17        29
         2        11        16        17        29
         2        16        17        29        34
         2        12        17        29        30
         2        17        29        30        35
         2        17        29        34        35
         2        10        11        16        28
         2        10        15        16        28
         2        15        16        28        33
         2        11        16        28        29
         2        16        28        29        34
         2        16        28        33        34
         2         9        10        15        27
         2         9        14        15        27
         2        14        15        27        32
         2        10        15        27        28
         2        15        27        28        33
         2        15        27        32        33
         2         4         8         9        26
         2         8         9        13        26
         2         9        13        26        31
         2         4         9        22        26
         2         9        22        26        27
         2         9        26        27        31
         2         7         8        13        25
         2         7        12        13        25
         2        12        13        25        30
         2         8        13        25        26
         2        13        25        26        31
         2        13        25        30        31
         2         6         7        12        24
         2         6        11        12        24
         2        11        12        24        29
         2         7        12        24        25
         2        12        24        25        30
         2        12        24        29        30
         2         5         6        11        23
         2         5        10        11        23
         2        10        11        23        28
         2         6        11        23        24
         2        11        23        24        29
         2        11        23        28        29
         2         4         5        10        22
         2         4         9        10        22
         2         9        10        22        27
         2         5        10        22        23
         2        10        22        23        28
         2        10        22        27        28
         2         1         2         4        20
         2         2         4         8        20
         2         4         8        20        26
         2         1         4        19        20
         2         4        19        20        22
         2         4        20        22        26
         2         2         3         8        21
         2         3         7         8        21
         2         7         8        21        25
         2         2         8        20        21
         2         8        20        21        26
         2         8        21        25        26
         2         3         3         7        21
         2         3         6         7        21
         2         6         7        21        24
         2         3         7        21        21
         2         7        21        21        25
         2         7        21        24        25
         2         2         3         6        20
         2         2         5         6        20
         2         5         6        20        23
         2         3         6        20        21
         2         6        20        21        24
         2         6        20        23        24
         2         1         2         5        19
         2         1         4         5        19
         2         4         5        19        22
         2         2         5        19        20
         2         5        19        20        23
         2         5        19        22        23
