  21  21   1   0
  0.7489781E+01  0.4702897E-09  0.5657693E-09  0.6020642E-09  0.5000000E-15
  1.000000000000000E-004
  CAR 
 unknown system                          
     15.57296832    -37.95233678  301     -1.51052489      1.00000000
    -37.952  0.0000E+00  0.0000E+00  0.0000E+00  0.0000E+00
    -37.774  0.0000E+00  0.0000E+00  0.0000E+00  0.0000E+00
    -37.596  0.0000E+00  0.0000E+00  0.0000E+00  0.0000E+00
    -37.417  0.0000E+00  0.0000E+00  0.0000E+00  0.0000E+00
    -37.239  0.0000E+00  0.0000E+00  0.0000E+00  0.0000E+00
    -37.060  0.0000E+00  0.0000E+00  0.0000E+00  0.0000E+00
    -36.882  0.0000E+00  0.0000E+00  0.0000E+00  0.0000E+00
    -36.703  0.0000E+00  0.0000E+00  0.0000E+00  0.0000E+00
    -36.525  0.0000E+00  0.0000E+00  0.0000E+00  0.0000E+00
    -36.347  0.0000E+00  0.0000E+00  0.0000E+00  0.0000E+00
    -36.168  0.0000E+00  0.0000E+00  0.0000E+00  0.0000E+00
    -35.990  0.0000E+00  0.0000E+00  0.0000E+00  0.0000E+00
    -35.811  0.0000E+00  0.0000E+00  0.0000E+00  0.0000E+00
    -35.633  0.0000E+00  0.0000E+00  0.0000E+00  0.0000E+00
    -35.454  0.0000E+00  0.0000E+00  0.1010E-01  0.1010E-01
    -35.276  0.0000E+00  0.0000E+00  0.1010E-01  0.1010E-01
    -35.098  0.0000E+00  0.0000E+00  0.1010E-01  0.1010E-01
    -34.919  0.0000E+00  0.0000E+00  0.1010E-01  0.1010E-01
    -34.741  0.0000E+00  0.0000E+00  0.1010E-01  0.1010E-01
    -34.562  0.0000E+00  0.0000E+00  0.1010E-01  0.1010E-01
    -34.384  0.0000E+00  0.0000E+00  0.1010E-01  0.1010E-01
    -34.206  0.0000E+00  0.0000E+00  0.1010E-01  0.1010E-01
    -34.027  0.0000E+00  0.0000E+00  0.1010E-01  0.1010E-01
    -33.849  0.0000E+00  0.0000E+00  0.1010E-01  0.1010E-01
    -33.670  0.0000E+00  0.0000E+00  0.1010E-01  0.1010E-01
    -33.492  0.0000E+00  0.0000E+00  0.1010E-01  0.1010E-01
    -33.313  0.0000E+00  0.0000E+00  0.1010E-01  0.1010E-01
    -33.135  0.0000E+00  0.0000E+00  0.1010E-01  0.1010E-01
    -32.957  0.0000E+00  0.0000E+00  0.1010E-01  0.1010E-01
    -32.778  0.0000E+00  0.0000E+00  0.1010E-01  0.1010E-01
    -32.600  0.0000E+00  0.0000E+00  0.1010E-01  0.1010E-01
    -32.421  0.0000E+00  0.0000E+00  0.1010E-01  0.1010E-01
    -32.243  0.0000E+00  0.0000E+00  0.1010E-01  0.1010E-01
    -32.065  0.0000E+00  0.0000E+00  0.1010E-01  0.1010E-01
    -31.886  0.0000E+00  0.0000E+00  0.1010E-01  0.1010E-01
    -31.708  0.0000E+00  0.0000E+00  0.1010E-01  0.1010E-01
    -31.529  0.0000E+00  0.0000E+00  0.1010E-01  0.1010E-01
    -31.351  0.0000E+00  0.0000E+00  0.1010E-01  0.1010E-01
    -31.172  0.0000E+00  0.0000E+00  0.1010E-01  0.1010E-01
    -30.994  0.0000E+00  0.0000E+00  0.1010E-01  0.1010E-01
    -30.816  0.0000E+00  0.0000E+00  0.2020E-01  0.2020E-01
    -30.637  0.0000E+00  0.0000E+00  0.2020E-01  0.2020E-01
    -30.459  0.0000E+00  0.0000E+00  0.3030E-01  0.3030E-01
    -30.280  0.0000E+00  0.0000E+00  0.4040E-01  0.4040E-01
    -30.102  0.0000E+00  0.0000E+00  0.4040E-01  0.4040E-01
    -29.924  0.0000E+00  0.0000E+00  0.4040E-01  0.4040E-01
    -29.745  0.0000E+00  0.0000E+00  0.4040E-01  0.4040E-01
    -29.567  0.0000E+00  0.0000E+00  0.4040E-01  0.4040E-01
    -29.388  0.0000E+00  0.0000E+00  0.4040E-01  0.4040E-01
    -29.210  0.0000E+00  0.0000E+00  0.4040E-01  0.4040E-01
    -29.031  0.0000E+00  0.0000E+00  0.4040E-01  0.4040E-01
    -28.853  0.0000E+00  0.0000E+00  0.4040E-01  0.4040E-01
    -28.675  0.0000E+00  0.0000E+00  0.4040E-01  0.4040E-01
    -28.496  0.0000E+00  0.0000E+00  0.4040E-01  0.4040E-01
    -28.318  0.0000E+00  0.0000E+00  0.4040E-01  0.4040E-01
    -28.139  0.0000E+00  0.0000E+00  0.4040E-01  0.4040E-01
    -27.961  0.0000E+00  0.0000E+00  0.4040E-01  0.4040E-01
    -27.783  0.0000E+00  0.0000E+00  0.4040E-01  0.4040E-01
    -27.604  0.0000E+00  0.0000E+00  0.4040E-01  0.4040E-01
    -27.426  0.0000E+00  0.0000E+00  0.4040E-01  0.4040E-01
    -27.247  0.0000E+00  0.0000E+00  0.4040E-01  0.4040E-01
    -27.069  0.0000E+00  0.0000E+00  0.4040E-01  0.4040E-01
    -26.890  0.0000E+00  0.0000E+00  0.4040E-01  0.4040E-01
    -26.712  0.0000E+00  0.0000E+00  0.4040E-01  0.4040E-01
    -26.534  0.0000E+00  0.0000E+00  0.4040E-01  0.4040E-01
    -26.355  0.0000E+00  0.0000E+00  0.4040E-01  0.4040E-01
    -26.177  0.0000E+00  0.0000E+00  0.4040E-01  0.4040E-01
    -25.998  0.0000E+00  0.0000E+00  0.4040E-01  0.4040E-01
    -25.820  0.0000E+00  0.0000E+00  0.4040E-01  0.4040E-01
    -25.642  0.0000E+00  0.0000E+00  0.4040E-01  0.4040E-01
    -25.463  0.0000E+00  0.0000E+00  0.4040E-01  0.4040E-01
    -25.285  0.0000E+00  0.0000E+00  0.4040E-01  0.4040E-01
    -25.106  0.0000E+00  0.0000E+00  0.4040E-01  0.4040E-01
    -24.928  0.0000E+00  0.0000E+00  0.4040E-01  0.4040E-01
    -24.749  0.0000E+00  0.0000E+00  0.4040E-01  0.4040E-01
    -24.571  0.0000E+00  0.0000E+00  0.4040E-01  0.4040E-01
    -24.393  0.0000E+00  0.0000E+00  0.4040E-01  0.4040E-01
    -24.214  0.0000E+00  0.0000E+00  0.4040E-01  0.4040E-01
    -24.036  0.0000E+00  0.0000E+00  0.4040E-01  0.4040E-01
    -23.857  0.0000E+00  0.0000E+00  0.4040E-01  0.4040E-01
    -23.679  0.0000E+00  0.0000E+00  0.4040E-01  0.4040E-01
    -23.501  0.0000E+00  0.0000E+00  0.4040E-01  0.4040E-01
    -23.322  0.0000E+00  0.0000E+00  0.4040E-01  0.4040E-01
    -23.144  0.0000E+00  0.0000E+00  0.4040E-01  0.4040E-01
    -22.965  0.0000E+00  0.0000E+00  0.4040E-01  0.4040E-01
    -22.787  0.0000E+00  0.0000E+00  0.4040E-01  0.4040E-01
    -22.608  0.0000E+00  0.0000E+00  0.4040E-01  0.4040E-01
    -22.430  0.0000E+00  0.0000E+00  0.4040E-01  0.4040E-01
    -22.252  0.0000E+00  0.0000E+00  0.4040E-01  0.4040E-01
    -22.073  0.0000E+00  0.0000E+00  0.4040E-01  0.4040E-01
    -21.895  0.0000E+00  0.0000E+00  0.4040E-01  0.4040E-01
    -21.716  0.0000E+00  0.0000E+00  0.4040E-01  0.4040E-01
    -21.538  0.0000E+00  0.0000E+00  0.4040E-01  0.4040E-01
    -21.359  0.0000E+00  0.0000E+00  0.4040E-01  0.4040E-01
    -21.181  0.0000E+00  0.0000E+00  0.4040E-01  0.4040E-01
    -21.003  0.0000E+00  0.0000E+00  0.4040E-01  0.4040E-01
    -20.824  0.0000E+00  0.0000E+00  0.4040E-01  0.4040E-01
    -20.646  0.0000E+00  0.0000E+00  0.4040E-01  0.4040E-01
    -20.467  0.0000E+00  0.0000E+00  0.4040E-01  0.4040E-01
    -20.289  0.0000E+00  0.0000E+00  0.4040E-01  0.4040E-01
    -20.111  0.0000E+00  0.0000E+00  0.4040E-01  0.4040E-01
    -19.932  0.0000E+00  0.0000E+00  0.4040E-01  0.4040E-01
    -19.754  0.0000E+00  0.0000E+00  0.4040E-01  0.4040E-01
    -19.575  0.0000E+00  0.0000E+00  0.4040E-01  0.4040E-01
    -19.397  0.0000E+00  0.0000E+00  0.4040E-01  0.4040E-01
    -19.218  0.0000E+00  0.0000E+00  0.4040E-01  0.4040E-01
    -19.040  0.0000E+00  0.0000E+00  0.4040E-01  0.4040E-01
    -18.862  0.0000E+00  0.0000E+00  0.4040E-01  0.4040E-01
    -18.683  0.0000E+00  0.0000E+00  0.4040E-01  0.4040E-01
    -18.505  0.0000E+00  0.0000E+00  0.4040E-01  0.4040E-01
    -18.326  0.0000E+00  0.0000E+00  0.4040E-01  0.4040E-01
    -18.148  0.0000E+00  0.0000E+00  0.4040E-01  0.4040E-01
    -17.970  0.0000E+00  0.0000E+00  0.4040E-01  0.4040E-01
    -17.791  0.0000E+00  0.0000E+00  0.4040E-01  0.4040E-01
    -17.613  0.0000E+00  0.0000E+00  0.5051E-01  0.5051E-01
    -17.434  0.0000E+00  0.0000E+00  0.7071E-01  0.7071E-01
    -17.256  0.0000E+00  0.0000E+00  0.7071E-01  0.7071E-01
    -17.077  0.0000E+00  0.0000E+00  0.7071E-01  0.7071E-01
    -16.899  0.0000E+00  0.0000E+00  0.7071E-01  0.7071E-01
    -16.721  0.0000E+00  0.0000E+00  0.7071E-01  0.7071E-01
    -16.542  0.0000E+00  0.0000E+00  0.7071E-01  0.7071E-01
    -16.364  0.0000E+00  0.0000E+00  0.7071E-01  0.7071E-01
    -16.185  0.0000E+00  0.0000E+00  0.7071E-01  0.7071E-01
    -16.007  0.0000E+00  0.0000E+00  0.7071E-01  0.7071E-01
    -15.829  0.0000E+00  0.0000E+00  0.7071E-01  0.7071E-01
    -15.650  0.0000E+00  0.0000E+00  0.7071E-01  0.7071E-01
    -15.472  0.0000E+00  0.0000E+00  0.7071E-01  0.7071E-01
    -15.293  0.0000E+00  0.0000E+00  0.7071E-01  0.7071E-01
    -15.115  0.0000E+00  0.0000E+00  0.7071E-01  0.7071E-01
    -14.936  0.0000E+00  0.0000E+00  0.7071E-01  0.7071E-01
    -14.758  0.0000E+00  0.0000E+00  0.7071E-01  0.7071E-01
    -14.580  0.0000E+00  0.0000E+00  0.7071E-01  0.7071E-01
    -14.401  0.0000E+00  0.0000E+00  0.7071E-01  0.7071E-01
    -14.223  0.0000E+00  0.0000E+00  0.7071E-01  0.7071E-01
    -14.044  0.0000E+00  0.0000E+00  0.7071E-01  0.7071E-01
    -13.866  0.0000E+00  0.0000E+00  0.7071E-01  0.7071E-01
    -13.688  0.0000E+00  0.0000E+00  0.7071E-01  0.7071E-01
    -13.509  0.0000E+00  0.0000E+00  0.7071E-01  0.7071E-01
    -13.331  0.0000E+00  0.0000E+00  0.7071E-01  0.7071E-01
    -13.152  0.0000E+00  0.0000E+00  0.7071E-01  0.7071E-01
    -12.974  0.0000E+00  0.0000E+00  0.7071E-01  0.7071E-01
    -12.795  0.0000E+00  0.0000E+00  0.7071E-01  0.7071E-01
    -12.617  0.0000E+00  0.0000E+00  0.7071E-01  0.7071E-01
    -12.439  0.0000E+00  0.0000E+00  0.7071E-01  0.7071E-01
    -12.260  0.0000E+00  0.0000E+00  0.7071E-01  0.7071E-01
    -12.082  0.0000E+00  0.0000E+00  0.7071E-01  0.7071E-01
    -11.903  0.0000E+00  0.0000E+00  0.7071E-01  0.7071E-01
    -11.725  0.0000E+00  0.0000E+00  0.7071E-01  0.7071E-01
    -11.547  0.0000E+00  0.0000E+00  0.7071E-01  0.7071E-01
    -11.368  0.0000E+00  0.0000E+00  0.7071E-01  0.7071E-01
    -11.190  0.0000E+00  0.0000E+00  0.7071E-01  0.7071E-01
    -11.011  0.0000E+00  0.0000E+00  0.7071E-01  0.7071E-01
    -10.833  0.0000E+00  0.0000E+00  0.7071E-01  0.7071E-01
    -10.654  0.0000E+00  0.0000E+00  0.7071E-01  0.7071E-01
    -10.476  0.0000E+00  0.0000E+00  0.7071E-01  0.7071E-01
    -10.298  0.0000E+00  0.0000E+00  0.7071E-01  0.7071E-01
    -10.119  0.0000E+00  0.0000E+00  0.7071E-01  0.7071E-01
     -9.941  0.0000E+00  0.0000E+00  0.7071E-01  0.7071E-01
     -9.762  0.0000E+00  0.0000E+00  0.7071E-01  0.7071E-01
     -9.584  0.8864E-03  0.8864E-03  0.7073E-01  0.7073E-01
     -9.406  0.7225E-02  0.7225E-02  0.7146E-01  0.7146E-01
     -9.227  0.1328E-01  0.1328E-01  0.7322E-01  0.7322E-01
     -9.049  0.2026E-01  0.2026E-01  0.7621E-01  0.7621E-01
     -8.870  0.1504E-01  0.1504E-01  0.7949E-01  0.7949E-01
     -8.692  0.4122E-02  0.4122E-02  0.8097E-01  0.8097E-01
     -8.513  0.9328E-02  0.9328E-02  0.8216E-01  0.8216E-01
     -8.335  0.1758E-01  0.1758E-01  0.8483E-01  0.8483E-01
     -8.157  0.1747E-01  0.1747E-01  0.8801E-01  0.8801E-01
     -7.978  0.1299E-01  0.1299E-01  0.9102E-01  0.9102E-01
     -7.800  0.2805E-01  0.2805E-01  0.9380E-01  0.9380E-01
     -7.621  0.2022E-01  0.2022E-01  0.9935E-01  0.9935E-01
     -7.443  0.0000E+00  0.0000E+00  0.1010E+00  0.1010E+00
     -7.264  0.2675E-01  0.2675E-01  0.1023E+00  0.1023E+00
     -7.086  0.1965E-01  0.1965E-01  0.1062E+00  0.1062E+00
     -6.908  0.3007E-01  0.3007E-01  0.1130E+00  0.1130E+00
     -6.729  0.1453E-01  0.1453E-01  0.1165E+00  0.1165E+00
     -6.551  0.1431E-01  0.1431E-01  0.1189E+00  0.1189E+00
     -6.372  0.0000E+00  0.0000E+00  0.1212E+00  0.1212E+00
     -6.194  0.1080E+00  0.1080E+00  0.1244E+00  0.1244E+00
     -6.016  0.0000E+00  0.0000E+00  0.1313E+00  0.1313E+00
     -5.837  0.0000E+00  0.0000E+00  0.1313E+00  0.1313E+00
     -5.659  0.0000E+00  0.0000E+00  0.1313E+00  0.1313E+00
     -5.480  0.0000E+00  0.0000E+00  0.1313E+00  0.1313E+00
     -5.302  0.0000E+00  0.0000E+00  0.1313E+00  0.1313E+00
     -5.123  0.2332E-03  0.2332E-03  0.1313E+00  0.1313E+00
     -4.945  0.9130E-02  0.9130E-02  0.1319E+00  0.1319E+00
     -4.767  0.2007E-01  0.2007E-01  0.1347E+00  0.1347E+00
     -4.588  0.2149E-01  0.2149E-01  0.1384E+00  0.1384E+00
     -4.410  0.5434E-02  0.5434E-02  0.1412E+00  0.1412E+00
     -4.231  0.0000E+00  0.0000E+00  0.1414E+00  0.1414E+00
     -4.053  0.0000E+00  0.0000E+00  0.1414E+00  0.1414E+00
     -3.875  0.2038E-01  0.2038E-01  0.1418E+00  0.1418E+00
     -3.696  0.2793E-01  0.2793E-01  0.1467E+00  0.1467E+00
     -3.518  0.3185E-01  0.3185E-01  0.1539E+00  0.1539E+00
     -3.339  0.1976E-01  0.1976E-01  0.1596E+00  0.1596E+00
     -3.161  0.1422E-01  0.1422E-01  0.1623E+00  0.1623E+00
     -2.982  0.2005E-01  0.2005E-01  0.1658E+00  0.1658E+00
     -2.804  0.3584E-01  0.3584E-01  0.1709E+00  0.1709E+00
     -2.626  0.6201E-01  0.6201E-01  0.1777E+00  0.1777E+00
     -2.447  0.3134E-01  0.3134E-01  0.1834E+00  0.1834E+00
     -2.269  0.1814E-01  0.1814E-01  0.1914E+00  0.1914E+00
     -2.090  0.1920E-01  0.1920E-01  0.1928E+00  0.1928E+00
     -1.912  0.2190E-01  0.2190E-01  0.1966E+00  0.1966E+00
     -1.734  0.1548E-01  0.1548E-01  0.2000E+00  0.2000E+00
     -1.555  0.0000E+00  0.0000E+00  0.2020E+00  0.2020E+00
     -1.377  0.0000E+00  0.0000E+00  0.2020E+00  0.2020E+00
     -1.198  0.0000E+00  0.0000E+00  0.2020E+00  0.2020E+00
     -1.020  0.0000E+00  0.0000E+00  0.2020E+00  0.2020E+00
     -0.841  0.0000E+00  0.0000E+00  0.2020E+00  0.2020E+00
     -0.663  0.0000E+00  0.0000E+00  0.2020E+00  0.2020E+00
     -0.485  0.0000E+00  0.0000E+00  0.2020E+00  0.2020E+00
     -0.306  0.0000E+00  0.0000E+00  0.2020E+00  0.2020E+00
     -0.128  0.0000E+00  0.0000E+00  0.2020E+00  0.2020E+00
      0.051  0.0000E+00  0.0000E+00  0.2020E+00  0.2020E+00
      0.229  0.0000E+00  0.0000E+00  0.2020E+00  0.2020E+00
      0.407  0.0000E+00  0.0000E+00  0.2020E+00  0.2020E+00
      0.586  0.0000E+00  0.0000E+00  0.2020E+00  0.2020E+00
      0.764  0.0000E+00  0.0000E+00  0.2020E+00  0.2020E+00
      0.943  0.0000E+00  0.0000E+00  0.2020E+00  0.2020E+00
      1.121  0.0000E+00  0.0000E+00  0.2020E+00  0.2020E+00
      1.300  0.0000E+00  0.0000E+00  0.2020E+00  0.2020E+00
      1.478  0.0000E+00  0.0000E+00  0.2020E+00  0.2020E+00
      1.656  0.0000E+00  0.0000E+00  0.2020E+00  0.2020E+00
      1.835  0.0000E+00  0.0000E+00  0.2020E+00  0.2020E+00
      2.013  0.0000E+00  0.0000E+00  0.2020E+00  0.2020E+00
      2.192  0.1545E-01  0.1545E-01  0.2027E+00  0.2027E+00
      2.370  0.5087E-01  0.5087E-01  0.2090E+00  0.2090E+00
      2.548  0.2046E-01  0.2046E-01  0.2146E+00  0.2146E+00
      2.727  0.3432E-01  0.3432E-01  0.2199E+00  0.2199E+00
      2.905  0.1833E-01  0.1833E-01  0.2238E+00  0.2238E+00
      3.084  0.3211E-01  0.3211E-01  0.2300E+00  0.2300E+00
      3.262  0.3116E-01  0.3116E-01  0.2331E+00  0.2331E+00
      3.441  0.3130E-01  0.3130E-01  0.2400E+00  0.2400E+00
      3.619  0.1328E-01  0.1328E-01  0.2431E+00  0.2431E+00
      3.797  0.3818E-01  0.3818E-01  0.2484E+00  0.2484E+00
      3.976  0.2146E-01  0.2146E-01  0.2543E+00  0.2543E+00
      4.154  0.3942E-01  0.3942E-01  0.2605E+00  0.2605E+00
      4.333  0.1580E-01  0.1580E-01  0.2632E+00  0.2632E+00
      4.511  0.6269E-01  0.6269E-01  0.2705E+00  0.2705E+00
      4.689  0.2571E-01  0.2571E-01  0.2735E+00  0.2735E+00
      4.868  0.2245E-01  0.2245E-01  0.2822E+00  0.2822E+00
      5.046  0.4882E-01  0.4882E-01  0.2879E+00  0.2879E+00
      5.225  0.2748E-01  0.2748E-01  0.2942E+00  0.2942E+00
      5.403  0.3940E-01  0.3940E-01  0.3009E+00  0.3009E+00
      5.582  0.3148E-01  0.3148E-01  0.3055E+00  0.3055E+00
      5.760  0.2468E-01  0.2468E-01  0.3108E+00  0.3108E+00
      5.938  0.3941E-01  0.3941E-01  0.3165E+00  0.3165E+00
      6.117  0.2293E-01  0.2293E-01  0.3214E+00  0.3214E+00
      6.295  0.3873E-01  0.3873E-01  0.3273E+00  0.3273E+00
      6.474  0.2259E-01  0.2259E-01  0.3329E+00  0.3329E+00
      6.652  0.4804E-01  0.4804E-01  0.3379E+00  0.3379E+00
      6.831  0.1407E-01  0.1407E-01  0.3431E+00  0.3431E+00
      7.009  0.4199E-01  0.4199E-01  0.3475E+00  0.3475E+00
      7.187  0.2059E-01  0.2059E-01  0.3531E+00  0.3531E+00
      7.366  0.4123E-01  0.4123E-01  0.3594E+00  0.3594E+00
      7.544  0.2126E-01  0.2126E-01  0.3638E+00  0.3638E+00
      7.723  0.3841E-01  0.3841E-01  0.3689E+00  0.3689E+00
      7.901  0.2287E-01  0.2287E-01  0.3739E+00  0.3739E+00
      8.079  0.4246E-01  0.4246E-01  0.3786E+00  0.3786E+00
      8.258  0.1388E-01  0.1388E-01  0.3839E+00  0.3839E+00
      8.436  0.2333E-01  0.2333E-01  0.3871E+00  0.3871E+00
      8.615  0.2555E-01  0.2555E-01  0.3917E+00  0.3917E+00
      8.793  0.2454E-01  0.2454E-01  0.3963E+00  0.3963E+00
      8.972  0.1905E-01  0.1905E-01  0.4001E+00  0.4001E+00
      9.150  0.2357E-01  0.2357E-01  0.4039E+00  0.4039E+00
      9.328  0.1889E-01  0.1889E-01  0.4085E+00  0.4085E+00
      9.507  0.1416E-01  0.1416E-01  0.4120E+00  0.4120E+00
      9.685  0.1990E-01  0.1990E-01  0.4148E+00  0.4148E+00
      9.864  0.1931E-01  0.1931E-01  0.4191E+00  0.4191E+00
     10.042  0.1531E-01  0.1531E-01  0.4221E+00  0.4221E+00
     10.220  0.2548E-01  0.2548E-01  0.4254E+00  0.4254E+00
     10.399  0.1832E-01  0.1832E-01  0.4300E+00  0.4300E+00
     10.577  0.2627E-01  0.2627E-01  0.4342E+00  0.4342E+00
     10.756  0.1778E-01  0.1778E-01  0.4380E+00  0.4380E+00
     10.934  0.2292E-01  0.2292E-01  0.4422E+00  0.4422E+00
     11.113  0.1784E-01  0.1784E-01  0.4455E+00  0.4455E+00
     11.291  0.1656E-01  0.1656E-01  0.4484E+00  0.4484E+00
     11.469  0.2396E-01  0.2396E-01  0.4516E+00  0.4516E+00
     11.648  0.2798E-01  0.2798E-01  0.4572E+00  0.4572E+00
     11.826  0.2074E-01  0.2074E-01  0.4614E+00  0.4614E+00
     12.005  0.1920E-01  0.1920E-01  0.4652E+00  0.4652E+00
     12.183  0.2537E-01  0.2537E-01  0.4701E+00  0.4701E+00
     12.361  0.2837E-01  0.2837E-01  0.4744E+00  0.4744E+00
     12.540  0.2434E-01  0.2434E-01  0.4793E+00  0.4793E+00
     12.718  0.1468E-01  0.1468E-01  0.4827E+00  0.4827E+00
     12.897  0.4997E-02  0.4997E-02  0.4845E+00  0.4845E+00
     13.075  0.3069E-03  0.3069E-03  0.4848E+00  0.4848E+00
     13.254  0.0000E+00  0.0000E+00  0.4848E+00  0.4848E+00
     13.432  0.0000E+00  0.0000E+00  0.4848E+00  0.4848E+00
     13.610  0.0000E+00  0.0000E+00  0.4848E+00  0.4848E+00
     13.789  0.0000E+00  0.0000E+00  0.4848E+00  0.4848E+00
     13.967  0.0000E+00  0.0000E+00  0.4848E+00  0.4848E+00
     14.146  0.0000E+00  0.0000E+00  0.4848E+00  0.4848E+00
     14.324  0.0000E+00  0.0000E+00  0.4848E+00  0.4848E+00
     14.502  0.0000E+00  0.0000E+00  0.4848E+00  0.4848E+00
     14.681  0.0000E+00  0.0000E+00  0.4848E+00  0.4848E+00
     14.859  0.0000E+00  0.0000E+00  0.4848E+00  0.4848E+00
     15.038  0.0000E+00  0.0000E+00  0.4848E+00  0.4848E+00
     15.216  0.0000E+00  0.0000E+00  0.4848E+00  0.4848E+00
     15.395  0.0000E+00  0.0000E+00  0.4848E+00  0.4848E+00
     15.573  0.0000E+00  0.0000E+00  0.4848E+00  0.4848E+00
     15.57296832    -37.95233678  301     -1.51052489      1.00000000
    -37.952  0.0000E+00  0.0000E+00  0.0000E+00  0.0000E+00  0.0000E+00  0.0000E+00  0.0000E+00  0.0000E+00  0.0000E+00  0.0000E+00  0.0000E+00  0.0000E+00  0.0000E+00  0.0000E+00  0.0000E+00  0.0000E+00  0.0000E+00  0.0000E+00
    -37.774  0.0000E+00  0.0000E+00  0.0000E+00  0.0000E+00  0.0000E+00  0.0000E+00  0.0000E+00  0.0000E+00  0.0000E+00  0.0000E+00  0.0000E+00  0.0000E+00  0.0000E+00  0.0000E+00  0.0000E+00  0.0000E+00  0.0000E+00  0.0000E+00
    -37.596  0.0000E+00  0.0000E+00  0.0000E+00  0.0000E+00  0.0000E+00  0.0000E+00  0.0000E+00  0.0000E+00  0.0000E+00  0.0000E+00  0.0000E+00  0.0000E+00  0.0000E+00  0.0000E+00  0.0000E+00  0.0000E+00  0.0000E+00  0.0000E+00
    -37.417  0.0000E+00  0.0000E+00  0.0000E+00  0.0000E+00  0.0000E+00  0.0000E+00  0.0000E+00  0.0000E+00  0.0000E+00  0.0000E+00  0.0000E+00  0.0000E+00  0.0000E+00  0.0000E+00  0.0000E+00  0.0000E+00  0.0000E+00  0.0000E+00
    -37.239  0.0000E+00  0.0000E+00  0.0000E+00  0.0000E+00  0.0000E+00  0.0000E+00  0.0000E+00  0.0000E+00  0.0000E+00  0.0000E+00  0.0000E+00  0.0000E+00  0.0000E+00  0.0000E+00  0.0000E+00  0.0000E+00  0.0000E+00  0.0000E+00
    -37.060  0.0000E+00  0.0000E+00  0.0000E+00  0.0000E+00  0.0000E+00  0.0000E+00  0.0000E+00  0.0000E+00  0.0000E+00  0.0000E+00  0.0000E+00  0.0000E+00  0.0000E+00  0.0000E+00  0.0000E+00  0.0000E+00  0.0000E+00  0.0000E+00
    -36.882  0.0000E+00  0.0000E+00  0.0000E+00  0.0000E+00  0.0000E+00  0.0000E+00  0.0000E+00  0.0000E+00  0.0000E+00  0.0000E+00  0.0000E+00  0.0000E+00  0.0000E+00  0.0000E+00  0.0000E+00  0.0000E+00  0.0000E+00  0.0000E+00
    -36.703  0.0000E+00  0.0000E+00  0.0000E+00  0.0000E+00  0.0000E+00  0.0000E+00  0.0000E+00  0.0000E+00  0.0000E+00  0.0000E+00  0.0000E+00  0.0000E+00  0.0000E+00  0.0000E+00  0.0000E+00  0.0000E+00  0.0000E+00  0.0000E+00
    -36.525  0.0000E+00  0.0000E+00  0.0000E+00  0.0000E+00  0.0000E+00  0.0000E+00  0.0000E+00  0.0000E+00  0.0000E+00  0.0000E+00  0.0000E+00  0.0000E+00  0.0000E+00  0.0000E+00  0.0000E+00  0.0000E+00  0.0000E+00  0.0000E+00
    -36.347  0.0000E+00  0.0000E+00  0.0000E+00  0.0000E+00  0.0000E+00  0.0000E+00  0.0000E+00  0.0000E+00  0.0000E+00  0.0000E+00  0.0000E+00  0.0000E+00  0.0000E+00  0.0000E+00  0.0000E+00  0.0000E+00  0.0000E+00  0.0000E+00
    -36.168  0.0000E+00  0.0000E+00  0.0000E+00  0.0000E+00  0.0000E+00  0.0000E+00  0.0000E+00  0.0000E+00  0.0000E+00  0.0000E+00  0.0000E+00  0.0000E+00  0.0000E+00  0.0000E+00  0.0000E+00  0.0000E+00  0.0000E+00  0.0000E+00
    -35.990  0.0000E+00  0.0000E+00  0.0000E+00  0.0000E+00  0.0000E+00  0.0000E+00  0.0000E+00  0.0000E+00  0.0000E+00  0.0000E+00  0.0000E+00  0.0000E+00  0.0000E+00  0.0000E+00  0.0000E+00  0.0000E+00  0.0000E+00  0.0000E+00
    -35.811  0.0000E+00  0.0000E+00  0.0000E+00  0.0000E+00  0.0000E+00  0.0000E+00  0.0000E+00  0.0000E+00  0.0000E+00  0.0000E+00  0.0000E+00  0.0000E+00  0.0000E+00  0.0000E+00  0.0000E+00  0.0000E+00  0.0000E+00  0.0000E+00
    -35.633  0.0000E+00  0.0000E+00  0.0000E+00  0.0000E+00  0.0000E+00  0.0000E+00  0.0000E+00  0.0000E+00  0.0000E+00  0.0000E+00  0.0000E+00  0.0000E+00  0.0000E+00  0.0000E+00  0.0000E+00  0.0000E+00  0.0000E+00  0.0000E+00
    -35.454  0.0000E+00  0.0000E+00  0.0000E+00  0.0000E+00  0.0000E+00  0.0000E+00  0.0000E+00  0.0000E+00  0.0000E+00  0.0000E+00  0.0000E+00  0.0000E+00  0.0000E+00  0.0000E+00  0.0000E+00  0.0000E+00  0.0000E+00  0.0000E+00
    -35.276  0.0000E+00  0.0000E+00  0.0000E+00  0.0000E+00  0.0000E+00  0.0000E+00  0.0000E+00  0.0000E+00  0.0000E+00  0.0000E+00  0.0000E+00  0.0000E+00  0.0000E+00  0.0000E+00  0.0000E+00  0.0000E+00  0.0000E+00  0.0000E+00
    -35.098  0.0000E+00  0.0000E+00  0.0000E+00  0.0000E+00  0.0000E+00  0.0000E+00  0.0000E+00  0.0000E+00  0.0000E+00  0.0000E+00  0.0000E+00  0.0000E+00  0.0000E+00  0.0000E+00  0.0000E+00  0.0000E+00  0.0000E+00  0.0000E+00
    -34.919  0.0000E+00  0.0000E+00  0.0000E+00  0.0000E+00  0.0000E+00  0.0000E+00  0.0000E+00  0.0000E+00  0.0000E+00  0.0000E+00  0.0000E+00  0.0000E+00  0.0000E+00  0.0000E+00  0.0000E+00  0.0000E+00  0.0000E+00  0.0000E+00
    -34.741  0.0000E+00  0.0000E+00  0.0000E+00  0.0000E+00  0.0000E+00  0.0000E+00  0.0000E+00  0.0000E+00  0.0000E+00  0.0000E+00  0.0000E+00  0.0000E+00  0.0000E+00  0.0000E+00  0.0000E+00  0.0000E+00  0.0000E+00  0.0000E+00
    -34.562  0.0000E+00  0.0000E+00  0.0000E+00  0.0000E+00  0.0000E+00  0.0000E+00  0.0000E+00  0.0000E+00  0.0000E+00  0.0000E+00  0.0000E+00  0.0000E+00  0.0000E+00  0.0000E+00  0.0000E+00  0.0000E+00  0.0000E+00  0.0000E+00
    -34.384  0.0000E+00  0.0000E+00  0.0000E+00  0.0000E+00  0.0000E+00  0.0000E+00  0.0000E+00  0.0000E+00  0.0000E+00  0.0000E+00  0.0000E+00  0.0000E+00  0.0000E+00  0.0000E+00  0.0000E+00  0.0000E+00  0.0000E+00  0.0000E+00
    -34.206  0.0000E+00  0.0000E+00  0.0000E+00  0.0000E+00  0.0000E+00  0.0000E+00  0.0000E+00  0.0000E+00  0.0000E+00  0.0000E+00  0.0000E+00  0.0000E+00  0.0000E+00  0.0000E+00  0.0000E+00  0.0000E+00  0.0000E+00  0.0000E+00
    -34.027  0.0000E+00  0.0000E+00  0.0000E+00  0.0000E+00  0.0000E+00  0.0000E+00  0.0000E+00  0.0000E+00  0.0000E+00  0.0000E+00  0.0000E+00  0.0000E+00  0.0000E+00  0.0000E+00  0.0000E+00  0.0000E+00  0.0000E+00  0.0000E+00
    -33.849  0.0000E+00  0.0000E+00  0.0000E+00  0.0000E+00  0.0000E+00  0.0000E+00  0.0000E+00  0.0000E+00  0.0000E+00  0.0000E+00  0.0000E+00  0.0000E+00  0.0000E+00  0.0000E+00  0.0000E+00  0.0000E+00  0.0000E+00  0.0000E+00
    -33.670  0.0000E+00  0.0000E+00  0.0000E+00  0.0000E+00  0.0000E+00  0.0000E+00  0.0000E+00  0.0000E+00  0.0000E+00  0.0000E+00  0.0000E+00  0.0000E+00  0.0000E+00  0.0000E+00  0.0000E+00  0.0000E+00  0.0000E+00  0.0000E+00
    -33.492  0.0000E+00  0.0000E+00  0.0000E+00  0.0000E+00  0.0000E+00  0.0000E+00  0.0000E+00  0.0000E+00  0.0000E+00  0.0000E+00  0.0000E+00  0.0000E+00  0.0000E+00  0.0000E+00  0.0000E+00  0.0000E+00  0.0000E+00  0.0000E+00
    -33.313  0.0000E+00  0.0000E+00  0.0000E+00  0.0000E+00  0.0000E+00  0.0000E+00  0.0000E+00  0.0000E+00  0.0000E+00  0.0000E+00  0.0000E+00  0.0000E+00  0.0000E+00  0.0000E+00  0.0000E+00  0.0000E+00  0.0000E+00  0.0000E+00
    -33.135  0.0000E+00  0.0000E+00  0.0000E+00  0.0000E+00  0.0000E+00  0.0000E+00  0.0000E+00  0.0000E+00  0.0000E+00  0.0000E+00  0.0000E+00  0.0000E+00  0.0000E+00  0.0000E+00  0.0000E+00  0.0000E+00  0.0000E+00  0.0000E+00
    -32.957  0.0000E+00  0.0000E+00  0.0000E+00  0.0000E+00  0.0000E+00  0.0000E+00  0.0000E+00  0.0000E+00  0.0000E+00  0.0000E+00  0.0000E+00  0.0000E+00  0.0000E+00  0.0000E+00  0.0000E+00  0.0000E+00  0.0000E+00  0.0000E+00
    -32.778  0.0000E+00  0.0000E+00  0.0000E+00  0.0000E+00  0.0000E+00  0.0000E+00  0.0000E+00  0.0000E+00  0.0000E+00  0.0000E+00  0.0000E+00  0.0000E+00  0.0000E+00  0.0000E+00  0.0000E+00  0.0000E+00  0.0000E+00  0.0000E+00
    -32.600  0.0000E+00  0.0000E+00  0.0000E+00  0.0000E+00  0.0000E+00  0.0000E+00  0.0000E+00  0.0000E+00  0.0000E+00  0.0000E+00  0.0000E+00  0.0000E+00  0.0000E+00  0.0000E+00  0.0000E+00  0.0000E+00  0.0000E+00  0.0000E+00
    -32.421  0.0000E+00  0.0000E+00  0.0000E+00  0.0000E+00  0.0000E+00  0.0000E+00  0.0000E+00  0.0000E+00  0.0000E+00  0.0000E+00  0.0000E+00  0.0000E+00  0.0000E+00  0.0000E+00  0.0000E+00  0.0000E+00  0.0000E+00  0.0000E+00
    -32.243  0.0000E+00  0.0000E+00  0.0000E+00  0.0000E+00  0.0000E+00  0.0000E+00  0.0000E+00  0.0000E+00  0.0000E+00  0.0000E+00  0.0000E+00  0.0000E+00  0.0000E+00  0.0000E+00  0.0000E+00  0.0000E+00  0.0000E+00  0.0000E+00
    -32.065  0.0000E+00  0.0000E+00  0.0000E+00  0.0000E+00  0.0000E+00  0.0000E+00  0.0000E+00  0.0000E+00  0.0000E+00  0.0000E+00  0.0000E+00  0.0000E+00  0.0000E+00  0.0000E+00  0.0000E+00  0.0000E+00  0.0000E+00  0.0000E+00
    -31.886  0.0000E+00  0.0000E+00  0.0000E+00  0.0000E+00  0.0000E+00  0.0000E+00  0.0000E+00  0.0000E+00  0.0000E+00  0.0000E+00  0.0000E+00  0.0000E+00  0.0000E+00  0.0000E+00  0.0000E+00  0.0000E+00  0.0000E+00  0.0000E+00
    -31.708  0.0000E+00  0.0000E+00  0.0000E+00  0.0000E+00  0.0000E+00  0.0000E+00  0.0000E+00  0.0000E+00  0.0000E+00  0.0000E+00  0.0000E+00  0.0000E+00  0.0000E+00  0.0000E+00  0.0000E+00  0.0000E+00  0.0000E+00  0.0000E+00
    -31.529  0.0000E+00  0.0000E+00  0.0000E+00  0.0000E+00  0.0000E+00  0.0000E+00  0.0000E+00  0.0000E+00  0.0000E+00  0.0000E+00  0.0000E+00  0.0000E+00  0.0000E+00  0.0000E+00  0.0000E+00  0.0000E+00  0.0000E+00  0.0000E+00
    -31.351  0.0000E+00  0.0000E+00  0.0000E+00  0.0000E+00  0.0000E+00  0.0000E+00  0.0000E+00  0.0000E+00  0.0000E+00  0.0000E+00  0.0000E+00  0.0000E+00  0.0000E+00  0.0000E+00  0.0000E+00  0.0000E+00  0.0000E+00  0.0000E+00
    -31.172  0.0000E+00  0.0000E+00  0.0000E+00  0.0000E+00  0.0000E+00  0.0000E+00  0.0000E+00  0.0000E+00  0.0000E+00  0.0000E+00  0.0000E+00  0.0000E+00  0.0000E+00  0.0000E+00  0.0000E+00  0.0000E+00  0.0000E+00  0.0000E+00
    -30.994  0.0000E+00  0.0000E+00  0.0000E+00  0.0000E+00  0.0000E+00  0.0000E+00  0.0000E+00  0.0000E+00  0.0000E+00  0.0000E+00  0.0000E+00  0.0000E+00  0.0000E+00  0.0000E+00  0.0000E+00  0.0000E+00  0.0000E+00  0.0000E+00
    -30.816  0.0000E+00  0.0000E+00  0.0000E+00  0.0000E+00  0.0000E+00  0.0000E+00  0.0000E+00  0.0000E+00  0.0000E+00  0.0000E+00  0.0000E+00  0.0000E+00  0.0000E+00  0.0000E+00  0.0000E+00  0.0000E+00  0.0000E+00  0.0000E+00
    -30.637  0.0000E+00  0.0000E+00  0.0000E+00  0.0000E+00  0.0000E+00  0.0000E+00  0.0000E+00  0.0000E+00  0.0000E+00  0.0000E+00  0.0000E+00  0.0000E+00  0.0000E+00  0.0000E+00  0.0000E+00  0.0000E+00  0.0000E+00  0.0000E+00
    -30.459  0.0000E+00  0.0000E+00  0.0000E+00  0.0000E+00  0.0000E+00  0.0000E+00  0.0000E+00  0.0000E+00  0.0000E+00  0.0000E+00  0.0000E+00  0.0000E+00  0.0000E+00  0.0000E+00  0.0000E+00  0.0000E+00  0.0000E+00  0.0000E+00
    -30.280  0.0000E+00  0.0000E+00  0.0000E+00  0.0000E+00  0.0000E+00  0.0000E+00  0.0000E+00  0.0000E+00  0.0000E+00  0.0000E+00  0.0000E+00  0.0000E+00  0.0000E+00  0.0000E+00  0.0000E+00  0.0000E+00  0.0000E+00  0.0000E+00
    -30.102  0.0000E+00  0.0000E+00  0.0000E+00  0.0000E+00  0.0000E+00  0.0000E+00  0.0000E+00  0.0000E+00  0.0000E+00  0.0000E+00  0.0000E+00  0.0000E+00  0.0000E+00  0.0000E+00  0.0000E+00  0.0000E+00  0.0000E+00  0.0000E+00
    -29.924  0.0000E+00  0.0000E+00  0.0000E+00  0.0000E+00  0.0000E+00  0.0000E+00  0.0000E+00  0.0000E+00  0.0000E+00  0.0000E+00  0.0000E+00  0.0000E+00  0.0000E+00  0.0000E+00  0.0000E+00  0.0000E+00  0.0000E+00  0.0000E+00
    -29.745  0.0000E+00  0.0000E+00  0.0000E+00  0.0000E+00  0.0000E+00  0.0000E+00  0.0000E+00  0.0000E+00  0.0000E+00  0.0000E+00  0.0000E+00  0.0000E+00  0.0000E+00  0.0000E+00  0.0000E+00  0.0000E+00  0.0000E+00  0.0000E+00
    -29.567  0.0000E+00  0.0000E+00  0.0000E+00  0.0000E+00  0.0000E+00  0.0000E+00  0.0000E+00  0.0000E+00  0.0000E+00  0.0000E+00  0.0000E+00  0.0000E+00  0.0000E+00  0.0000E+00  0.0000E+00  0.0000E+00  0.0000E+00  0.0000E+00
    -29.388  0.0000E+00  0.0000E+00  0.0000E+00  0.0000E+00  0.0000E+00  0.0000E+00  0.0000E+00  0.0000E+00  0.0000E+00  0.0000E+00  0.0000E+00  0.0000E+00  0.0000E+00  0.0000E+00  0.0000E+00  0.0000E+00  0.0000E+00  0.0000E+00
    -29.210  0.0000E+00  0.0000E+00  0.0000E+00  0.0000E+00  0.0000E+00  0.0000E+00  0.0000E+00  0.0000E+00  0.0000E+00  0.0000E+00  0.0000E+00  0.0000E+00  0.0000E+00  0.0000E+00  0.0000E+00  0.0000E+00  0.0000E+00  0.0000E+00
    -29.031  0.0000E+00  0.0000E+00  0.0000E+00  0.0000E+00  0.0000E+00  0.0000E+00  0.0000E+00  0.0000E+00  0.0000E+00  0.0000E+00  0.0000E+00  0.0000E+00  0.0000E+00  0.0000E+00  0.0000E+00  0.0000E+00  0.0000E+00  0.0000E+00