unknown system                          
           1
     4.702288    0.030085   -0.069424
     0.112499    5.653740   -0.179049
     0.444736    1.257555    5.871022
   Sr   Nb   H 
   1   1  19
Direct configuration=     1
   0.95341900  0.46018100  0.53867000
   0.54343900  0.97208600  0.49858700
   0.73062300  0.55408000  0.98913100
   0.72843100  0.43450900  0.07025700
   0.01171000  0.07889100  0.94768500
   0.96959500  0.09285300  0.06769600
   0.25576200  0.37616100  0.89999000
   0.34017100  0.46704500  0.81643800
   0.23264700  0.90930900  0.73124000
   0.37281500  0.88534600  0.81010200
   0.25790700  0.59740700  0.16754800
   0.12486400  0.67137300  0.13929200
   0.80168800  0.17419500  0.32786100
   0.36758300  0.04310400  0.19540500
   0.52257400  0.99069600  0.16372100
   0.79049400  0.82521100  0.32209800
   0.43075100  0.65957000  0.50847100
   0.16702200  0.97097900  0.47800500
   0.41083000  0.28581800  0.45795900
   0.68734400  0.11967000  0.70889300
   0.74884500  0.78404200  0.71323000
unknown system                          
           1
     4.749725    0.030887   -0.070159
     0.114248    5.711757   -0.179512
     0.449364    1.272034    5.934483
   Sr   Nb   H 
   1   1  19
Direct configuration=     2
   0.95343315  0.46013181  0.53849034
   0.54402428  0.97246671  0.49866270
   0.73076621  0.55380992  0.98935513
   0.72852228  0.43481632  0.07013484
   0.01137391  0.07882232  0.94763010
   0.96962779  0.09283550  0.06755056
   0.25571781  0.37605899  0.89998129
   0.34007322  0.46686761  0.81646863
   0.23367273  0.90912916  0.73186006
   0.37217824  0.88552676  0.80954472
   0.25792392  0.59748616  0.16760675
   0.12495220  0.67138098  0.13928710
   0.80120828  0.17392337  0.32822380
   0.36796835  0.04295189  0.19532122
   0.52194710  0.99100467  0.16382271
   0.78986011  0.82538645  0.32243671
   0.43084670  0.65993600  0.50854378
   0.16790719  0.97096895  0.47805720
   0.41090645  0.28531910  0.45810694
   0.68709620  0.11949439  0.70833106
   0.74850787  0.78420892  0.71286337
unknown system                          
           1
     4.858264    0.032722   -0.071841
     0.118250    5.844505   -0.180572
     0.459952    1.305163    6.079687
   Sr   Nb   H 
   1   1  19
Direct configuration=     3
   0.95346520  0.46002047  0.53808368
   0.54534999  0.97332886  0.49883384
   0.73109070  0.55319810  0.98986260
   0.72872896  0.43551242  0.06985816
   0.01061261  0.07866686  0.94750586
   0.96970206  0.09279590  0.06722136
   0.25561774  0.37582796  0.89996163
   0.33985177  0.46646583  0.81653805
   0.23599634  0.90872140  0.73326373
   0.37073575  0.88593650  0.80828317
   0.25796223  0.59766544  0.16773970
   0.12515200  0.67139904  0.13927601
   0.80012172  0.17330812  0.32904516
   0.36884128  0.04260732  0.19513165
   0.52052696  0.99170388  0.16405278
   0.78842420  0.82578385  0.32320331
   0.43106341  0.66076492  0.50870834
   0.16991236  0.97094600  0.47817537
   0.41107975  0.28418906  0.45844208
   0.68653486  0.11909689  0.70705913
   0.74774412  0.78458717  0.71203338
unknown system                          
           1
     4.881374    0.033894   -0.071081
     0.120032    5.872321   -0.178934
     0.463864    1.314225    6.114820
   Sr   Nb   H 
   1   1  19
Direct configuration=     4
   0.95325352  0.46009392  0.53771977
   0.54511230  0.97292736  0.49887795
   0.73118101  0.55208957  0.99063353
   0.72882219  0.43664829  0.06915375
   0.00980286  0.07879803  0.94901284
   0.97022297  0.09259474  0.06560599
   0.25658189  0.37689519  0.89887367
   0.33866843  0.46522735  0.81752847
   0.23726390  0.90868306  0.73340357
   0.37044692  0.88617315  0.80756260
   0.25628210  0.59862931  0.16747973
   0.12684535  0.67046365  0.13968243
   0.79924493  0.17275750  0.32980374
   0.37007420  0.04215210  0.19530160
   0.51935284  0.99218981  0.16469480
   0.78739368  0.82622234  0.32409874
   0.43144299  0.66197814  0.50877407
   0.17193201  0.97100100  0.47825633
   0.41130205  0.28309970  0.45873368
   0.68621646  0.11881118  0.70600692
   0.74707140  0.78509062  0.71107483
unknown system                          
           1
     4.914841    0.035592   -0.069981
     0.122611    5.912603   -0.176561
     0.469528    1.327349    6.165696
   Sr   Nb   H 
   1   1  19
Direct configuration=     5
   0.95294854  0.46019997  0.53719584
   0.54476985  0.97234869  0.49894176
   0.73131124  0.55049145  0.99174411
   0.72895647  0.43828575  0.06813887
   0.00863519  0.07898669  0.95118267
   0.97097439  0.09230530  0.06328020
   0.25797156  0.37843368  0.89730637
   0.33696294  0.46344208  0.81895548
   0.23909077  0.90862750  0.73360459
   0.37003083  0.88651458  0.80652509
   0.25386035  0.60001902  0.16710531
   0.12928607  0.66911493  0.14026768
   0.79798113  0.17196373  0.33089648
   0.37185126  0.04149566  0.19554623
   0.51766023  0.99289021  0.16561920
   0.78590796  0.82685423  0.32538796
   0.43198967  0.66372674  0.50886789
   0.17484284  0.97107988  0.47837234
   0.41162267  0.28152937  0.45915409
   0.68575803  0.11839980  0.70449223
   0.74610201  0.78581676  0.70969462
unknown system                          
           1
     4.912395    0.034715   -0.069720
     0.121532    5.905604   -0.176888
     0.469467    1.325496    6.170484
   Sr   Nb   H 
   1   1  19
Direct configuration=     6
   0.95252864  0.46031139  0.53673533
   0.54484134  0.97233764  0.49900463
   0.73136103  0.55150347  0.99105894
   0.72895841  0.43727297  0.06883977
   0.00898241  0.07878320  0.94976160
   0.97048243  0.09245574  0.06466734
   0.25682644  0.37728278  0.89831277
   0.33789013  0.46454654  0.81784609
   0.23938244  0.90878632  0.73302838
   0.37074420  0.88659184  0.80628979
   0.25557406  0.59903495  0.16756018
   0.12751152  0.67005681  0.13994185
   0.79705644  0.17133452  0.33176522
   0.37153420  0.04154904  0.19619086
   0.51820821  0.99275773  0.16606030
   0.78510706  0.82719240  0.32637412
   0.43230106  0.66487374  0.50889442
   0.17656870  0.97112086  0.47842868
   0.41172987  0.28038497  0.45947963
   0.68547596  0.11809422  0.70339149
   0.74544946  0.78625488  0.70864760
unknown system                          
           1
     4.911359    0.034344   -0.069610
     0.121075    5.902642   -0.177026
     0.469441    1.324711    6.172510
   Sr   Nb   H 
   1   1  19
Direct configuration=     7
   0.95235083  0.46035848  0.53654059
   0.54487162  0.97233297  0.49903122
   0.73138216  0.55193216  0.99076920
   0.72895918  0.43684396  0.06913616
   0.00912938  0.07869671  0.94916059
   0.97027416  0.09251974  0.06525401
   0.25634147  0.37679524  0.89873837
   0.33828280  0.46501438  0.81737693
   0.23950595  0.90885352  0.73278470
   0.37104628  0.88662457  0.80619027
   0.25629967  0.59861817  0.16775250
   0.12676014  0.67045574  0.13980411
   0.79666485  0.17106801  0.33213261
   0.37139996  0.04157178  0.19646349
   0.51844026  0.99270172  0.16624684
   0.78476798  0.82733584  0.32679122
   0.43243302  0.66535979  0.50890568
   0.17729953  0.97113835  0.47845249
   0.41177518  0.27990012  0.45961726
   0.68535646  0.11796449  0.70292595
   0.74517313  0.78644027  0.70820482
unknown system                          
           1
     4.903343    0.033773   -0.068320
     0.120282    5.886730   -0.175261
     0.470153    1.322906    6.172414
   Sr   Nb   H 
   1   1  19
Direct configuration=     8
   0.95178187  0.46052078  0.53586925
   0.54471202  0.97225320  0.49905380
   0.73143593  0.55193473  0.99077056
   0.72900126  0.43685602  0.06914770
   0.00886103  0.07865500  0.94926983
   0.97026014  0.09247030  0.06511117
   0.25623117  0.37684963  0.89857147
   0.33799889  0.46491539  0.81730251
   0.24020826  0.90908963  0.73194741
   0.37204082  0.88680553  0.80564853
   0.25612876  0.59865274  0.16787314
   0.12681538  0.67035207  0.13992985
   0.79534837  0.17018613  0.33341878
   0.37132755  0.04150797  0.19747181
   0.51891531  0.99262590  0.16711382
   0.78364048  0.82778835  0.32829219
   0.43285974  0.66703577  0.50896388
   0.17981449  0.97119131  0.47853052
   0.41187041  0.27821965  0.46013856
   0.68502311  0.11757759  0.70124006
   0.74423902  0.78703834  0.70661411
unknown system                          
           1
     4.886235    0.032556   -0.065567
     0.118589    5.852773   -0.171493
     0.471673    1.319053    6.172208
   Sr   Nb   H 
   1   1  19
Direct configuration=     9
   0.95056591  0.46086750  0.53443669
   0.54437081  0.97208246  0.49910211
   0.73155086  0.55194023  0.99077345
   0.72909121  0.43688184  0.06917232
   0.00828736  0.07856573  0.94950310
   0.97023021  0.09236441  0.06480636
   0.25599545  0.37696587  0.89821530
   0.33739200  0.46470344  0.81714384
   0.24170987  0.90959454  0.73016014
   0.37416700  0.88719269  0.80449189
   0.25576339  0.59872675  0.16813067
   0.12693340  0.67013032  0.14019824
   0.79253362  0.16829940  0.33616454
   0.37117242  0.04137205  0.19962377
   0.51993047  0.99246434  0.16896393
   0.78122996  0.82875735  0.33149574
   0.43377229  0.67062244  0.50908718
   0.18519047  0.97130541  0.47869601
   0.41207339  0.27462386  0.46125180
   0.68431100  0.11674846  0.69764246
   0.74224291  0.78831689  0.70321944
unknown system                          
           1
     4.891361    0.032904   -0.064859
     0.119118    5.854155   -0.169881
     0.473275    1.321369    6.182243
   Sr   Nb   H 
   1   1  19
Direct configuration=    10
   0.95021113  0.46093916  0.53383841
   0.54426368  0.97227175  0.49897940
   0.73159483  0.55155350  0.99106568
   0.72912165  0.43733130  0.06889086
   0.00775524  0.07854703  0.95024011
   0.97036775  0.09219516  0.06406200
   0.25617015  0.37736962  0.89768733
   0.33678048  0.46427974  0.81736258
   0.24248920  0.90972082  0.72976712
   0.37477200  0.88745051  0.80375416
   0.25507686  0.59905970  0.16814116
   0.12753122  0.66974434  0.14041851
   0.79256523  0.16845762  0.33652153
   0.37163806  0.04113080  0.20049663
   0.51982477  0.99257479  0.16994940
   0.78146534  0.82845220  0.33202977
   0.43349486  0.67052090  0.50917579
   0.18492046  0.97127202  0.47865186
   0.41145887  0.27456633  0.46161399
   0.68474042  0.11710667  0.69698897
   0.74227182  0.78798203  0.70264374
unknown system                          
           1
     4.898587    0.033396   -0.063862
     0.119864    5.856104   -0.167608
     0.475534    1.324634    6.196391
   Sr   Nb   H 
   1   1  19
Direct configuration=    11
   0.94971161  0.46104020  0.53299636
   0.54411281  0.97253857  0.49880663
   0.73165672  0.55100836  0.99147714
   0.72916454  0.43796484  0.06849452
   0.00700564  0.07852067  0.95127756
   0.97056166  0.09195661  0.06301434
   0.25641627  0.37793875  0.89694401
   0.33591924  0.46368252  0.81767074
   0.24358686  0.90989881  0.72921374
   0.37562419  0.88781394  0.80271559
   0.25410994  0.59952904  0.16815592
   0.12837316  0.66920026  0.14072858
   0.79260965  0.16868063  0.33702394
   0.37229365  0.04079069  0.20172521
   0.51967565  0.99273043  0.17133646
   0.78179674  0.82802204  0.33278150
   0.43310413  0.67037779  0.50930059
   0.18454021  0.97122496  0.47858979
   0.41059332  0.27448524  0.46212391
   0.68534531  0.11761161  0.69606896
   0.74231271  0.78751004  0.70183353
unknown system                          
           1
     4.900819    0.033469   -0.063723
     0.119999    5.857176   -0.167200
     0.475997    1.325433    6.200725
   Sr   Nb   H 
   1   1  19
Direct configuration=    12
   0.94960075  0.46106383  0.53280393
   0.54408919  0.97255663  0.49879325
   0.73167316  0.55099013  0.99149969
   0.72917106  0.43800713  0.06847413
   0.00689218  0.07848914  0.95132589
   0.97054427  0.09192292  0.06296098
   0.25636935  0.37796164  0.89687232
   0.33581930  0.46365407  0.81763943
   0.24382266  0.90994229  0.72908598
   0.37583066  0.88789837  0.80248147
   0.25405781  0.59954380  0.16819570
   0.12839795  0.66917006  0.14076061
   0.79263373  0.16874884  0.33712641
   0.37239130  0.04073031  0.20201838
   0.51969226  0.99275160  0.17164195
   0.78188239  0.82792202  0.33294360
   0.43300812  0.67033164  0.50932709
   0.18443447  0.97121481  0.47857471
   0.41038351  0.27449467  0.46223813
   0.68549114  0.11773679  0.69586543
   0.74232872  0.78739531  0.70164993
unknown system                          
           1
     4.907515    0.033688   -0.063306
     0.120405    5.860390   -0.165978
     0.477387    1.327830    6.213726
   Sr   Nb   H 
   1   1  19
Direct configuration=    13
   0.94926834  0.46113469  0.53222706
   0.54401837  0.97261081  0.49875316
   0.73172249  0.55093543  0.99156731
   0.72919063  0.43813397  0.06841297
   0.00655196  0.07839458  0.95147078
   0.97049214  0.09182187  0.06280101
   0.25622865  0.37803032  0.89665739
   0.33551965  0.46356874  0.81754560
   0.24452976  0.91007269  0.72870294
   0.37644978  0.88815158  0.80177958
   0.25390150  0.59958805  0.16831496
   0.12847228  0.66907951  0.14085661
   0.79270593  0.16895344  0.33743360
   0.37268409  0.04054920  0.20289728
   0.51974204  0.99281510  0.17255778
   0.78213923  0.82762204  0.33342958
   0.43272025  0.67019324  0.50940655
   0.18411737  0.97118437  0.47852950
   0.40975434  0.27452297  0.46258057
   0.68592845  0.11811225  0.69525523
   0.74237676  0.78705114  0.70109954
unknown system                          
           1
     4.908727    0.033639   -0.063417
     0.120372    5.861371   -0.166051
     0.477383    1.328046    6.216331
   Sr   Nb   H 
   1   1  19
Direct configuration=    14
   0.94924640  0.46114116  0.53217717
   0.54402477  0.97256548  0.49877812
   0.73173035  0.55108924  0.99146652
   0.72918739  0.43799056  0.06851338
   0.00660855  0.07834759  0.95120319
   0.97039776  0.09184316  0.06306386
   0.25606307  0.37787788  0.89678352
   0.33563465  0.46371913  0.81738815
   0.24456649  0.91008925  0.72866378
   0.37652724  0.88817485  0.80172477
   0.25413738  0.59945371  0.16837999
   0.12823091  0.66921008  0.14080779
   0.79271820  0.16898633  0.33744922
   0.37262044  0.04056133  0.20299790
   0.51983378  0.99279459  0.17262067
   0.78215973  0.82760388  0.33346503
   0.43269141  0.67017546  0.50941042
   0.18409665  0.97118124  0.47852804
   0.40968922  0.27455374  0.46260886
   0.68596825  0.11814874  0.69520348
   0.74238137  0.78701858  0.70104515
unknown system                          
           1
     4.912364    0.033491   -0.063750
     0.120273    5.864312   -0.166270
     0.477371    1.328694    6.224147
   Sr   Nb   H 
   1   1  19
Direct configuration=    15
   0.94918059  0.46116057  0.53202753
   0.54404395  0.97242953  0.49885296
   0.73175394  0.55155059  0.99116428
   0.72917766  0.43756042  0.06881449
   0.00677826  0.07820660  0.95040075
   0.97011471  0.09190706  0.06385209
   0.25556648  0.37742063  0.89716171
   0.33597958  0.46417021  0.81691602
   0.24467665  0.91013893  0.72854633
   0.37675955  0.88824461  0.80156042
   0.25484486  0.59905078  0.16857501
   0.12750697  0.66960171  0.14066138
   0.79275498  0.16908501  0.33749605
   0.37242954  0.04059773  0.20329963
   0.52010892  0.99273310  0.17280928
   0.78222121  0.82754940  0.33357132
   0.43260491  0.67012212  0.50942202
   0.18403448  0.97117185  0.47852365
   0.40949393  0.27464602  0.46269370
   0.68608760  0.11825820  0.69504832
   0.74239521  0.78692093  0.70088203
