       N       E                     dE             d eps       ncg     rms          rms(c)
DAV:   1     0.327272353440E+03    0.32727E+03   -0.19087E+04 23552   0.824E+02
DAV:   2    -0.664757399313E+02   -0.39375E+03   -0.38169E+03 28792   0.382E+02
DAV:   3    -0.891253297270E+02   -0.22650E+02   -0.22347E+02 36304   0.825E+01
DAV:   4    -0.901568294002E+02   -0.10315E+01   -0.10283E+01 40768   0.150E+01
DAV:   5    -0.901800822910E+02   -0.23253E-01   -0.23241E-01 37952   0.207E+00    0.547E+01
DAV:   6    -0.842296440130E+02    0.59504E+01   -0.17299E+01 34696   0.254E+01    0.201E+01
DAV:   7    -0.836966347780E+02    0.53301E+00   -0.20439E+00 30400   0.812E+00    0.925E+00
DAV:   8    -0.836373863035E+02    0.59248E-01   -0.64038E-01 39536   0.625E+00    0.287E+00
DAV:   9    -0.836258568167E+02    0.11529E-01   -0.17237E-01 36712   0.314E+00    0.141E+00
DAV:  10    -0.836252812606E+02    0.57556E-03   -0.18365E-02 34352   0.878E-01    0.836E-01
DAV:  11    -0.836264273313E+02   -0.11461E-02   -0.80936E-03 32368   0.505E-01    0.188E-01
DAV:  12    -0.836263344738E+02    0.92858E-04   -0.14574E-03 34064   0.357E-01    0.107E-01
DAV:  13    -0.836263623609E+02   -0.27887E-04   -0.11266E-04 18640   0.964E-02
   1 F= -.83626362E+02 E0= -.83626403E+02  d E =-.836264E+02
       N       E                     dE             d eps       ncg     rms          rms(c)
DAV:   1    -0.836290829990E+02   -0.27485E-02   -0.11603E-01 25560   0.236E+00    0.438E-01
DAV:   2    -0.836288056165E+02    0.27738E-03   -0.13493E-02 28512   0.786E-01    0.149E-01
DAV:   3    -0.836285823087E+02    0.22331E-03   -0.10498E-03 34232   0.260E-01    0.735E-02
DAV:   4    -0.836285194647E+02    0.62844E-04   -0.20487E-04 18688   0.145E-01
   2 F= -.83628519E+02 E0= -.83628557E+02  d E =-.215710E-02
       N       E                     dE             d eps       ncg     rms          rms(c)
DAV:   1    -0.836313242901E+02   -0.27420E-02   -0.40687E-01 23760   0.443E+00    0.811E-01
DAV:   2    -0.836300926070E+02    0.12317E-02   -0.47370E-02 28248   0.148E+00    0.260E-01
DAV:   3    -0.836292435051E+02    0.84910E-03   -0.36142E-03 34944   0.477E-01    0.148E-01
DAV:   4    -0.836290242461E+02    0.21926E-03   -0.82719E-04 32480   0.260E-01    0.917E-02
DAV:   5    -0.836289741510E+02    0.50095E-04   -0.23923E-04 22760   0.136E-01
   3 F= -.83628974E+02 E0= -.83629011E+02  d E =-.261179E-02
       N       E                     dE             d eps       ncg     rms          rms(c)
DAV:   1    -0.836307259344E+02   -0.17017E-02   -0.29124E-01 23320   0.426E+00    0.802E-01
DAV:   2    -0.836313125206E+02   -0.58659E-03   -0.47111E-02 27504   0.142E+00    0.230E-01
DAV:   3    -0.836309649260E+02    0.34759E-03   -0.25705E-03 35168   0.302E-01    0.100E-01
DAV:   4    -0.836308448098E+02    0.12012E-03   -0.28910E-04 23848   0.101E-01    0.700E-02
DAV:   5    -0.836308385303E+02    0.62795E-05   -0.80049E-05 19264   0.835E-02
   4 F= -.83630839E+02 E0= -.83630874E+02  d E =-.186438E-02
       N       E                     dE             d eps       ncg     rms          rms(c)
DAV:   1    -0.836308348537E+02    0.99561E-05   -0.84745E-05 17488   0.879E-02    0.305E-02
DAV:   2    -0.836308354946E+02   -0.64098E-06   -0.33773E-05 15560   0.554E-02
   5 F= -.83630835E+02 E0= -.83630872E+02  d E =-.186134E-02
       N       E                     dE             d eps       ncg     rms          rms(c)
DAV:   1    -0.836305808677E+02    0.25399E-03   -0.92950E-02 25504   0.233E+00    0.213E-01
DAV:   2    -0.836315143122E+02   -0.93344E-03   -0.13200E-02 23648   0.680E-01    0.816E-02
DAV:   3    -0.836314786848E+02    0.35627E-04   -0.36698E-04 29760   0.130E-01
   6 F= -.83631479E+02 E0= -.83631513E+02  d E =-.643190E-03
       N       E                     dE             d eps       ncg     rms          rms(c)
DAV:   1    -0.836312601030E+02    0.25421E-03   -0.28311E-02 25576   0.129E+00    0.121E-01
DAV:   2    -0.836315137041E+02   -0.25360E-03   -0.39556E-03 24512   0.373E-01    0.585E-02
DAV:   3    -0.836314935256E+02    0.20179E-04   -0.10619E-04 21584   0.710E-02
   7 F= -.83631494E+02 E0= -.83631525E+02  d E =-.658031E-03
