unknown system                          
           1
     6.320376    0.685614    0.651542
     2.511128    6.528813   -0.094749
     1.801967    0.050632    5.376385
   H    Nb   H    Nb   H    Sr   H    Sr
   2   1   5   1   7   2   1   1
Direct configuration=     1
   0.95856821  0.54095596  0.07193609
   0.01061161  0.53019009  0.47316744
   0.26180428  0.47124492  0.12008673
   0.48185529  0.30196034  0.28039586
   0.82295322  0.96946658  0.47587586
   0.07927691  0.77957121  0.13464358
   0.15254425  0.84076516  0.59317750
   0.44613888  0.88925459  0.35252322
   0.14736644  0.96252016  0.29248076
   0.93083253  0.16773469  0.57204662
   0.21315650  0.21344103  0.21765014
   0.48423228  0.26057227  0.84873556
   0.32975635  0.65263991  0.27530688
   0.39684919  0.90852328  0.94149055
   0.57548395  0.47873549  0.92522208
   0.25310819  0.56811552  0.80998116
   0.20873199  0.21644315  0.70510916
   0.63979216  0.49706190  0.45582258
   0.93197378  0.13949714  0.12695466
   0.77186898  0.93265563  0.95986756
unknown system                          
           1
     6.337711    0.697721    0.646677
     2.532005    6.524851   -0.104267
     1.804477    0.047384    5.364195
   H    Nb   H    Nb   H    Sr   H    Sr
   2   1   5   1   7   2   1   1
Direct configuration=     2
   0.95894283  0.54103248  0.07214803
   0.01113690  0.52967087  0.47270795
   0.26116890  0.47123829  0.12037051
   0.48250432  0.30137568  0.28079627
   0.82329468  0.96935429  0.47612102
   0.08034722  0.77971324  0.13430130
   0.15223331  0.84189431  0.59290791
   0.44613204  0.88924478  0.35195017
   0.14696435  0.96233019  0.29243529
   0.93109830  0.16757150  0.57115273
   0.21298775  0.21345534  0.21726667
   0.48428460  0.26045829  0.84972592
   0.32933139  0.65271275  0.27515757
   0.39694916  0.90858005  0.94174552
   0.57509141  0.47868386  0.92565318
   0.25275151  0.56811463  0.81043435
   0.20873323  0.21656498  0.70494889
   0.63942899  0.49685111  0.45655157
   0.93186692  0.13920091  0.12692698
   0.77165719  0.93330144  0.95917215
unknown system                          
           1
     6.366925    0.718126    0.638478
     2.567191    6.518172   -0.120308
     1.808707    0.041909    5.343650
   H    Nb   H    Nb   H    Sr   H    Sr
   2   1   5   1   7   2   1   1
Direct configuration=     3
   0.95957160  0.54116079  0.07250713
   0.01202488  0.52879300  0.47193067
   0.26010010  0.47122911  0.12084864
   0.48359889  0.30038797  0.28147173
   0.82386902  0.96916418  0.47653544
   0.08214637  0.77994962  0.13372572
   0.15170284  0.84379984  0.59245628
   0.44612190  0.88922764  0.35098199
   0.14628985  0.96201074  0.29235693
   0.93154834  0.16729454  0.56964246
   0.21270481  0.21347954  0.21661855
   0.48437117  0.26026688  0.85139873
   0.32861674  0.65283663  0.27490478
   0.39711623  0.90867583  0.94217667
   0.57443087  0.47859828  0.92638052
   0.25215084  0.56811457  0.81119927
   0.20873478  0.21677035  0.70467860
   0.63881833  0.49649725  0.45778159
   0.93168951  0.13870141  0.12687885
   0.77129794  0.93439083  0.95799943
unknown system                          
           1
     6.381516    0.727646    0.634378
     2.583460    6.519831   -0.127779
     1.810166    0.039654    5.339279
   H    Nb   H    Nb   H    Sr   H    Sr
   2   1   5   1   7   2   1   1
Direct configuration=     4
   0.95956707  0.54142296  0.07288186
   0.01188230  0.52845445  0.47219388
   0.26071101  0.47115368  0.12166751
   0.48392599  0.29987080  0.28181693
   0.82423192  0.96912911  0.47681972
   0.08293712  0.78028947  0.13293225
   0.15138441  0.84487269  0.59288506
   0.44587007  0.88914951  0.35025185
   0.14759613  0.96182867  0.29097307
   0.93123816  0.16776370  0.56955168
   0.21238505  0.21331031  0.21623004
   0.48470575  0.25968108  0.85169600
   0.32816433  0.65266019  0.27498023
   0.39752630  0.90855809  0.94204278
   0.57349935  0.47838786  0.92715785
   0.25165613  0.56814122  0.81127928
   0.20872866  0.21680567  0.70453588
   0.63837116  0.49648282  0.45828724
   0.93132510  0.13858910  0.12667749
   0.77119897  0.93479762  0.95761341
unknown system                          
           1
     6.394414    0.736061    0.630754
     2.597841    6.521297   -0.134383
     1.811456    0.037661    5.335415
   H    Nb   H    Nb   H    Sr   H    Sr
   2   1   5   1   7   2   1   1
Direct configuration=     5
   0.95956214  0.54165486  0.07321379
   0.01175731  0.52815544  0.47242608
   0.26124960  0.47108663  0.12239236
   0.48421573  0.29941342  0.28212180
   0.82455195  0.96909781  0.47707148
   0.08363414  0.78058872  0.13223148
   0.15110037  0.84582154  0.59326580
   0.44564857  0.88908045  0.34960556
   0.14874964  0.96166580  0.28974964
   0.93096333  0.16817872  0.56947184
   0.21210369  0.21316093  0.21588578
   0.48500230  0.25916300  0.85195836
   0.32776571  0.65250475  0.27504630
   0.39788840  0.90845351  0.94192450
   0.57267782  0.47820317  0.92784441
   0.25121965  0.56816534  0.81134968
   0.20872326  0.21683685  0.70440967
   0.63797648  0.49647074  0.45873417
   0.93100410  0.13849015  0.12649886
   0.77111079  0.93515717  0.95727245
unknown system                          
           1
     6.402369    0.741478    0.627704
     2.606507    6.526555   -0.138952
     1.811367    0.036390    5.335173
   H    Nb   H    Nb   H    Sr   H    Sr
   2   1   5   1   7   2   1   1
Direct configuration=     6
   0.95963893  0.54204060  0.07393498
   0.01103930  0.52804515  0.47347203
   0.26118971  0.47100224  0.12246801
   0.48446002  0.29882959  0.28258768
   0.82571317  0.96913893  0.47684287
   0.08444249  0.78097321  0.13092703
   0.15108090  0.84700711  0.59369240
   0.44563381  0.88881591  0.34859149
   0.14857615  0.96206843  0.28999109
   0.93064801  0.16891266  0.56951409
   0.21179716  0.21312279  0.21533958
   0.48543862  0.25835101  0.85177711
   0.32751770  0.65211466  0.27557033
   0.39910229  0.90803605  0.94080714
   0.57159250  0.47778846  0.92880801
   0.25072140  0.56797217  0.81154684
   0.20870013  0.21682935  0.70443301
   0.63752986  0.49665932  0.45896143
   0.93073137  0.13848260  0.12604028
   0.77135149  0.93515877  0.95716861
unknown system                          
           1
     6.426235    0.757728    0.618555
     2.632504    6.542329   -0.152660
     1.811101    0.032579    5.334446
   H    Nb   H    Nb   H    Sr   H    Sr
   2   1   5   1   7   2   1   1
Direct configuration=     7
   0.95986723  0.54319734  0.07609997
   0.00888793  0.52771665  0.47660824
   0.26101056  0.47074939  0.12269461
   0.48519432  0.29707904  0.28398417
   0.82919273  0.96925962  0.47615953
   0.08686351  0.78212339  0.12701625
   0.15101757  0.85056180  0.59497579
   0.44559092  0.88802225  0.34554827
   0.14805457  0.96327604  0.29071635
   0.92970010  0.17111372  0.56964242
   0.21087893  0.21300876  0.21370013
   0.48674946  0.25591562  0.85123178
   0.32677600  0.65094600  0.27714084
   0.40274175  0.90678124  0.93745610
   0.56834175  0.47654804  0.93169550
   0.24922910  0.56739421  0.81213678
   0.20863086  0.21680693  0.70450295
   0.63619069  0.49722576  0.45964289
   0.92991425  0.13846023  0.12466389
   0.77207277  0.93516297  0.95685756
unknown system                          
           1
     6.430727    0.760186    0.616116
     2.637266    6.542811   -0.157007
     1.811057    0.030268    5.329981
   H    Nb   H    Nb   H    Sr   H    Sr
   2   1   5   1   7   2   1   1
Direct configuration=     8
   0.95971518  0.54378207  0.07706429
   0.00823829  0.52774504  0.47750913
   0.25992748  0.47044925  0.12365399
   0.48507794  0.29663282  0.28433703
   0.83059450  0.96933368  0.47587957
   0.08803798  0.78238973  0.12555120
   0.15120478  0.85197280  0.59549718
   0.44590962  0.88761550  0.34443518
   0.14855590  0.96302799  0.28949418
   0.92933813  0.17206517  0.56969823
   0.21054284  0.21321416  0.21301775
   0.48680450  0.25543485  0.85122336
   0.32622691  0.65078158  0.27800487
   0.40375035  0.90630983  0.93667183
   0.56747583  0.47603212  0.93244559
   0.24883459  0.56692205  0.81230490
   0.20861020  0.21672600  0.70470749
   0.63567728  0.49760547  0.45981336
   0.92985907  0.13847933  0.12425158
   0.77252363  0.93482956  0.95691330
unknown system                          
           1
     6.441753    0.766223    0.610128
     2.648959    6.543995   -0.167681
     1.810948    0.024595    5.319022
   H    Nb   H    Nb   H    Sr   H    Sr
   2   1   5   1   7   2   1   1
Direct configuration=     9
   0.95933971  0.54521868  0.07943493
   0.00664361  0.52781608  0.47972201
   0.25727025  0.46971411  0.12600924
   0.48479320  0.29553773  0.28520289
   0.83403343  0.96951422  0.47519366
   0.09092000  0.78304133  0.12195345
   0.15165997  0.85543732  0.59678181
   0.44669358  0.88661561  0.34169959
   0.14978761  0.96241746  0.28649118
   0.92844771  0.17440138  0.56983710
   0.20971852  0.21371802  0.21134104
   0.48694075  0.25425446  0.85120165
   0.32487944  0.65037916  0.28012687
   0.40622661  0.90515097  0.93474496
   0.56535209  0.47476686  0.93428640
   0.24786779  0.56576329  0.81271639
   0.20855952  0.21652752  0.70520987
   0.63441666  0.49853820  0.46023242
   0.92972407  0.13852585  0.12323844
   0.77363048  0.93401075  0.95705009
unknown system                          
           1
     6.444894    0.766816    0.608690
     2.651577    6.541187   -0.171402
     1.811545    0.021887    5.312926
   H    Nb   H    Nb   H    Sr   H    Sr
   2   1   5   1   7   2   1   1
Direct configuration=    10
   0.95882175  0.54580110  0.08028796
   0.00606327  0.52791342  0.48047684
   0.25705830  0.46949200  0.12641895
   0.48446150  0.29527810  0.28545968
   0.83507623  0.96953131  0.47497471
   0.09196514  0.78306722  0.12073151
   0.15194093  0.85666271  0.59695641
   0.44709875  0.88623630  0.34076169
   0.15020400  0.96240523  0.28609410
   0.92841939  0.17492513  0.56946301
   0.20941804  0.21382851  0.21080503
   0.48669516  0.25410127  0.85144790
   0.32423167  0.65032897  0.28089370
   0.40696719  0.90472196  0.93413033
   0.56462123  0.47433312  0.93486576
   0.24756802  0.56522419  0.81295184
   0.20853649  0.21640088  0.70534762
   0.63396678  0.49888215  0.46042172
   0.92977350  0.13855008  0.12290274
   0.77401768  0.93366536  0.95708254
unknown system                          
           1
     6.454317    0.768598    0.604375
     2.659433    6.532765   -0.182565
     1.813336    0.013763    5.294638
   H    Nb   H    Nb   H    Sr   H    Sr
   2   1   5   1   7   2   1   1
Direct configuration=    11
   0.95726561  0.54755056  0.08285109
   0.00432153  0.52820674  0.48274378
   0.25642260  0.46882595  0.12764884
   0.48346715  0.29449918  0.28623001
   0.83820324  0.96958222  0.47431813
   0.09510105  0.78314306  0.11706226
   0.15277984  0.86034104  0.59748412
   0.44831634  0.88509639  0.33794399
   0.15145325  0.96236790  0.28490178
   0.92833384  0.17649668  0.56834060
   0.20851786  0.21415938  0.20919496
   0.48595873  0.25364180  0.85218694
   0.32228812  0.65017948  0.28319625
   0.40918995  0.90343331  0.93228386
   0.56242988  0.47303211  0.93660417
   0.24667017  0.56360639  0.81365744
   0.20846750  0.21602097  0.70576102
   0.63261665  0.49991485  0.46099070
   0.92992227  0.13862231  0.12189449
   0.77517943  0.93262867  0.95717955
unknown system                          
           1
     6.473162    0.772162    0.595744
     2.675146    6.515921   -0.204891
     1.816918   -0.002487    5.258063
   H    Nb   H    Nb   H    Sr   H    Sr
   2   1   5   1   7   2   1   1
Direct configuration=    12
   0.95413982  0.55106275  0.08800191
   0.00083380  0.52880118  0.48729247
   0.25515205  0.46749542  0.13011324
   0.48148287  0.29294128  0.28777059
   0.84444881  0.96968183  0.47300664
   0.10137586  0.78328379  0.10970314
   0.15443393  0.86771079  0.59856323
   0.45076405  0.88280454  0.33228447
   0.15395224  0.96228947  0.28251060
   0.92815931  0.17964147  0.56609497
   0.20672511  0.21481760  0.20596265
   0.48448790  0.25272369  0.85366678
   0.31839957  0.64988705  0.28781386
   0.41364156  0.90084619  0.92857533
   0.55805466  0.47043138  0.94008315
   0.24488310  0.56036785  0.81506414
   0.20833010  0.21526115  0.70658890
   0.62991353  0.50198539  0.46213526
   0.93022283  0.13876404  0.11987115
   0.77750388  0.93055211  0.95737155
unknown system                          
           1
     6.493324    0.773156    0.590458
     2.686744    6.509364   -0.219186
     1.820437   -0.012556    5.247708
   H    Nb   H    Nb   H    Sr   H    Sr
   2   1   5   1   7   2   1   1
Direct configuration=    13
   0.95181794  0.55282272  0.09041168
  -0.00084672  0.52929514  0.48962821
   0.25386450  0.46886635  0.13132896
   0.48051947  0.29222092  0.28857661
   0.84611414  0.96937073  0.47295004
   0.10455293  0.78258581  0.10654147
   0.15552100  0.87099787  0.59894915
   0.45264325  0.88154919  0.32984811
   0.15466948  0.96344548  0.28238753
   0.92869526  0.18035712  0.56387774
   0.20592059  0.21470632  0.20470451
   0.48402214  0.25207602  0.85437445
   0.31617203  0.64992932  0.29023663
   0.41561618  0.89943346  0.92652201
   0.55707686  0.46931418  0.94085506
   0.24436701  0.55841694  0.81533378
   0.20816841  0.21481237  0.70675634
   0.62868707  0.50279976  0.46309776
   0.93078144  0.13870061  0.11927734
   0.77854203  0.92964867  0.95681664
unknown system                          
           1
     6.524762    0.774705    0.582215
     2.704828    6.499140   -0.241476
     1.825924   -0.028256    5.231564
   H    Nb   H    Nb   H    Sr   H    Sr
   2   1   5   1   7   2   1   1
Direct configuration=    14
   0.94819461  0.55557642  0.09418104
  -0.00346699  0.53007215  0.49327707
   0.25185362  0.47100974  0.13323270
   0.47902401  0.29109796  0.28983055
   0.84870311  0.96888556  0.47286377
   0.10950173  0.78148859  0.10160419
   0.15719206  0.87613188  0.59957081
   0.45557636  0.87958314  0.32603870
   0.15577827  0.96525047  0.28220246
   0.92953088  0.18146863  0.56041745
   0.20467501  0.21452871  0.20273600
   0.48329971  0.25106649  0.85547615
   0.31270392  0.65000106  0.29401808
   0.41869718  0.89722279  0.92331063
   0.55556112  0.46757148  0.94205371
   0.24357428  0.55537129  0.81574444
   0.20791898  0.21411204  0.70701544
   0.62677466  0.50407346  0.46460319
   0.93165138  0.13860016  0.11835029
   0.78016111  0.92823695  0.95594734
unknown system                          
           1
     6.552086    0.778249    0.574390
     2.722030    6.497601   -0.262463
     1.829271   -0.041860    5.227363
   H    Nb   H    Nb   H    Sr   H    Sr
   2   1   5   1   7   2   1   1
Direct configuration=    15
   0.94518956  0.55784911  0.09729090
  -0.00547616  0.53113422  0.49629226
   0.24975067  0.47153947  0.13487923
   0.47747375  0.29071306  0.29063444
   0.85020540  0.96820268  0.47301334
   0.11351081  0.78065000  0.09823257
   0.15862042  0.88019907  0.60057036
   0.45837170  0.87805278  0.32325031
   0.15744097  0.96436106  0.27990654
   0.92952648  0.18307292  0.55797586
   0.20381608  0.21517785  0.20124917
   0.48254484  0.25050316  0.85700948
   0.30952835  0.65074797  0.29779622
   0.42062539  0.89557107  0.92093015
   0.55536494  0.46655786  0.94218032
   0.24331743  0.55260520  0.81519161
   0.20762722  0.21370060  0.70724664
   0.62526170  0.50490714  0.46632656
   0.93273615  0.13847435  0.11819992
   0.78146931  0.92732942  0.95429813
unknown system                          
           1
     6.585973    0.782645    0.564686
     2.743364    6.495692   -0.288491
     1.833422   -0.058731    5.222154
   H    Nb   H    Nb   H    Sr   H    Sr
   2   1   5   1   7   2   1   1
Direct configuration=    16
   0.94146176  0.56067857  0.10115716
  -0.00796823  0.53246094  0.50003667
   0.24714864  0.47220156  0.13692117
   0.47556053  0.29023759  0.29162647
   0.85206287  0.96735563  0.47319898
   0.11847097  0.77959972  0.09405190
   0.16035998  0.88524988  0.60183772
   0.46183607  0.87614554  0.31978681
   0.15950291  0.96325068  0.27705522
   0.92951809  0.18505703  0.55495348
   0.20275583  0.21597921  0.19940468
   0.48161268  0.24980836  0.85890815
   0.30559657  0.65168566  0.30248319
   0.42301922  0.89351435  0.91797024
   0.55512780  0.46530020  0.94233134
   0.24301606  0.54917055  0.81448909
   0.20726875  0.21319062  0.70753066
   0.62338612  0.50594673  0.46846708
   0.93407603  0.13831781  0.11801524
   0.78309236  0.92619839  0.95224874
unknown system                          
           1
     6.588006    0.790645    0.558668
     2.753707    6.498681   -0.308277
     1.831291   -0.071190    5.214391
   H    Nb   H    Nb   H    Sr   H    Sr
   2   1   5   1   7   2   1   1
Direct configuration=    17
   0.93904797  0.56275091  0.10442585
  -0.00950906  0.53384824  0.50262710
   0.24769424  0.47066238  0.13669625
   0.47332707  0.29075489  0.29207999
   0.85428554  0.96624552  0.47236697
   0.12176229  0.77896042  0.09092869
   0.16165751  0.88931400  0.60220854
   0.46395788  0.87501799  0.31690991
   0.16065035  0.96153408  0.27728306
   0.92933305  0.18683954  0.55217307
   0.20198275  0.21701197  0.19823363
   0.48053691  0.24939504  0.86136783
   0.30216133  0.65271063  0.30690773
   0.42420578  0.89206888  0.91566919
   0.55405915  0.46483715  0.94298238
   0.24293239  0.54603320  0.81368557
   0.20687186  0.21314002  0.70749319
   0.62191297  0.50668673  0.47052957
   0.93546312  0.13801365  0.11834080
   0.78457189  0.92552377  0.94956468
unknown system                          
           1
     6.588885    0.794105    0.556066
     2.758179    6.499974   -0.316832
     1.830370   -0.076577    5.211035
   H    Nb   H    Nb   H    Sr   H    Sr
   2   1   5   1   7   2   1   1
Direct configuration=    18
   0.93800049  0.56365112  0.10584423
  -0.01017800  0.53445119  0.50375090
   0.24793202  0.46999638  0.13659636
   0.47236059  0.29098013  0.29227629
   0.85524821  0.96576364  0.47200567
   0.12318747  0.77867950  0.08957627
   0.16221369  0.89107090  0.60237694
   0.46487786  0.87452679  0.31566276
   0.16114835  0.96079146  0.27737927
   0.92925222  0.18760788  0.55097175
   0.20164782  0.21745788  0.19772783
   0.48007117  0.24921908  0.86243203
   0.30067290  0.65315953  0.30882445
   0.42472149  0.89144122  0.91467048
   0.55359734  0.46463807  0.94326306
   0.24290017  0.54467600  0.81333194
   0.20670033  0.21311832  0.70747669
   0.62127426  0.50700930  0.47142357
   0.93606307  0.13788171  0.11848194
   0.78521355  0.92522891  0.94840156
unknown system                          
           1
     6.570717    0.802843    0.553716
     2.759552    6.509180   -0.332886
     1.825213   -0.087303    5.204426
   H    Nb   H    Nb   H    Sr   H    Sr
   2   1   5   1   7   2   1   1
Direct configuration=    19
   0.93660595  0.56523257  0.10903132
  -0.01070745  0.53575856  0.50523779
   0.24635563  0.47113673  0.13814074
   0.47053437  0.29157293  0.29261014
   0.85772349  0.96415398  0.47060116
   0.12574768  0.77777288  0.08673664
   0.16322129  0.89468174  0.60303435
   0.46640097  0.87360683  0.31283145
   0.16257804  0.96086403  0.27667756
   0.92886486  0.18917354  0.54815087
   0.20092697  0.21767819  0.19721295
   0.48049616  0.24726054  0.86387648
   0.29731898  0.65364475  0.31357165
   0.42497626  0.89012362  0.91292014
   0.55216096  0.46449615  0.94425985
   0.24299585  0.54115904  0.81233391
   0.20616616  0.21350096  0.70729965
   0.61994819  0.50795681  0.47344702
   0.93757071  0.13721686  0.11942250
   0.78701994  0.92435829  0.94507782
unknown system                          
           1
     6.553186    0.811274    0.551449
     2.760877    6.518064   -0.348377
     1.820238   -0.097654    5.198050
   H    Nb   H    Nb   H    Sr   H    Sr
   2   1   5   1   7   2   1   1
Direct configuration=    20
   0.93525377  0.56676421  0.11211575
  -0.01122124  0.53702179  0.50667846
   0.24482811  0.47224090  0.13963649
   0.46876557  0.29214788  0.29293456
   0.86012163  0.96259622  0.46923913
   0.12822817  0.77689012  0.08398993
   0.16419502  0.89816079  0.60368022
   0.46787721  0.87271300  0.31009277
   0.16396266  0.96093035  0.27599964
   0.92848988  0.19067835  0.54542967
   0.20022900  0.21789089  0.19671610
   0.48090819  0.24537480  0.86526647
   0.29406950  0.65412593  0.31816045
   0.42522416  0.88885056  0.91122489
   0.55076981  0.46436349  0.94522269
   0.24309053  0.53776802  0.81135913
   0.20564878  0.21387033  0.70712971
   0.61866300  0.50887552  0.47540513
   0.93903066  0.13657513  0.12032937
   0.78877060  0.92351073  0.94186344
unknown system                          
           1
     6.552935    0.811018    0.554309
     2.760079    6.527344   -0.358642
     1.823212   -0.107201    5.202920
   H    Nb   H    Nb   H    Sr   H    Sr
   2   1   5   1   7   2   1   1
Direct configuration=    21
   0.93404374  0.56781559  0.11391285
  -0.01126737  0.53796154  0.50736592
   0.24433242  0.47259204  0.13946766
   0.46879058  0.29222900  0.29334311
   0.86134309  0.96142067  0.46807594
   0.12908430  0.77647846  0.08287536
   0.16468186  0.89977040  0.60416285
   0.46981611  0.87194400  0.30837811
   0.16429463  0.96103364  0.27375268
   0.92748098  0.19162826  0.54456064
   0.19986397  0.21786258  0.19707118
   0.48167150  0.24407323  0.86632886
   0.29207649  0.65433831  0.32114954
   0.42500749  0.88829413  0.91015144
   0.55050300  0.46475505  0.94585214
   0.24277890  0.53558532  0.81150105
   0.20528622  0.21461247  0.70740999
   0.61800670  0.51019525  0.47608961
   0.93904507  0.13647392  0.12080253
   0.79006532  0.92228514  0.94022255
unknown system                          
           1
     6.552869    0.810951    0.555065
     2.759869    6.529799   -0.361358
     1.823999   -0.109727    5.204209
   H    Nb   H    Nb   H    Sr   H    Sr
   2   1   5   1   7   2   1   1
Direct configuration=    22
   0.93372321  0.56809405  0.11438858
  -0.01127969  0.53821007  0.50754811
   0.24420133  0.47268473  0.13942328
   0.46879710  0.29225059  0.29345115
   0.86166649  0.96110967  0.46776770
   0.12931106  0.77636926  0.08258041
   0.16481065  0.90019579  0.60429115
   0.47032948  0.87174016  0.30792419
   0.16438301  0.96105999  0.27315872
   0.92721431  0.19187883  0.54433154
   0.19976730  0.21785524  0.19716508
   0.48187314  0.24372986  0.86660893
   0.29154847  0.65439565  0.32194007
   0.42495039  0.88814670  0.90986745
   0.55043228  0.46485874  0.94601876
   0.24269630  0.53500881  0.81153754
   0.20519026  0.21480863  0.70748450
   0.61783296  0.51054414  0.47627129
   0.93904876  0.13644739  0.12092755
   0.79040820  0.92196072  0.93978800
unknown system                          
           1
     6.555415    0.808367    0.556970
     2.758400    6.534627   -0.370051
     1.826974   -0.118185    5.208175
   H    Nb   H    Nb   H    Sr   H    Sr
   2   1   5   1   7   2   1   1
Direct configuration=    23
   0.93260377  0.56899426  0.11568332
  -0.01117904  0.53898577  0.50791854
   0.24471200  0.47213522  0.13969568
   0.46906822  0.29243919  0.29361732
   0.86250784  0.96016531  0.46655706
   0.12967596  0.77601097  0.08179386
   0.16514626  0.90135692  0.60372987
   0.47186849  0.87120460  0.30637603
   0.16442691  0.96087023  0.27357302
   0.92637535  0.19232358  0.54359697
   0.19952785  0.21796695  0.19763362
   0.48259029  0.24283097  0.86761300
   0.28982012  0.65469798  0.32398005
   0.42477498  0.88785235  0.90860636
   0.55047347  0.46542739  0.94643567
   0.24238174  0.53332932  0.81175018
   0.20488147  0.21547440  0.70757740
   0.61725739  0.51196993  0.47666297
   0.93850166  0.13661155  0.12099383
   0.79149027  0.92070212  0.93867925
unknown system                          
           1
     6.558264    0.805476    0.559101
     2.756757    6.540029   -0.379779
     1.830304   -0.127649    5.212612
   H    Nb   H    Nb   H    Sr   H    Sr
   2   1   5   1   7   2   1   1
Direct configuration=    24
   0.93135054  0.57000233  0.11713330
  -0.01106676  0.53985380  0.50833419
   0.24528285  0.47152143  0.13999917
   0.46937131  0.29265047  0.29380342
   0.86344997  0.95910786  0.46520113
   0.13008483  0.77560929  0.08091344
   0.16552228  0.90265460  0.60310414
   0.47359128  0.87060408  0.30464315
   0.16447559  0.96065871  0.27403601
   0.92543778  0.19281935  0.54277650
   0.19925959  0.21809247  0.19815791
   0.48339132  0.24182774  0.86873409
   0.28788505  0.65503837  0.32626261
   0.42458000  0.88752114  0.90719550
   0.55051919  0.46606393  0.94690294
   0.24202956  0.53145146  0.81198507
   0.20453607  0.21621887  0.70768259
   0.61661337  0.51356457  0.47710378
   0.93788970  0.13679495  0.12106843
   0.79270150  0.91929357  0.93743663
unknown system                          
           1
     6.552937    0.803030    0.555862
     2.753353    6.534259   -0.384217
     1.826971   -0.130820    5.209201
   H    Nb   H    Nb   H    Sr   H    Sr
   2   1   5   1   7   2   1   1
Direct configuration=    25
   0.93120083  0.57038564  0.11797301
  -0.01073962  0.54026158  0.50845199
   0.24522240  0.47153555  0.14071600
   0.46974396  0.29295536  0.29368362
   0.86374318  0.95845332  0.46445452
   0.13038672  0.77506392  0.08076950
   0.16551114  0.90339649  0.60234013
   0.47409004  0.87037920  0.30345896
   0.16493463  0.96051217  0.27349791
   0.92465644  0.19292662  0.54242589
   0.19914319  0.21820860  0.19875186
   0.48429321  0.24106150  0.86942148
   0.28650593  0.65549947  0.32733695
   0.42414380  0.88759281  0.90634895
   0.55067848  0.46668409  0.94720370
   0.24210111  0.53020319  0.81235688
   0.20426164  0.21652049  0.70772899
   0.61601326  0.51482627  0.47757725
   0.93752600  0.13665539  0.12125366
   0.79348868  0.91822734  0.93672275
unknown system                          
           1
     6.538944    0.796605    0.547354
     2.744412    6.519101   -0.395878
     1.818215   -0.139149    5.200239
   H    Nb   H    Nb   H    Sr   H    Sr
   2   1   5   1   7   2   1   1
Direct configuration=    26
   0.93080745  0.57139452  0.12018130
  -0.00987980  0.54133432  0.50876320
   0.24506371  0.47157356  0.14260050
   0.47072337  0.29375726  0.29336999
   0.86451391  0.95673144  0.46249053
   0.13118041  0.77362985  0.08039021
   0.16548137  0.90534640  0.60033333
   0.47540077  0.86978674  0.30034592
   0.16614113  0.96012655  0.27208361
   0.92260249  0.19320760  0.54150318
   0.19883737  0.21851463  0.20031349
   0.48666436  0.23904818  0.87122815
   0.28288100  0.65671220  0.33016039
   0.42299691  0.88777982  0.90412287
   0.55109709  0.46831540  0.94799618
   0.24228970  0.52692123  0.81333142
   0.20354019  0.21731348  0.70785127
   0.61443554  0.51814416  0.47882416
   0.93657007  0.13628833  0.12173974
   0.79555797  0.91542330  0.93484456
unknown system                          
           1
     6.534688    0.795202    0.545353
     2.742040    6.515692   -0.399172
     1.815925   -0.141522    5.198264
   H    Nb   H    Nb   H    Sr   H    Sr
   2   1   5   1   7   2   1   1
Direct configuration=    27
   0.93080791  0.57158301  0.12079297
  -0.00975027  0.54162026  0.50908638
   0.24552922  0.47134805  0.14235816
   0.47107678  0.29395249  0.29338441
   0.86478427  0.95628904  0.46192024
   0.13144748  0.77320152  0.08030979
   0.16542111  0.90579622  0.59999034
   0.47573933  0.86960772  0.29951337
   0.16569032  0.96038855  0.27153055
   0.92209222  0.19317933  0.54121691
   0.19876776  0.21863354  0.20080081
   0.48722696  0.23863557  0.87185984
   0.28198579  0.65711506  0.33097720
   0.42272918  0.88786774  0.90340884
   0.55108424  0.46881953  0.94838307
   0.24246933  0.52608538  0.81358491
   0.20334797  0.21742674  0.70791963
   0.61393728  0.51900786  0.47931579
   0.93638643  0.13610618  0.12184381
   0.79613171  0.91468522  0.93427700
unknown system                          
           1
     6.527623    0.792874    0.542032
     2.738102    6.510033   -0.404642
     1.812123   -0.145462    5.194984
   H    Nb   H    Nb   H    Sr   H    Sr
   2   1   5   1   7   2   1   1
Direct configuration=    28
   0.93080875  0.57189644  0.12180899
  -0.00953511  0.54209542  0.50962347
   0.24630235  0.47097347  0.14195570
   0.47166373  0.29427686  0.29340878
   0.86523325  0.95555396  0.46097279
   0.13189108  0.77249009  0.08017589
   0.16532092  0.90654313  0.59942119
   0.47630153  0.86930997  0.29813075
   0.16494148  0.96082327  0.27061213
   0.92124469  0.19313207  0.54074116
   0.19865221  0.21883131  0.20161020
   0.48816149  0.23795078  0.87290877
   0.28049906  0.65778444  0.33233362
   0.42228440  0.88801325  0.90222297
   0.55106292  0.46965709  0.94902615
   0.24276778  0.52469726  0.81400505
   0.20302871  0.21761484  0.70803316
   0.61310974  0.52044259  0.48013294
   0.93608145  0.13580363  0.12201633
   0.79708458  0.91345912  0.93333394
unknown system                          
           1
     6.528468    0.793248    0.543088
     2.738336    6.513937   -0.405195
     1.813090   -0.146190    5.197258
   H    Nb   H    Nb   H    Sr   H    Sr
   2   1   5   1   7   2   1   1
Direct configuration=    29
   0.93091945  0.57183213  0.12194623
  -0.00957211  0.54213968  0.50992241
   0.24657293  0.47081772  0.14189097
   0.47189384  0.29425718  0.29356247
   0.86524226  0.95550928  0.46080941
   0.13198317  0.77232837  0.08001548
   0.16520701  0.90659717  0.59951268
   0.47623730  0.86928269  0.29790889
   0.16458227  0.96095903  0.27057282
   0.92103326  0.19312585  0.54067987
   0.19864476  0.21891888  0.20178297
   0.48836898  0.23786927  0.87302827
   0.28039214  0.65799988  0.33256852
   0.42225486  0.88808661  0.90185760
   0.55100529  0.46984464  0.94925716
   0.24304942  0.52458303  0.81377600
   0.20300339  0.21748621  0.70798112
   0.61290521  0.52060176  0.48047000
   0.93594510  0.13580867  0.12185635
   0.79723647  0.91330099  0.93307477
unknown system                          
           1
     6.531003    0.794371    0.546257
     2.739038    6.525650   -0.406853