Automatically generated mesh
     284
Reciprocal lattice
    0.00000000000000    0.00000000000000    0.00000000000000             1
    0.11111111111111    0.00000000000000    0.00000000000000             2
    0.22222222222222    0.00000000000000    0.00000000000000             2
    0.33333333333333    0.00000000000000    0.00000000000000             2
    0.44444444444444    0.00000000000000    0.00000000000000             2
    0.00000000000000    0.11111111111111    0.00000000000000             2
    0.11111111111111    0.11111111111111    0.00000000000000             2
    0.22222222222222    0.11111111111111    0.00000000000000             2
    0.33333333333333    0.11111111111111    0.00000000000000             2
    0.44444444444445    0.11111111111111    0.00000000000000             2
   -0.44444444444444    0.11111111111111    0.00000000000000             2
   -0.33333333333333    0.11111111111111    0.00000000000000             2
   -0.22222222222222    0.11111111111111    0.00000000000000             2
   -0.11111111111111    0.11111111111111    0.00000000000000             2
    0.00000000000000    0.22222222222222    0.00000000000000             2
    0.11111111111111    0.22222222222222    0.00000000000000             2
    0.22222222222222    0.22222222222222    0.00000000000000             2
    0.33333333333333    0.22222222222222    0.00000000000000             2
    0.44444444444445    0.22222222222222    0.00000000000000             2
   -0.44444444444444    0.22222222222222    0.00000000000000             2
   -0.33333333333333    0.22222222222222    0.00000000000000             2
   -0.22222222222222    0.22222222222222    0.00000000000000             2
   -0.11111111111111    0.22222222222222    0.00000000000000             2
    0.00000000000000    0.33333333333333    0.00000000000000             2
    0.11111111111111    0.33333333333333    0.00000000000000             2
    0.22222222222222    0.33333333333333    0.00000000000000             2
    0.33333333333333    0.33333333333333    0.00000000000000             2
    0.44444444444444    0.33333333333333    0.00000000000000             2
   -0.44444444444444    0.33333333333333    0.00000000000000             2
   -0.33333333333333    0.33333333333333    0.00000000000000             2
   -0.22222222222222    0.33333333333333    0.00000000000000             2
   -0.11111111111111    0.33333333333333    0.00000000000000             2
    0.00000000000000    0.44444444444445    0.00000000000000             2
    0.11111111111111    0.44444444444445    0.00000000000000             2
    0.22222222222222    0.44444444444445    0.00000000000000             2
    0.33333333333333    0.44444444444444    0.00000000000000             2
    0.44444444444445    0.44444444444445    0.00000000000000             2
   -0.44444444444444    0.44444444444445    0.00000000000000             2
   -0.33333333333333    0.44444444444445    0.00000000000000             2
   -0.22222222222222    0.44444444444445    0.00000000000000             2
   -0.11111111111111    0.44444444444445    0.00000000000000             2
    0.00000000000000    0.00000000000000    0.14285714285714             2
    0.11111111111111    0.00000000000000    0.14285714285714             2
    0.22222222222222    0.00000000000000    0.14285714285714             2
    0.33333333333333    0.00000000000000    0.14285714285714             2
    0.44444444444445    0.00000000000000    0.14285714285714             2
   -0.44444444444444    0.00000000000000    0.14285714285714             2
   -0.33333333333333    0.00000000000000    0.14285714285714             2
   -0.22222222222222    0.00000000000000    0.14285714285714             2
   -0.11111111111111    0.00000000000000    0.14285714285714             2
    0.00000000000000    0.11111111111111    0.14285714285714             2
    0.11111111111111    0.11111111111111    0.14285714285714             2
    0.22222222222222    0.11111111111111    0.14285714285714             2
    0.33333333333333    0.11111111111111    0.14285714285714             2
    0.44444444444444    0.11111111111111    0.14285714285714             2
   -0.44444444444444    0.11111111111111    0.14285714285714             2
   -0.33333333333333    0.11111111111111    0.14285714285714             2
   -0.22222222222222    0.11111111111111    0.14285714285714             2
   -0.11111111111111    0.11111111111111    0.14285714285714             2
    0.00000000000000    0.22222222222222    0.14285714285714             2
    0.11111111111111    0.22222222222222    0.14285714285714             2
    0.22222222222222    0.22222222222222    0.14285714285714             2
    0.33333333333333    0.22222222222222    0.14285714285714             2
    0.44444444444445    0.22222222222222    0.14285714285714             2
   -0.44444444444444    0.22222222222222    0.14285714285714             2
   -0.33333333333333    0.22222222222222    0.14285714285714             2
   -0.22222222222222    0.22222222222222    0.14285714285714             2
   -0.11111111111111    0.22222222222222    0.14285714285714             2
    0.00000000000000    0.33333333333333    0.14285714285714             2
    0.11111111111111    0.33333333333333    0.14285714285714             2
    0.22222222222222    0.33333333333333    0.14285714285714             2
    0.33333333333333    0.33333333333333    0.14285714285714             2
    0.44444444444445    0.33333333333333    0.14285714285714             2
   -0.44444444444444    0.33333333333333    0.14285714285714             2
   -0.33333333333333    0.33333333333333    0.14285714285714             2
   -0.22222222222222    0.33333333333333    0.14285714285714             2
   -0.11111111111111    0.33333333333333    0.14285714285714             2
    0.00000000000000    0.44444444444445    0.14285714285714             2
    0.11111111111111    0.44444444444444    0.14285714285714             2
    0.22222222222222    0.44444444444445    0.14285714285714             2
    0.33333333333333    0.44444444444444    0.14285714285714             2
    0.44444444444444    0.44444444444445    0.14285714285714             2
   -0.44444444444444    0.44444444444445    0.14285714285714             2
   -0.33333333333333    0.44444444444444    0.14285714285714             2
   -0.22222222222222    0.44444444444445    0.14285714285714             2
   -0.11111111111111    0.44444444444445    0.14285714285714             2
    0.00000000000000   -0.44444444444444    0.14285714285714             2
    0.11111111111111   -0.44444444444444    0.14285714285714             2
    0.22222222222222   -0.44444444444444    0.14285714285714             2
    0.33333333333333   -0.44444444444444    0.14285714285714             2
    0.44444444444445   -0.44444444444444    0.14285714285714             2
   -0.44444444444444   -0.44444444444444    0.14285714285714             2
   -0.33333333333333   -0.44444444444444    0.14285714285714             2
   -0.22222222222222   -0.44444444444444    0.14285714285714             2
   -0.11111111111111   -0.44444444444444    0.14285714285714             2
    0.00000000000000   -0.33333333333333    0.14285714285714             2
    0.11111111111111   -0.33333333333333    0.14285714285714             2
    0.22222222222222   -0.33333333333333    0.14285714285714             2
    0.33333333333333   -0.33333333333333    0.14285714285714             2
    0.44444444444445   -0.33333333333333    0.14285714285714             2
   -0.44444444444444   -0.33333333333333    0.14285714285714             2
   -0.33333333333333   -0.33333333333333    0.14285714285714             2
   -0.22222222222222   -0.33333333333333    0.14285714285714             2
   -0.11111111111111   -0.33333333333333    0.14285714285714             2
    0.00000000000000   -0.22222222222222    0.14285714285714             2
    0.11111111111111   -0.22222222222222    0.14285714285714             2
    0.22222222222222   -0.22222222222222    0.14285714285714             2
    0.33333333333333   -0.22222222222222    0.14285714285714             2
    0.44444444444444   -0.22222222222222    0.14285714285714             2
   -0.44444444444444   -0.22222222222222    0.14285714285714             2
   -0.33333333333333   -0.22222222222222    0.14285714285714             2
   -0.22222222222222   -0.22222222222222    0.14285714285714             2
   -0.11111111111111   -0.22222222222222    0.14285714285714             2
    0.00000000000000   -0.11111111111111    0.14285714285714             2
    0.11111111111111   -0.11111111111111    0.14285714285714             2
    0.22222222222222   -0.11111111111111    0.14285714285714             2
    0.33333333333333   -0.11111111111111    0.14285714285714             2
    0.44444444444444   -0.11111111111111    0.14285714285714             2
   -0.44444444444444   -0.11111111111111    0.14285714285714             2
   -0.33333333333333   -0.11111111111111    0.14285714285714             2
   -0.22222222222222   -0.11111111111111    0.14285714285714             2
   -0.11111111111111   -0.11111111111111    0.14285714285714             2
    0.00000000000000    0.00000000000000    0.28571428571429             2
    0.11111111111111    0.00000000000000    0.28571428571429             2
    0.22222222222222    0.00000000000000    0.28571428571429             2
    0.33333333333333    0.00000000000000    0.28571428571429             2
    0.44444444444445    0.00000000000000    0.28571428571429             2
   -0.44444444444444    0.00000000000000    0.28571428571429             2
   -0.33333333333333    0.00000000000000    0.28571428571429             2
   -0.22222222222222    0.00000000000000    0.28571428571429             2
   -0.11111111111111    0.00000000000000    0.28571428571429             2
    0.00000000000000    0.11111111111111    0.28571428571429             2
    0.11111111111111    0.11111111111111    0.28571428571429             2
    0.22222222222222    0.11111111111111    0.28571428571429             2
    0.33333333333333    0.11111111111111    0.28571428571429             2
    0.44444444444445    0.11111111111111    0.28571428571429             2
   -0.44444444444444    0.11111111111111    0.28571428571429             2
   -0.33333333333333    0.11111111111111    0.28571428571429             2
   -0.22222222222222    0.11111111111111    0.28571428571429             2
   -0.11111111111111    0.11111111111111    0.28571428571429             2
    0.00000000000000    0.22222222222222    0.28571428571429             2
    0.11111111111111    0.22222222222222    0.28571428571429             2
    0.22222222222222    0.22222222222222    0.28571428571429             2
    0.33333333333333    0.22222222222222    0.28571428571429             2
    0.44444444444445    0.22222222222222    0.28571428571429             2
   -0.44444444444444    0.22222222222222    0.28571428571429             2
   -0.33333333333333    0.22222222222222    0.28571428571429             2
   -0.22222222222222    0.22222222222222    0.28571428571429             2
   -0.11111111111111    0.22222222222222    0.28571428571429             2
    0.00000000000000    0.33333333333333    0.28571428571429             2
    0.11111111111111    0.33333333333333    0.28571428571429             2
    0.22222222222222    0.33333333333333    0.28571428571429             2
    0.33333333333333    0.33333333333333    0.28571428571429             2
    0.44444444444444    0.33333333333333    0.28571428571429             2
   -0.44444444444444    0.33333333333333    0.28571428571429             2
   -0.33333333333333    0.33333333333333    0.28571428571429             2
   -0.22222222222222    0.33333333333333    0.28571428571429             2
   -0.11111111111111    0.33333333333333    0.28571428571429             2
    0.00000000000000    0.44444444444445    0.28571428571429             2
    0.11111111111111    0.44444444444445    0.28571428571429             2
    0.22222222222222    0.44444444444445    0.28571428571429             2
    0.33333333333333    0.44444444444445    0.28571428571429             2
    0.44444444444445    0.44444444444444    0.28571428571429             2
   -0.44444444444444    0.44444444444445    0.28571428571429             2
   -0.33333333333333    0.44444444444444    0.28571428571429             2
   -0.22222222222222    0.44444444444444    0.28571428571429             2
   -0.11111111111111    0.44444444444445    0.28571428571429             2
    0.00000000000000   -0.44444444444444    0.28571428571429             2
    0.11111111111111   -0.44444444444444    0.28571428571429             2
    0.22222222222222   -0.44444444444444    0.28571428571429             2
    0.33333333333333   -0.44444444444444    0.28571428571429             2
    0.44444444444444   -0.44444444444444    0.28571428571429             2
   -0.44444444444444   -0.44444444444444    0.28571428571429             2
   -0.33333333333333   -0.44444444444444    0.28571428571429             2
   -0.22222222222222   -0.44444444444444    0.28571428571429             2
   -0.11111111111111   -0.44444444444444    0.28571428571429             2
    0.00000000000000   -0.33333333333333    0.28571428571429             2
    0.11111111111111   -0.33333333333333    0.28571428571429             2
    0.22222222222222   -0.33333333333333    0.28571428571429             2
    0.33333333333333   -0.33333333333333    0.28571428571429             2
    0.44444444444445   -0.33333333333333    0.28571428571429             2
   -0.44444444444444   -0.33333333333333    0.28571428571429             2
   -0.33333333333333   -0.33333333333333    0.28571428571429             2
   -0.22222222222222   -0.33333333333333    0.28571428571429             2
   -0.11111111111111   -0.33333333333333    0.28571428571429             2
    0.00000000000000   -0.22222222222222    0.28571428571429             2
    0.11111111111111   -0.22222222222222    0.28571428571429             2
    0.22222222222222   -0.22222222222222    0.28571428571429             2
    0.33333333333333   -0.22222222222222    0.28571428571429             2
    0.44444444444444   -0.22222222222222    0.28571428571429             2
   -0.44444444444444   -0.22222222222222    0.28571428571429             2
   -0.33333333333333   -0.22222222222222    0.28571428571429             2
   -0.22222222222222   -0.22222222222222    0.28571428571429             2
   -0.11111111111111   -0.22222222222222    0.28571428571429             2
    0.00000000000000   -0.11111111111111    0.28571428571429             2
    0.11111111111111   -0.11111111111111    0.28571428571429             2
    0.22222222222222   -0.11111111111111    0.28571428571429             2
    0.33333333333333   -0.11111111111111    0.28571428571429             2
    0.44444444444444   -0.11111111111111    0.28571428571429             2
   -0.44444444444444   -0.11111111111111    0.28571428571429             2
   -0.33333333333333   -0.11111111111111    0.28571428571429             2
   -0.22222222222222   -0.11111111111111    0.28571428571429             2
   -0.11111111111111   -0.11111111111111    0.28571428571429             2
    0.00000000000000    0.00000000000000    0.42857142857143             2
    0.11111111111111    0.00000000000000    0.42857142857143             2
    0.22222222222222    0.00000000000000    0.42857142857143             2
    0.33333333333333    0.00000000000000    0.42857142857143             2
    0.44444444444444    0.00000000000000    0.42857142857143             2
   -0.44444444444444    0.00000000000000    0.42857142857143             2
   -0.33333333333333    0.00000000000000    0.42857142857143             2
   -0.22222222222222    0.00000000000000    0.42857142857143             2
   -0.11111111111111    0.00000000000000    0.42857142857143             2
    0.00000000000000    0.11111111111111    0.42857142857143             2
    0.11111111111111    0.11111111111111    0.42857142857143             2
    0.22222222222222    0.11111111111111    0.42857142857143             2
    0.33333333333333    0.11111111111111    0.42857142857143             2
    0.44444444444445    0.11111111111111    0.42857142857143             2
   -0.44444444444444    0.11111111111111    0.42857142857143             2
   -0.33333333333333    0.11111111111111    0.42857142857143             2
   -0.22222222222222    0.11111111111111    0.42857142857143             2
   -0.11111111111111    0.11111111111111    0.42857142857143             2
    0.00000000000000    0.22222222222222    0.42857142857143             2
    0.11111111111111    0.22222222222222    0.42857142857143             2
    0.22222222222222    0.22222222222222    0.42857142857143             2
    0.33333333333333    0.22222222222222    0.42857142857143             2
    0.44444444444444    0.22222222222222    0.42857142857143             2
   -0.44444444444444    0.22222222222222    0.42857142857143             2
   -0.33333333333333    0.22222222222222    0.42857142857143             2
   -0.22222222222222    0.22222222222222    0.42857142857143             2
   -0.11111111111111    0.22222222222222    0.42857142857143             2
    0.00000000000000    0.33333333333333    0.42857142857143             2
    0.11111111111111    0.33333333333333    0.42857142857143             2
    0.22222222222222    0.33333333333333    0.42857142857143             2
    0.33333333333333    0.33333333333333    0.42857142857143             2
    0.44444444444445    0.33333333333333    0.42857142857143             2
   -0.44444444444444    0.33333333333333    0.42857142857143             2
   -0.33333333333333    0.33333333333333    0.42857142857143             2
   -0.22222222222222    0.33333333333333    0.42857142857143             2
   -0.11111111111111    0.33333333333333    0.42857142857143             2
    0.00000000000000    0.44444444444445    0.42857142857143             2
    0.11111111111111    0.44444444444445    0.42857142857143             2
    0.22222222222222    0.44444444444445    0.42857142857143             2
    0.33333333333333    0.44444444444445    0.42857142857143             2
    0.44444444444444    0.44444444444444    0.42857142857143             2
   -0.44444444444444    0.44444444444445    0.42857142857143             2
   -0.33333333333333    0.44444444444445    0.42857142857143             2
   -0.22222222222222    0.44444444444445    0.42857142857143             2
   -0.11111111111111    0.44444444444445    0.42857142857143             2
    0.00000000000000   -0.44444444444444    0.42857142857143             2
    0.11111111111111   -0.44444444444444    0.42857142857143             2
    0.22222222222222   -0.44444444444444    0.42857142857143             2
    0.33333333333333   -0.44444444444444    0.42857142857143             2
    0.44444444444445   -0.44444444444444    0.42857142857143             2
   -0.44444444444444   -0.44444444444444    0.42857142857143             2
   -0.33333333333333   -0.44444444444444    0.42857142857143             2
   -0.22222222222222   -0.44444444444444    0.42857142857143             2
   -0.11111111111111   -0.44444444444444    0.42857142857143             2
    0.00000000000000   -0.33333333333333    0.42857142857143             2
    0.11111111111111   -0.33333333333333    0.42857142857143             2
    0.22222222222222   -0.33333333333333    0.42857142857143             2
    0.33333333333333   -0.33333333333333    0.42857142857143             2
    0.44444444444445   -0.33333333333333    0.42857142857143             2
   -0.44444444444444   -0.33333333333333    0.42857142857143             2
   -0.33333333333333   -0.33333333333333    0.42857142857143             2
   -0.22222222222222   -0.33333333333333    0.42857142857143             2
   -0.11111111111111   -0.33333333333333    0.42857142857143             2
    0.00000000000000   -0.22222222222222    0.42857142857143             2
    0.11111111111111   -0.22222222222222    0.42857142857143             2
    0.22222222222222   -0.22222222222222    0.42857142857143             2
    0.33333333333333   -0.22222222222222    0.42857142857143             2
    0.44444444444444   -0.22222222222222    0.42857142857143             2
   -0.44444444444444   -0.22222222222222    0.42857142857143             2
   -0.33333333333333   -0.22222222222222    0.42857142857143             2
   -0.22222222222222   -0.22222222222222    0.42857142857143             2
   -0.11111111111111   -0.22222222222222    0.42857142857143             2
    0.00000000000000   -0.11111111111111    0.42857142857143             2
    0.11111111111111   -0.11111111111111    0.42857142857143             2
    0.22222222222222   -0.11111111111111    0.42857142857143             2
    0.33333333333333   -0.11111111111111    0.42857142857143             2
    0.44444444444444   -0.11111111111111    0.42857142857143             2
   -0.44444444444444   -0.11111111111111    0.42857142857143             2
   -0.33333333333333   -0.11111111111111    0.42857142857143             2
   -0.22222222222222   -0.11111111111111    0.42857142857143             2
   -0.11111111111111   -0.11111111111111    0.42857142857143             2
