 running on   32 total cores
 distrk:  each k-point on   32 cores,    1 groups
 distr:  one band on    8 cores,    4 groups
 using from now: INCAR     
 vasp.5.4.4.18Apr17-6-g9f103f2a35 (build Nov 01 2019 12:17:22) complex          
  
 POSCAR found type information on POSCAR  H 
 POSCAR found :  1 types and      20 ions

 ----------------------------------------------------------------------------- 
|                                                                             |
|  ADVICE TO THIS USER RUNNING 'VASP/VAMP'   (HEAR YOUR MASTER'S VOICE ...):  |
|                                                                             |
|      You have a (more or less) 'large supercell' and for larger cells       |
|      it might be more efficient to use real space projection opertators     |
|      So try LREAL= Auto  in the INCAR   file.                               |
|      Mind:          For very  accurate calculation you might also keep the  |
|      reciprocal projection scheme          (i.e. LREAL=.FALSE.)             |
|                                                                             |
 ----------------------------------------------------------------------------- 

 LDA part: xc-table for Pade appr. of Perdew
 generate k-points for:   10    8    7
 POSCAR, INCAR and KPOINTS ok, starting setup
 FFT: planning ...
 WAVECAR not read
 entering main loop
       N       E                     dE             d eps       ncg     rms          rms(c)
DAV:   1    -0.253027115175E+02   -0.25303E+02   -0.51440E+03 13536   0.382E+02
DAV:   2    -0.674660803561E+02   -0.42163E+02   -0.41219E+02 16872   0.952E+01
DAV:   3    -0.689376748324E+02   -0.14716E+01   -0.14686E+01 17272   0.171E+01
DAV:   4    -0.689407722992E+02   -0.30975E-02   -0.30974E-02 15552   0.958E-01
DAV:   5    -0.689407826001E+02   -0.10301E-04   -0.10300E-04 16328   0.482E-02    0.136E+01
DAV:   6    -0.665498347110E+02    0.23909E+01   -0.65802E-01 15264   0.353E+00    0.777E+00
DAV:   7    -0.653827288580E+02    0.11671E+01   -0.17310E+00 16256   0.600E+00    0.677E-01
DAV:   8    -0.654087908485E+02   -0.26062E-01   -0.77247E-02 14464   0.120E+00    0.403E-01
DAV:   9    -0.654056199742E+02    0.31709E-02   -0.35575E-03 17920   0.284E-01    0.386E-02
DAV:  10    -0.654057685927E+02   -0.14862E-03   -0.31830E-04 15224   0.869E-02    0.179E-02
DAV:  11    -0.654057654884E+02    0.31043E-05   -0.10901E-05  9168   0.140E-02
   1 F= -.65405765E+02 E0= -.65405813E+02  d E =-.654058E+02
 curvature:   0.00 expect dE= 0.000E+00 dE for cont linesearch  0.000E+00
 trial: gam= 0.00000 g(F)=  0.324E-02 g(S)=  0.376E-02 ort = 0.000E+00 (trialstep = 0.100E+01)
 search vector abs. value=  0.700E-02
 bond charge predicted
       N       E                     dE             d eps       ncg     rms          rms(c)
DAV:   1    -0.654083102932E+02   -0.25417E-02   -0.85761E-02 15696   0.153E+00    0.147E-01
DAV:   2    -0.654083747258E+02   -0.64433E-04   -0.27050E-03 16656   0.263E-01    0.986E-02
DAV:   3    -0.654082813417E+02    0.93384E-04   -0.22569E-04 16528   0.111E-01
   2 F= -.65408281E+02 E0= -.65408329E+02  d E =-.251585E-02
 trial-energy change:   -0.002516  1 .order   -0.002652   -0.006999    0.001696
 step:   0.8050(harm=  0.8050)  dis= 0.00382  next Energy=   -65.408582 (dE=-0.282E-02)
 bond charge predicted
       N       E                     dE             d eps       ncg     rms          rms(c)
DAV:   1    -0.654085082227E+02   -0.13350E-03   -0.38259E-03 15352   0.313E-01    0.337E-02
DAV:   2    -0.654084995441E+02    0.86786E-05   -0.85858E-05  8728   0.488E-02
   3 F= -.65408500E+02 E0= -.65408547E+02  d E =-.273406E-02
 curvature:  -0.40 expect dE=-0.502E-02 dE for cont linesearch -0.592E-05
 trial: gam= 1.82632 g(F)=  0.103E-01 g(S)=  0.216E-02 ort =-0.321E-03 (trialstep = 0.194E+00)
 search vector abs. value=  0.346E-01
 bond charge predicted
       N       E                     dE             d eps       ncg     rms          rms(c)
DAV:   1    -0.654107634343E+02   -0.22552E-02   -0.10047E-02 14720   0.481E-01    0.383E-02
DAV:   2    -0.654107798437E+02   -0.16409E-04   -0.13967E-04 15480   0.593E-02
   4 F= -.65410780E+02 E0= -.65410828E+02  d E =-.228030E-02
 ZBRENT: can't locate minimum, use default step
 trial-energy change:   -0.002280  1 .order   -0.002283   -0.002306   -0.002261
 step:   0.7768(harm=  9.8326)  dis= 0.00601  next Energy=   -65.466881 (dE=-0.584E-01)
 bond charge predicted
       N       E                     dE             d eps       ncg     rms          rms(c)
DAV:   1    -0.654170305796E+02   -0.62671E-02   -0.89474E-02 14928   0.144E+00    0.113E-01
DAV:   2    -0.654171870212E+02   -0.15644E-03   -0.10552E-03 17080   0.162E-01    0.756E-02
DAV:   3    -0.654172420660E+02   -0.55045E-04   -0.15073E-04 13296   0.538E-02
   5 F= -.65417242E+02 E0= -.65417293E+02  d E =-.874252E-02
 curvature:  -1.68 expect dE=-0.185E-01 dE for cont linesearch -0.535E-02
 ZBRENT: increasing intervall
 opt :   1.9420  next Energy=   -65.428141 (dE=-0.196E-01)
 bond charge predicted
       N       E                     dE             d eps       ncg     rms          rms(c)
DAV:   1    -0.654273687813E+02   -0.10182E-01   -0.35949E-01 14944   0.289E+00    0.229E-01
DAV:   2    -0.654280322284E+02   -0.66345E-03   -0.45231E-03 17072   0.334E-01    0.153E-01
DAV:   3    -0.654282582613E+02   -0.22603E-03   -0.64193E-04 15888   0.108E-01    0.244E-02
DAV:   4    -0.654282542046E+02    0.40567E-05   -0.35852E-05  9576   0.294E-02
   6 F= -.65428254E+02 E0= -.65428313E+02  d E =-.197547E-01
 curvature:  -3.43 expect dE=-0.340E-01 dE for cont linesearch -0.659E-02
 ZBRENT: increasing intervall
 opt :   4.2724  next Energy=   -65.441832 (dE=-0.333E-01)
 bond charge predicted
       N       E                     dE             d eps       ncg     rms          rms(c)
DAV:   1    -0.654390951047E+02   -0.10837E-01   -0.14570E+00 14960   0.584E+00    0.469E-01
DAV:   2    -0.654415819146E+02   -0.24868E-02   -0.18568E-02 16992   0.677E-01    0.312E-01
DAV:   3    -0.654423857771E+02   -0.80386E-03   -0.27301E-03 15960   0.223E-01    0.513E-02
DAV:   4    -0.654423628691E+02    0.22908E-04   -0.16483E-04 16384   0.621E-02
   7 F= -.65442363E+02 E0= -.65442435E+02  d E =-.338633E-01
 curvature:  -7.06 expect dE=-0.658E-01 dE for cont linesearch -0.239E-02
 ZBRENT: increasing intervall
 opt :   8.9333  next Energy=   -65.436223 (dE=-0.277E-01)
 bond charge predicted
       N       E                     dE             d eps       ncg     rms          rms(c)
DAV:   1    -0.654221817069E+02    0.20204E-01   -0.59456E+00 15032   0.119E+01    0.965E-01
DAV:   2    -0.654329077112E+02   -0.10726E-01   -0.80986E-02 16928   0.140E+00    0.636E-01
DAV:   3    -0.654362815686E+02   -0.33739E-02   -0.10706E-02 15912   0.443E-01    0.967E-02
DAV:   4    -0.654362431299E+02    0.38439E-04   -0.62827E-04 16912   0.122E-01
   8 F= -.65436243E+02 E0= -.65436301E+02  d E =-.277436E-01
 curvature:  18.16 expect dE= 0.290E+00 dE for cont linesearch  0.231E-01
 ZBRENT: bracketing found
 ZBRENT: interpolating
 opt :   5.8587  next Energy=   -65.445077 (dE=-0.366E-01)
 bond charge predicted
       N       E                     dE             d eps       ncg     rms          rms(c)
DAV:   1    -0.654402925907E+02   -0.40110E-02   -0.25460E+00 14984   0.770E+00    0.620E-01
DAV:   2    -0.654444003525E+02   -0.41078E-02   -0.31371E-02 16968   0.878E-01    0.416E-01
DAV:   3    -0.654456721738E+02   -0.12718E-02   -0.50062E-03 15936   0.303E-01    0.775E-02
DAV:   4    -0.654455959160E+02    0.76258E-04   -0.30202E-04 16688   0.841E-02
   9 F= -.65445596E+02 E0= -.65445669E+02  d E =-.370964E-01
 curvature:  -2.14 expect dE=-0.207E-01 dE for cont linesearch -0.489E-04
 trial: gam= 0.17391 g(F)=  0.894E-02 g(S)=  0.758E-03 ort = 0.891E-03 (trialstep = 0.133E+01)
 search vector abs. value=  0.111E-01
 bond charge predicted
       N       E                     dE             d eps       ncg     rms          rms(c)
DAV:   1    -0.654352174334E+02    0.10455E-01   -0.40183E-01 15216   0.336E+00    0.271E-01
DAV:   2    -0.654357557478E+02   -0.53831E-03   -0.15951E-02 16832   0.647E-01    0.201E-01
DAV:   3    -0.654350812749E+02    0.67447E-03   -0.72445E-04 16904   0.243E-01    0.235E-02
DAV:   4    -0.654351505557E+02   -0.69281E-04   -0.70224E-04 14816   0.124E-01
  10 F= -.65435151E+02 E0= -.65435225E+02  d E =0.104454E-01
 trial-energy change:    0.010445  1 .order    0.011070   -0.013074    0.035214
 step:   0.3804(harm=  0.3593)  dis= 0.00340  next Energy=   -65.447484 (dE=-0.189E-02)
 bond charge predicted
       N       E                     dE             d eps       ncg     rms          rms(c)
DAV:   1    -0.654475873503E+02   -0.12506E-01   -0.20452E-01 15168   0.241E+00    0.195E-01
DAV:   2    -0.654477846442E+02   -0.19729E-03   -0.77705E-03 16752   0.453E-01    0.143E-01
DAV:   3    -0.654474244355E+02    0.36021E-03   -0.39615E-04 16840   0.177E-01    0.143E-02
DAV:   4    -0.654474601095E+02   -0.35674E-04   -0.36034E-04 13104   0.881E-02
  11 F= -.65447460E+02 E0= -.65447534E+02  d E =-.186419E-02
 curvature:  -0.20 expect dE=-0.524E-03 dE for cont linesearch -0.444E-07
 trial: gam= 0.27299 g(F)=  0.188E-02 g(S)=  0.718E-03 ort = 0.493E-04 (trialstep = 0.114E+01)
 search vector abs. value=  0.345E-02
 bond charge predicted
       N       E                     dE             d eps       ncg     rms          rms(c)
DAV:   1    -0.654503502055E+02   -0.29258E-02   -0.56172E-02 13696   0.115E+00    0.849E-02
DAV:   2    -0.654503526535E+02   -0.24479E-05   -0.69917E-04 17720   0.130E-01
  12 F= -.65450353E+02 E0= -.65450428E+02  d E =-.289254E-02
 ZBRENT: can't locate minimum, use default step
 trial-energy change:   -0.002893  1 .order   -0.002947   -0.002976   -0.002918
 step:   4.5510(harm= 58.4709)  dis= 0.01688  next Energy=   -65.523932 (dE=-0.765E-01)
 bond charge predicted
       N       E                     dE             d eps       ncg     rms          rms(c)
DAV:   1    -0.654579656235E+02   -0.76154E-02   -0.49802E-01 13704   0.343E+00    0.253E-01
DAV:   2    -0.654580231669E+02   -0.57543E-04   -0.60594E-03 17800   0.381E-01    0.166E-01
DAV:   3    -0.654577954064E+02    0.22776E-03   -0.74459E-04 14600   0.111E-01    0.226E-02
DAV:   4    -0.654577873181E+02    0.80883E-05   -0.39379E-05  9160   0.307E-02
  13 F= -.65457787E+02 E0= -.65457868E+02  d E =-.103272E-01
 curvature:  -4.46 expect dE=-0.114E-01 dE for cont linesearch -0.468E-02
 ZBRENT: increasing intervall
 opt :  11.3775  next Energy=   -65.466260 (dE=-0.188E-01)
 bond charge predicted
       N       E                     dE             d eps       ncg     rms          rms(c)
DAV:   1    -0.654684644500E+02   -0.10669E-01   -0.20135E+00 13680   0.686E+00    0.509E-01
DAV:   2    -0.654687230713E+02   -0.25862E-03   -0.25841E-02 17792   0.784E-01    0.337E-01
DAV:   3    -0.654677257787E+02    0.99729E-03   -0.32747E-03 14688   0.234E-01    0.506E-02
DAV:   4    -0.654676821242E+02    0.43655E-04   -0.19231E-04 16952   0.664E-02
  14 F= -.65467682E+02 E0= -.65467773E+02  d E =-.202220E-01
 curvature:  -8.08 expect dE=-0.608E-01 dE for cont linesearch -0.181E-02
 ZBRENT: increasing intervall
 opt :  25.0305  next Energy=   -65.465716 (dE=-0.183E-01)
 bond charge predicted
       N       E                     dE             d eps       ncg     rms          rms(c)
DAV:   1    -0.654700457048E+02   -0.23199E-02   -0.79565E+00 13648   0.136E+01    0.995E-01
DAV:   2    -0.654719174584E+02   -0.18718E-02   -0.10758E-01 17760   0.158E+00    0.667E-01
DAV:   3    -0.654679968251E+02    0.39206E-02   -0.13181E-02 14680   0.470E-01    0.103E-01
DAV:   4    -0.654678138437E+02    0.18298E-03   -0.82436E-04 17232   0.137E-01    0.535E-02
DAV:   5    -0.654677729623E+02    0.40881E-04   -0.16992E-04 13432   0.582E-02
  15 F= -.65467773E+02 E0= -.65467884E+02  d E =-.203129E-01
 curvature:   8.78 expect dE= 0.329E+00 dE for cont linesearch  0.256E-02
 ZBRENT: bracketing found
 ZBRENT: interpolating
 opt :  17.7565  next Energy=   -65.470487 (dE=-0.230E-01)
 bond charge predicted
       N       E                     dE             d eps       ncg     rms          rms(c)
DAV:   1    -0.654719735792E+02   -0.41597E-02   -0.22418E+00 13704   0.728E+00    0.543E-01
DAV:   2    -0.654721950037E+02   -0.22142E-03   -0.29866E-02 17688   0.841E-01    0.355E-01
DAV:   3    -0.654710477216E+02    0.11473E-02   -0.34819E-03 14800   0.240E-01    0.441E-02
DAV:   4    -0.654710224071E+02    0.25314E-04   -0.20002E-04 16992   0.681E-02
  16 F= -.65471022E+02 E0= -.65471123E+02  d E =-.235623E-01
 curvature:  -9.63 expect dE=-0.175E+00 dE for cont linesearch -0.299E-04
 trial: gam= 6.99714 g(F)=  0.156E-01 g(S)=  0.253E-02 ort = 0.104E-03 (trialstep = 0.817E-01)
 search vector abs. value=  0.189E+00
 bond charge predicted
       N       E                     dE             d eps       ncg     rms          rms(c)
DAV:   1    -0.654723784990E+02   -0.13308E-02   -0.17312E-02 13864   0.649E-01    0.499E-02
DAV:   2    -0.654723786115E+02   -0.11251E-06   -0.29005E-04 17616   0.841E-02
  17 F= -.65472379E+02 E0= -.65472481E+02  d E =-.135620E-02
 ZBRENT: can't locate minimum, use default step
 trial-energy change:   -0.001356  1 .order   -0.001400   -0.001542   -0.001258
 step:   0.3266(harm=  0.4424)  dis= 0.01077  next Energy=   -65.475200 (dE=-0.418E-02)
 bond charge predicted
       N       E                     dE             d eps       ncg     rms          rms(c)
DAV:   1    -0.654746447439E+02   -0.22662E-02   -0.15531E-01 13968   0.194E+00    0.150E-01
DAV:   2    -0.654746691530E+02   -0.24409E-04   -0.25539E-03 17584   0.250E-01    0.101E-01
DAV:   3    -0.654745564825E+02    0.11267E-03   -0.25475E-04 15504   0.956E-02    0.102E-02
DAV:   4    -0.654745623672E+02   -0.58847E-05   -0.84632E-05  7624   0.449E-02
  18 F= -.65474562E+02 E0= -.65474667E+02  d E =-.353996E-02
 curvature:  -1.98 expect dE=-0.506E-02 dE for cont linesearch -0.102E-03
 trial: gam=-0.00944 g(F)=  0.651E-03 g(S)=  0.190E-02 ort = 0.312E-02 (trialstep = 0.131E+00)
 search vector abs. value=  0.251E-02
 bond charge predicted
       N       E                     dE             d eps       ncg     rms          rms(c)
DAV:   1    -0.654748881556E+02   -0.33167E-03   -0.19232E-04  9496   0.688E-02    0.878E-03
DAV:   2    -0.654748880788E+02    0.76782E-07   -0.83172E-06  6824   0.150E-02
  19 F= -.65474888E+02 E0= -.65474993E+02  d E =-.325712E-03
 ZBRENT: can't locate minimum, use default step
 trial-energy change:   -0.000326  1 .order   -0.000328   -0.000330   -0.000326
 step:   0.5226(harm= 10.1859)  dis= 0.00080  next Energy=   -65.487421 (dE=-0.129E-01)
 bond charge predicted
       N       E                     dE             d eps       ncg     rms          rms(c)
DAV:   1    -0.654758378938E+02   -0.94974E-03   -0.17328E-03 15264   0.204E-01    0.256E-02
DAV:   2    -0.654758332033E+02    0.46904E-05   -0.30926E-05  7208   0.267E-02
  20 F= -.65475833E+02 E0= -.65475938E+02  d E =-.127084E-02
 curvature:  -0.39 expect dE=-0.944E-03 dE for cont linesearch -0.895E-03
 trial: gam=-0.00069 g(F)=  0.776E-03 g(S)=  0.166E-02 ort = 0.241E-02 (trialstep = 0.209E+00)
 search vector abs. value=  0.243E-02
 bond charge predicted
       N       E                     dE             d eps       ncg     rms          rms(c)
DAV:   1    -0.654763190008E+02   -0.48111E-03   -0.65831E-04 15416   0.127E-01    0.157E-02
DAV:   2    -0.654763172553E+02    0.17455E-05   -0.11473E-05  6928   0.161E-02
  21 F= -.65476317E+02 E0= -.65476422E+02  d E =-.484052E-03
 ZBRENT: can't locate minimum, use default step
 trial-energy change:   -0.000484  1 .order   -0.000499   -0.000509   -0.000490
 step:   0.8361(harm=  5.4974)  dis= 0.00197  next Energy=   -65.482527 (dE=-0.669E-02)
 bond charge predicted
       N       E                     dE             d eps       ncg     rms          rms(c)
DAV:   1    -0.654777253767E+02   -0.14064E-02   -0.65739E-03 15048   0.396E-01    0.491E-02
DAV:   2    -0.654777068052E+02    0.18571E-04   -0.12359E-04 14448   0.519E-02
  22 F= -.65477707E+02 E0= -.65477812E+02  d E =-.187360E-02
 curvature:  -0.61 expect dE=-0.139E-02 dE for cont linesearch -0.129E-02
 ZBRENT: increasing intervall
 opt :   2.0903  next Energy=   -65.480435 (dE=-0.460E-02)
 bond charge predicted
       N       E                     dE             d eps       ncg     rms          rms(c)
DAV:   1    -0.654802153052E+02   -0.24899E-02   -0.25892E-02 14616   0.789E-01    0.979E-02
DAV:   2    -0.654801422023E+02    0.73103E-04   -0.47900E-04 17144   0.102E-01
  23 F= -.65480142E+02 E0= -.65480247E+02  d E =-.430900E-02
 curvature:  -1.30 expect dE=-0.359E-02 dE for cont linesearch -0.221E-02
 ZBRENT: increasing intervall
 opt :   4.5987  next Energy=   -65.484667 (dE=-0.883E-02)
 bond charge predicted
       N       E                     dE             d eps       ncg     rms          rms(c)
DAV:   1    -0.654839438838E+02   -0.37286E-02   -0.10374E-01 14632   0.158E+00    0.196E-01
DAV:   2    -0.654836523920E+02    0.29149E-03   -0.19239E-03 17016   0.205E-01    0.118E-01
DAV:   3    -0.654834630602E+02    0.18933E-03   -0.38084E-04 15160   0.826E-02    0.101E-02
DAV:   4    -0.654834636221E+02   -0.56192E-06   -0.18347E-05  7528   0.208E-02
  24 F= -.65483464E+02 E0= -.65483569E+02  d E =-.763042E-02
 curvature:  -2.67 expect dE=-0.166E-01 dE for cont linesearch -0.973E-03
 trial: gam= 0.00000 g(F)=  0.536E-02 g(S)=  0.848E-03 ort = 0.942E-03 (trialstep = 0.426E+00)
 search vector abs. value=  0.621E-02
 bond charge predicted
       N       E                     dE             d eps       ncg     rms          rms(c)
DAV:   1    -0.654844583763E+02   -0.99532E-03   -0.20840E-02 15600   0.768E-01    0.613E-02
DAV:   2    -0.654844589464E+02   -0.57007E-06   -0.52737E-04 16392   0.117E-01
  25 F= -.65484459E+02 E0= -.65484565E+02  d E =-.995324E-03
 trial-energy change:   -0.000995  1 .order   -0.001004   -0.002645    0.000638
 step:   0.3431(harm=  0.3431)  dis= 0.00219  next Energy=   -65.484529 (dE=-0.107E-02)
 bond charge predicted
       N       E                     dE             d eps       ncg     rms          rms(c)
DAV:   1    -0.654845051324E+02   -0.46756E-04   -0.10474E-03 14704   0.175E-01    0.112E-02
DAV:   2    -0.654845120793E+02   -0.69470E-05   -0.91041E-05  6848   0.497E-02
  26 F= -.65484512E+02 E0= -.65484618E+02  d E =-.104846E-02
 curvature:  -0.17 expect dE=-0.188E-03 dE for cont linesearch -0.892E-06
 trial: gam= 0.20512 g(F)=  0.878E-03 g(S)=  0.216E-03 ort =-0.180E-03 (trialstep = 0.409E+00)
 search vector abs. value=  0.128E-02
 reached required accuracy - stopping structural energy minimisation
