unknown system                          
           1
     5.770709   -0.444267   -0.536319
    -2.161785    5.120258   -0.390916
    -3.034967   -1.058896    5.774567
   H    Nb   H    Sr   H 
   2   1   9   2   1
Direct configuration=     1
   0.18545681  0.19548250  0.98205867
   0.15162001  0.19424909  0.85350889
   0.10232399  0.79505179  0.36088866
   0.15867036  0.11270818  0.25756560
   0.31118251  0.67693912  0.61897045
   0.13736934  0.93201735  0.63802318
   0.16449932  0.58689975  0.84600391
   0.17027996  0.62161103  0.96344046
   0.75250510  0.80260167  0.28488674
   0.76886357  0.61629719  0.00434936
   0.80225776  0.45351043  0.34113230
   0.16313172  0.54122042  0.23705188
   0.63799690  0.56719018  0.57076445
   0.64903383  0.08204037  0.02347987
   0.55303883  0.08050792  0.59166459
unknown system                          
           1
     5.775771   -0.446169   -0.537111
    -2.165400    5.119478   -0.391182
    -3.037881   -1.058020    5.775900
   H    Nb   H    Sr   H 
   2   1   9   2   1
Direct configuration=     2
   0.18511426  0.19480059  0.98207913
   0.15169949  0.19420905  0.85339213
   0.10250540  0.79511695  0.36069620
   0.15868934  0.11306127  0.25772113
   0.31132829  0.67710141  0.61909024
   0.13758714  0.93220809  0.63806223
   0.16422718  0.58654884  0.84562450
   0.17008963  0.62126181  0.96335441
   0.75248211  0.80241852  0.28481527
   0.76885501  0.61620977  0.00436865
   0.80233377  0.45346269  0.34138339
   0.16318319  0.54153532  0.23712458
   0.63807635  0.56740738  0.57085985
   0.64895819  0.08219834  0.02356394
   0.55310065  0.08078696  0.59165332
unknown system                          
           1
     5.787194   -0.450459   -0.538897
    -2.173556    5.117718   -0.391782
    -3.044457   -1.056046    5.778907
   H    Nb   H    Sr   H 
   2   1   9   2   1
Direct configuration=     3
   0.18434066  0.19326123  0.98212502
   0.15187856  0.19411879  0.85312871
   0.10291443  0.79526423  0.36026209
   0.15873290  0.11385817  0.25807214
   0.31165739  0.67746776  0.61936058
   0.13807863  0.93263874  0.63815043
   0.16361261  0.58575679  0.84476839
   0.16965976  0.62047350  0.96316014
   0.75242988  0.80200514  0.28465400
   0.76883558  0.61601242  0.00441213
   0.80250526  0.45335489  0.34194986
   0.16329986  0.54224607  0.23728872
   0.63825596  0.56789764  0.57107516
   0.64878797  0.08255477  0.02375363
   0.55324055  0.08141683  0.59162800
unknown system                          
           1
     5.786913   -0.450920   -0.538395
    -2.173890    5.117431   -0.391519
    -3.043832   -1.055358    5.777175
   H    Nb   H    Sr   H 
   2   1   9   2   1
Direct configuration=     4
   0.18418868  0.19312447  0.98179959
   0.15197641  0.19410145  0.85343713
   0.10280148  0.79532861  0.36044752
   0.15871728  0.11390742  0.25809275
   0.31166765  0.67750778  0.61933187
   0.13812148  0.93264114  0.63806538
   0.16356465  0.58575143  0.84492664
   0.16961400  0.62034741  0.96291096
   0.75252013  0.80197489  0.28463936
   0.76882206  0.61597486  0.00438306
   0.80258104  0.45341156  0.34199948
   0.16332314  0.54225190  0.23727662
   0.63830631  0.56798338  0.57109288
   0.64877096  0.08254781  0.02376363
   0.55325474  0.08147289  0.59162214
unknown system                          
           1
     5.786497   -0.451603   -0.537650
    -2.174385    5.117004   -0.391129
    -3.042904   -1.054338    5.774606
   H    Nb   H    Sr   H 
   2   1   9   2   1
Direct configuration=     5
   0.18396315  0.19292154  0.98131658
   0.15212161  0.19407569  0.85389491
   0.10263388  0.79542410  0.36072275
   0.15869410  0.11398050  0.25812335
   0.31168288  0.67756717  0.61928925
   0.13818506  0.93264472  0.63793913
   0.16349348  0.58574345  0.84516152
   0.16954608  0.62016033  0.96254112
   0.75265404  0.80193002  0.28461762
   0.76880199  0.61591912  0.00433990
   0.80269350  0.45349566  0.34207312
   0.16335768  0.54226056  0.23725866
   0.63838103  0.56811062  0.57111918
   0.64874571  0.08253747  0.02377846
   0.55327581  0.08155607  0.59161343
