 running on   16 total cores
 distrk:  each k-point on   16 cores,    1 groups
 distr:  one band on    1 cores,   16 groups
 using from now: INCAR     
 vasp.5.4.4.18Apr17-6-g9f103f2a35 (build Nov 01 2019 12:17:22) complex          
  
 POSCAR found type information on POSCAR  Sr Nb H 
 POSCAR found :  3 types and      12 ions

 ----------------------------------------------------------------------------- 
|                                                                             |
|           W    W    AA    RRRRR   N    N  II  N    N   GGGG   !!!           |
|           W    W   A  A   R    R  NN   N  II  NN   N  G    G  !!!           |
|           W    W  A    A  R    R  N N  N  II  N N  N  G       !!!           |
|           W WW W  AAAAAA  RRRRR   N  N N  II  N  N N  G  GGG   !            |
|           WW  WW  A    A  R   R   N   NN  II  N   NN  G    G                |
|           W    W  A    A  R    R  N    N  II  N    N   GGGG   !!!           |
|                                                                             |
|      For optimal performance we recommend to set                            |
|        NCORE= 4 - approx SQRT( number of cores)                             |
|      NCORE specifies how many cores store one orbital (NPAR=cpu/NCORE).     |
|      This setting can  greatly improve the performance of VASP for DFT.     |
|      The default,   NCORE=1            might be grossly inefficient         |
|      on modern multi-core architectures or massively parallel machines.     |
|      Do your own testing !!!!                                               |
|      Unfortunately you need to use the default for GW and RPA calculations. |
|      (for HF NCORE is supported but not extensively tested yet)             |
|                                                                             |
 ----------------------------------------------------------------------------- 

 LDA part: xc-table for Pade appr. of Perdew
 POSCAR, INCAR and KPOINTS ok, starting setup
 FFT: planning ...
 WAVECAR not read
 entering main loop
       N       E                     dE             d eps       ncg     rms          rms(c)
DAV:   1     0.225035577213E+03    0.22504E+03   -0.19173E+04  6144   0.112E+03
DAV:   2    -0.314758611672E+02   -0.25651E+03   -0.25060E+03  7280   0.307E+02
DAV:   3    -0.471366157338E+02   -0.15661E+02   -0.15613E+02 12112   0.627E+01
DAV:   4    -0.474242255740E+02   -0.28761E+00   -0.28753E+00  7504   0.760E+00
DAV:   5    -0.474402203521E+02   -0.15995E-01   -0.15994E-01 10576   0.139E+00    0.405E+01
RMM:   6    -0.480246482261E+02   -0.58443E+00   -0.74650E+00  6857   0.113E+01    0.190E+01
RMM:   7    -0.474089517342E+02    0.61570E+00   -0.19730E+00  7096   0.697E+00    0.101E+01
RMM:   8    -0.473856786948E+02    0.23273E-01   -0.44730E-01  6988   0.433E+00    0.428E+00
RMM:   9    -0.474137957944E+02   -0.28117E-01   -0.14094E-01  7342   0.208E+00    0.167E+00
RMM:  10    -0.474161542170E+02   -0.23584E-02   -0.24142E-02  6883   0.103E+00    0.984E-01
RMM:  11    -0.474157169707E+02    0.43725E-03   -0.10711E-02  6649   0.527E-01    0.296E-01
RMM:  12    -0.474161920348E+02   -0.47506E-03   -0.26804E-03  5691   0.324E-01
   1 F= -.47416192E+02 E0= -.47416192E+02  d E =-.474162E+02  mag=    -0.0065
 curvature:   0.00 expect dE= 0.000E+00 dE for cont linesearch  0.000E+00
 trial: gam= 0.00000 g(F)=  0.234E-02 g(S)=  0.569E-01 ort = 0.000E+00 (trialstep = 0.100E+01)
 search vector abs. value=  0.592E-01
 bond charge predicted
       N       E                     dE             d eps       ncg     rms          rms(c)
DAV:   1    -0.476118147396E+02   -0.19610E+00   -0.36223E+00  9200   0.122E+01    0.434E+00
RMM:   2    -0.474908551055E+02    0.12096E+00   -0.45639E-01  6963   0.396E+00    0.107E+00
RMM:   3    -0.474625980127E+02    0.28257E-01   -0.45236E-02  6934   0.198E+00    0.983E-01
RMM:   4    -0.474565223751E+02    0.60756E-02   -0.17560E-02  6722   0.880E-01    0.936E-01
RMM:   5    -0.474566679702E+02   -0.14560E-03   -0.75063E-03  6778   0.892E-01    0.351E-01
RMM:   6    -0.474566406935E+02    0.27277E-04   -0.75257E-03  6960   0.364E-01    0.111E-01
RMM:   7    -0.474567286527E+02   -0.87959E-04   -0.10506E-03  5073   0.343E-01
   2 F= -.47456729E+02 E0= -.47456729E+02  d E =-.405366E-01  mag=    -0.0000
 trial-energy change:   -0.040537  1 .order   -0.042579   -0.059216   -0.025941
 step:   1.7796(harm=  1.7796)  dis= 0.01087  next Energy=   -47.468882 (dE=-0.527E-01)
 bond charge predicted
       N       E                     dE             d eps       ncg     rms          rms(c)
DAV:   1    -0.475542264109E+02   -0.97586E-01   -0.21460E+00  6800   0.937E+00    0.324E+00
RMM:   2    -0.474828194305E+02    0.71407E-01   -0.25637E-01  7039   0.301E+00    0.792E-01
RMM:   3    -0.474670905193E+02    0.15729E-01   -0.24626E-02  6848   0.142E+00    0.720E-01
RMM:   4    -0.474637724694E+02    0.33180E-02   -0.98877E-03  6267   0.682E-01    0.676E-01
RMM:   5    -0.474639800898E+02   -0.20762E-03   -0.48027E-03  6386   0.697E-01
   3 F= -.47463980E+02 E0= -.47463980E+02  d E =-.477881E-01  mag=    -0.0000
 curvature:  -0.89 expect dE=-0.155E-01 dE for cont linesearch -0.158E-02
 trial: gam= 0.12116 g(F)=  0.154E-01 g(S)=  0.198E-02 ort = 0.102E-01 (trialstep = 0.116E+01)
 search vector abs. value=  0.208E-01
 bond charge predicted
       N       E                     dE             d eps       ncg     rms          rms(c)
DAV:   1    -0.474953382895E+02   -0.31566E-01   -0.10048E+00  7680   0.688E+00    0.116E+00
RMM:   2    -0.474797487020E+02    0.15590E-01   -0.78532E-02  6937   0.151E+00    0.566E-01
RMM:   3    -0.474766331837E+02    0.31155E-02   -0.64053E-03  6771   0.667E-01    0.405E-01
RMM:   4    -0.474763843308E+02    0.24885E-03   -0.57142E-03  5995   0.393E-01
   4 F= -.47476384E+02 E0= -.47476384E+02  d E =-.124042E-01  mag=    -0.0000
 trial-energy change:   -0.012404  1 .order   -0.015092   -0.021568   -0.008617
 step:   1.9250(harm=  1.9250)  dis= 0.02367  next Energy=   -47.481939 (dE=-0.180E-01)
 bond charge predicted
       N       E                     dE             d eps       ncg     rms          rms(c)
DAV:   1    -0.474872094284E+02   -0.10576E-01   -0.45074E-01  8448   0.466E+00    0.721E-01
RMM:   2    -0.474801307718E+02    0.70787E-02   -0.36224E-02  6931   0.103E+00    0.465E-01
RMM:   3    -0.474786408598E+02    0.14899E-02   -0.23461E-03  5334   0.438E-01    0.320E-01
RMM:   4    -0.474785318836E+02    0.10898E-03   -0.43461E-03  5756   0.355E-01
   5 F= -.47478532E+02 E0= -.47478532E+02  d E =-.145518E-01  mag=    -0.0000
 curvature:  -1.07 expect dE=-0.217E-01 dE for cont linesearch -0.371E-05
 trial: gam= 1.16784 g(F)=  0.190E-01 g(S)=  0.128E-02 ort =-0.268E-03 (trialstep = 0.567E+00)
 search vector abs. value=  0.480E-01
 bond charge predicted
       N       E                     dE             d eps       ncg     rms          rms(c)
DAV:   1    -0.474873541904E+02   -0.87133E-02   -0.57781E-01  7680   0.554E+00    0.470E-01
RMM:   2    -0.474862428440E+02    0.11113E-02   -0.34319E-02  6895   0.947E-01    0.390E-01
RMM:   3    -0.474853503658E+02    0.89248E-03   -0.11184E-03  4417   0.365E-01    0.366E-01
RMM:   4    -0.474853059183E+02    0.44447E-04   -0.69396E-04  4247   0.220E-01
   6 F= -.47485306E+02 E0= -.47485306E+02  d E =-.677403E-02  mag=     0.0000
 trial-energy change:   -0.006774  1 .order   -0.006997   -0.011326   -0.002668
 step:   0.7414(harm=  0.7414)  dis= 0.01028  next Energy=   -47.485940 (dE=-0.741E-02)
 bond charge predicted
       N       E                     dE             d eps       ncg     rms          rms(c)
DAV:   1    -0.474858338054E+02   -0.48344E-03   -0.54220E-02 10752   0.174E+00    0.163E-01
RMM:   2    -0.474857243212E+02    0.10948E-03   -0.29063E-03  5182   0.293E-01
   7 F= -.47485724E+02 E0= -.47485724E+02  d E =-.719244E-02  mag=     0.0000
 curvature:  -0.89 expect dE=-0.338E-02 dE for cont linesearch -0.365E-04
 trial: gam= 0.19209 g(F)=  0.265E-02 g(S)=  0.114E-02 ort =-0.140E-02 (trialstep = 0.602E+00)
 search vector abs. value=  0.503E-02
 bond charge predicted
       N       E                     dE             d eps       ncg     rms          rms(c)
DAV:   1    -0.474878690093E+02   -0.20352E-02   -0.59451E-02  8304   0.162E+00    0.152E-01
RMM:   2    -0.474878644033E+02    0.46060E-05   -0.22018E-03  5141   0.266E-01
   8 F= -.47487864E+02 E0= -.47487864E+02  d E =-.214008E-02  mag=    -0.0000
 ZBRENT: can't locate minimum, use default step
 trial-energy change:   -0.002140  1 .order   -0.002094   -0.002122   -0.002067
 step:   2.4067(harm= 23.0394)  dis= 0.01254  next Energy=   -47.526354 (dE=-0.406E-01)
 bond charge predicted
       N       E                     dE             d eps       ncg     rms          rms(c)
DAV:   1    -0.474936570825E+02   -0.57881E-02   -0.52787E-01  7680   0.480E+00    0.386E-01
RMM:   2    -0.474932339115E+02    0.42317E-03   -0.20389E-02  6651   0.797E-01    0.251E-01
RMM:   3    -0.474923976746E+02    0.83624E-03   -0.13134E-03  4594   0.492E-01    0.184E-01
RMM:   4    -0.474923110319E+02    0.86643E-04   -0.63706E-04  4222   0.182E-01
   9 F= -.47492311E+02 E0= -.47492311E+02  d E =-.658671E-02  mag=    -0.0000
 curvature:  -2.54 expect dE=-0.132E-01 dE for cont linesearch -0.235E-02
 trial: gam= 0.00000 g(F)=  0.394E-02 g(S)=  0.126E-02 ort = 0.216E-02 (trialstep = 0.932E+00)
 search vector abs. value=  0.519E-02
 bond charge predicted
       N       E                     dE             d eps       ncg     rms          rms(c)
DAV:   1    -0.474936270762E+02   -0.12294E-02   -0.32781E-01  7680   0.453E+00    0.250E-01
RMM:   2    -0.474952958922E+02   -0.16688E-02   -0.24087E-02  5915   0.699E-01    0.208E-01
RMM:   3    -0.474945663780E+02    0.72951E-03   -0.90158E-04  4303   0.344E-01    0.104E-01
RMM:   4    -0.474945402183E+02    0.26160E-04   -0.32493E-04  3904   0.139E-01
  10 F= -.47494540E+02 E0= -.47494540E+02  d E =-.222919E-02  mag=     0.0000
 trial-energy change:   -0.002229  1 .order   -0.002450   -0.004841   -0.000060
 step:   0.9436(harm=  0.9436)  dis= 0.00355  next Energy=   -47.494762 (dE=-0.245E-02)
 bond charge predicted
       N       E                     dE             d eps       ncg     rms          rms(c)
DAV:   1    -0.474945536051E+02    0.12773E-04   -0.20309E-04  6496   0.166E-01    0.623E-02
RMM:   2    -0.474945551035E+02   -0.14983E-05   -0.34099E-05  1937   0.398E-02
  11 F= -.47494555E+02 E0= -.47494555E+02  d E =-.224407E-02  mag=    -0.0000
 curvature:  -0.47 expect dE=-0.134E-02 dE for cont linesearch -0.150E-06
 trial: gam= 0.55435 g(F)=  0.252E-02 g(S)=  0.319E-03 ort =-0.407E-04 (trialstep = 0.934E+00)
 search vector abs. value=  0.439E-02
 reached required accuracy - stopping structural energy minimisation
