 running on   16 total cores
 distrk:  each k-point on   16 cores,    1 groups
 distr:  one band on    1 cores,   16 groups
 using from now: INCAR     
 vasp.5.4.4.18Apr17-6-g9f103f2a35 (build Nov 01 2019 12:17:22) complex          
  
 POSCAR found type information on POSCAR  Sr Nb H 
 POSCAR found :  3 types and      10 ions

 ----------------------------------------------------------------------------- 
|                                                                             |
|           W    W    AA    RRRRR   N    N  II  N    N   GGGG   !!!           |
|           W    W   A  A   R    R  NN   N  II  NN   N  G    G  !!!           |
|           W    W  A    A  R    R  N N  N  II  N N  N  G       !!!           |
|           W WW W  AAAAAA  RRRRR   N  N N  II  N  N N  G  GGG   !            |
|           WW  WW  A    A  R   R   N   NN  II  N   NN  G    G                |
|           W    W  A    A  R    R  N    N  II  N    N   GGGG   !!!           |
|                                                                             |
|      For optimal performance we recommend to set                            |
|        NCORE= 4 - approx SQRT( number of cores)                             |
|      NCORE specifies how many cores store one orbital (NPAR=cpu/NCORE).     |
|      This setting can  greatly improve the performance of VASP for DFT.     |
|      The default,   NCORE=1            might be grossly inefficient         |
|      on modern multi-core architectures or massively parallel machines.     |
|      Do your own testing !!!!                                               |
|      Unfortunately you need to use the default for GW and RPA calculations. |
|      (for HF NCORE is supported but not extensively tested yet)             |
|                                                                             |
 ----------------------------------------------------------------------------- 

 LDA part: xc-table for Pade appr. of Perdew
 POSCAR, INCAR and KPOINTS ok, starting setup
 FFT: planning ...
 WAVECAR not read
 entering main loop
       N       E                     dE             d eps       ncg     rms          rms(c)
DAV:   1     0.210921813234E+03    0.21092E+03   -0.18705E+04  7424   0.112E+03
DAV:   2    -0.269979776960E+02   -0.23792E+03   -0.23163E+03  9024   0.302E+02
DAV:   3    -0.404961765353E+02   -0.13498E+02   -0.13440E+02 14528   0.595E+01
DAV:   4    -0.406953631582E+02   -0.19919E+00   -0.19932E+00  8016   0.634E+00
DAV:   5    -0.407025537149E+02   -0.71906E-02   -0.72059E-02 12784   0.969E-01    0.378E+01
RMM:   6    -0.407519025842E+02   -0.49349E-01   -0.74396E+00  8298   0.110E+01    0.175E+01
RMM:   7    -0.401101820431E+02    0.64172E+00   -0.15953E+00  8554   0.621E+00    0.108E+01
RMM:   8    -0.400770721306E+02    0.33110E-01   -0.53068E-01  8450   0.468E+00    0.391E+00
RMM:   9    -0.400935302406E+02   -0.16458E-01   -0.12133E-01  8955   0.178E+00    0.188E+00
RMM:  10    -0.400861063795E+02    0.74239E-02   -0.36242E-02  8354   0.112E+00    0.550E-01
RMM:  11    -0.400866879367E+02   -0.58156E-03   -0.52197E-03  7290   0.500E-01    0.281E-01
RMM:  12    -0.400868287672E+02   -0.14083E-03   -0.14753E-03  5981   0.243E-01
   1 F= -.40086829E+02 E0= -.40086829E+02  d E =-.400868E+02  mag=     0.0011
 curvature:   0.00 expect dE= 0.000E+00 dE for cont linesearch  0.000E+00
 trial: gam= 0.00000 g(F)=  0.466E-03 g(S)=  0.508E-01 ort = 0.000E+00 (trialstep = 0.100E+01)
 search vector abs. value=  0.513E-01
 bond charge predicted
       N       E                     dE             d eps       ncg     rms          rms(c)
DAV:   1    -0.402900262058E+02   -0.20334E+00   -0.37417E+00 11136   0.117E+01    0.414E+00
RMM:   2    -0.401705295334E+02    0.11950E+00   -0.48182E-01  8321   0.395E+00    0.124E+00
RMM:   3    -0.401269212998E+02    0.43608E-01   -0.55246E-02  8129   0.208E+00    0.114E+00
RMM:   4    -0.401184905369E+02    0.84308E-02   -0.21831E-02  8296   0.960E-01    0.107E+00
RMM:   5    -0.401181505147E+02    0.34002E-03   -0.11054E-02  9071   0.926E-01    0.398E-01
RMM:   6    -0.401184149279E+02   -0.26441E-03   -0.64878E-03  8671   0.354E-01    0.111E-01
RMM:   7    -0.401185306502E+02   -0.11572E-03   -0.10424E-03  6063   0.331E-01
   2 F= -.40118531E+02 E0= -.40118531E+02  d E =-.317019E-01  mag=    -0.0000
 trial-energy change:   -0.031702  1 .order   -0.034515   -0.051303   -0.017728
 step:   1.5280(harm=  1.5280)  dis= 0.00296  next Energy=   -40.126024 (dE=-0.392E-01)
 bond charge predicted
       N       E                     dE             d eps       ncg     rms          rms(c)
DAV:   1    -0.401679432846E+02   -0.49528E-01   -0.10151E+00  7680   0.606E+00    0.209E+00
RMM:   2    -0.401352638435E+02    0.32679E-01   -0.12887E-01  8352   0.204E+00    0.620E-01
RMM:   3    -0.401234975737E+02    0.11766E-01   -0.13482E-02  7940   0.101E+00    0.578E-01
RMM:   4    -0.401212848386E+02    0.22127E-02   -0.56080E-03  7358   0.514E-01    0.509E-01
RMM:   5    -0.401212192098E+02    0.65629E-04   -0.33349E-03  7585   0.528E-01
   3 F= -.40121219E+02 E0= -.40121219E+02  d E =-.343904E-01  mag=    -0.0000
 curvature:  -0.76 expect dE=-0.588E-02 dE for cont linesearch -0.601E-03
 trial: gam= 0.02609 g(F)=  0.648E-02 g(S)=  0.121E-02 ort = 0.635E-02 (trialstep = 0.111E+01)
 search vector abs. value=  0.806E-02
 bond charge predicted
       N       E                     dE             d eps       ncg     rms          rms(c)
DAV:   1    -0.401300697671E+02   -0.87849E-02   -0.64862E-01  9280   0.597E+00    0.616E-01
RMM:   2    -0.401280556711E+02    0.20141E-02   -0.48363E-02  8258   0.107E+00    0.327E-01
RMM:   3    -0.401262926599E+02    0.17630E-02   -0.23588E-03  6579   0.455E-01    0.221E-01
RMM:   4    -0.401261368534E+02    0.15581E-03   -0.20499E-03  6810   0.268E-01
   4 F= -.40126137E+02 E0= -.40126137E+02  d E =-.491764E-02  mag=    -0.0000
 trial-energy change:   -0.004918  1 .order   -0.005763   -0.008689   -0.002838
 step:   1.6419(harm=  1.6419)  dis= 0.01094  next Energy=   -40.127671 (dE=-0.645E-02)
 bond charge predicted
       N       E                     dE             d eps       ncg     rms          rms(c)
DAV:   1    -0.401276301261E+02   -0.13375E-02   -0.15322E-01 11104   0.295E+00    0.308E-01
RMM:   2    -0.401270458558E+02    0.58427E-03   -0.11114E-02  7664   0.519E-01    0.175E-01
RMM:   3    -0.401265998830E+02    0.44597E-03   -0.49001E-04  4949   0.222E-01
   5 F= -.40126600E+02 E0= -.40126600E+02  d E =-.538067E-02  mag=     0.0000
 curvature:  -0.84 expect dE=-0.348E-02 dE for cont linesearch -0.297E-04
 trial: gam= 0.47786 g(F)=  0.346E-02 g(S)=  0.670E-03 ort = 0.533E-03 (trialstep = 0.121E+01)
 search vector abs. value=  0.648E-02
 bond charge predicted
       N       E                     dE             d eps       ncg     rms          rms(c)
DAV:   1    -0.401349187451E+02   -0.78729E-02   -0.41221E-01  9312   0.452E+00    0.665E-01
RMM:   2    -0.401305181592E+02    0.44006E-02   -0.31945E-02  8203   0.937E-01    0.327E-01
RMM:   3    -0.401286011137E+02    0.19170E-02   -0.21958E-03  6552   0.428E-01    0.224E-01
RMM:   4    -0.401283191073E+02    0.28201E-03   -0.25720E-03  7048   0.281E-01
   6 F= -.40128319E+02 E0= -.40128319E+02  d E =-.171922E-02  mag=    -0.0000
 trial-energy change:   -0.001719  1 .order   -0.003102   -0.005317   -0.000886
 step:   1.4555(harm=  1.4555)  dis= 0.00670  next Energy=   -40.129790 (dE=-0.319E-02)
 bond charge predicted
       N       E                     dE             d eps       ncg     rms          rms(c)
DAV:   1    -0.401286044594E+02   -0.33456E-05   -0.16197E-02 12976   0.992E-01    0.147E-01
RMM:   2    -0.401284105211E+02    0.19394E-03   -0.10068E-03  5300   0.188E-01
   7 F= -.40128411E+02 E0= -.40128411E+02  d E =-.181064E-02  mag=    -0.0000
 curvature:  -1.08 expect dE=-0.123E-02 dE for cont linesearch -0.108E-04
 trial: gam= 0.31324 g(F)=  0.510E-03 g(S)=  0.636E-03 ort =-0.256E-03 (trialstep = 0.126E+01)
 search vector abs. value=  0.162E-02
 reached required accuracy - stopping structural energy minimisation
