unknown system                          
           1
     3.964326   -0.817941    0.373888
    -0.585392    7.196864    0.221814
     1.320914    0.804383    6.957843
   Sr   H    Sr   Nb   H    Sr   H 
   1   7   1   1   4   1   6
Direct configuration=     1
   0.63185155  0.72942629  0.96663765
   0.35734021  0.46280694  0.26388281
   0.61413182  0.44810622  0.82872819
   0.88677997  0.85913650  0.56795155
   0.69291028  0.85599348  0.32026274
   0.06810882  0.76739160  0.17085862
   0.29568904  0.67363344  0.61328112
   0.73958117  0.06155551  0.69925534
   0.77431918  0.48381502  0.47913267
   0.47813804  0.95065907  0.55653084
   0.37356477  0.14631703  0.66452776
   0.46156819  0.14334129  0.37315286
   0.52350779  0.88204443  0.29379045
   0.25532789  0.87516659  0.82250950
   0.28273263  0.16018257  0.08097726
   0.95939079  0.43879851  0.98617644
   0.00183209  0.45187878  0.08431349
   0.89727512  0.14279185  0.42561523
   0.10118561  0.29801631  0.67284927
   0.12569693  0.40069702  0.69912227
   0.77029812  0.05708454  0.99903094
unknown system                          
           1
     3.963731   -0.821366    0.377369
    -0.592177    7.190872    0.217705
     1.324498    0.798641    6.962594
   Sr   H    Sr   Nb   H    Sr   H 
   1   7   1   1   4   1   6
Direct configuration=     2
   0.63178814  0.72942755  0.96680079
   0.35729717  0.46280336  0.26386112
   0.61380421  0.44818272  0.82875221
   0.88690712  0.85909617  0.56797910
   0.69504316  0.85555700  0.32058025
   0.06811229  0.76753121  0.17081414
   0.29584635  0.67377042  0.61326906
   0.73962911  0.06151636  0.69958185
   0.77431314  0.48374644  0.47906980
   0.47786375  0.95050709  0.55607442
   0.37359497  0.14644453  0.66476596
   0.46170016  0.14307680  0.37353302
   0.52168438  0.88277343  0.29334748
   0.25556674  0.87503554  0.82251987
   0.28330092  0.16035838  0.08070924
   0.95873357  0.43877573  0.98561199
   0.00184480  0.45201013  0.08463266
   0.89717296  0.14256372  0.42566179
   0.10125075  0.29849794  0.67284839
   0.12547558  0.40002347  0.69900933
   0.77030072  0.05714501  0.99916452
unknown system                          
           1
     3.963888   -0.820461    0.376449
    -0.590384    7.192455    0.218791
     1.323551    0.800158    6.961339
   Sr   H    Sr   Nb   H    Sr   H 
   1   7   1   1   4   1   6
Direct configuration=     3
   0.63180493  0.72942719  0.96675770
   0.35730855  0.46280432  0.26386684
   0.61389079  0.44816253  0.82874581
   0.88687353  0.85910681  0.56797185
   0.69447957  0.85567205  0.32049676
   0.06811130  0.76749429  0.17082587
   0.29580470  0.67373417  0.61327225
   0.73961650  0.06152664  0.69949564
   0.77431475  0.48376459  0.47908641
   0.47793626  0.95054743  0.55619493
   0.37358696  0.14641075  0.66470305
   0.46166545  0.14314666  0.37343269
   0.52216601  0.88258098  0.29346410
   0.25550366  0.87507017  0.82251718
   0.28315057  0.16031185  0.08078007
   0.95890724  0.43878198  0.98576095
   0.00184143  0.45197532  0.08454837
   0.89720008  0.14262406  0.42564951
   0.10123332  0.29837053  0.67284858
   0.12553438  0.40020168  0.69903921
   0.77030003  0.05712899  0.99912924
unknown system                          
           1
     3.960868   -0.823810    0.378999
    -0.596291    7.188015    0.213554
     1.324815    0.793560    6.963053
   Sr   H    Sr   Nb   H    Sr   H 
   1   7   1   1   4   1   6
Direct configuration=     4
   0.63168382  0.72943308  0.96696210
   0.35723909  0.46279452  0.26383065
   0.61352598  0.44825845  0.82874556
   0.88693941  0.85905537  0.56798669
   0.69489638  0.85550348  0.32055216
   0.06806149  0.76767968  0.17078260
   0.29589703  0.67376870  0.61322990
   0.73949350  0.06142574  0.69972679
   0.77435749  0.48372871  0.47900197
   0.47781559  0.95028819  0.55622822
   0.37367627  0.14651140  0.66495809
   0.46182400  0.14293077  0.37375716
   0.52215997  0.88318039  0.29326810
   0.25585890  0.87487957  0.82241377
   0.28379841  0.16050603  0.08054979
   0.95844003  0.43887770  0.98593136
   0.00143264  0.45202036  0.08404375
   0.89728296  0.14242351  0.42561246
   0.10100507  0.29788235  0.67256713
   0.12548771  0.40045279  0.69917196
   0.77035426  0.05724219  0.99926676
unknown system                          
           1
     3.959281   -0.825569    0.380339
    -0.599395    7.185682    0.210801
     1.325480    0.790092    6.963954
   Sr   H    Sr   Nb   H    Sr   H 
   1   7   1   1   4   1   6
Direct configuration=     5
   0.63162010  0.72943624  0.96706952
   0.35720254  0.46278932  0.26381165
   0.61333415  0.44830878  0.82874554
   0.88697402  0.85902835  0.56799446
   0.69511552  0.85541499  0.32058110
   0.06803543  0.76777713  0.17075995
   0.29594563  0.67378688  0.61320765
   0.73942870  0.06137275  0.69984823
   0.77437995  0.48370982  0.47895758
   0.47775192  0.95015184  0.55624565
   0.37372330  0.14656448  0.66509210
   0.46190724  0.14281745  0.37392753
   0.52215723  0.88349552  0.29316534
   0.25604564  0.87477941  0.82235930
   0.28413935  0.16060825  0.08042872
   0.95819432  0.43892797  0.98602103
   0.00121766  0.45204366  0.08377875
   0.89732642  0.14231806  0.42559291
   0.10088466  0.29762541  0.67241915
   0.12546334  0.40058489  0.69924180
   0.77038287  0.05730180  0.99933904
unknown system                          
           1
     3.957109   -0.827380    0.381847
    -0.602579    7.182594    0.207286
     1.326041    0.785774    6.965028
   Sr   H    Sr   Nb   H    Sr   H 
   1   7   1   1   4   1   6
Direct configuration=     6
   0.63152919  0.72944655  0.96719752
   0.35716019  0.46277924  0.26378090
   0.61311558  0.44837417  0.82872584
   0.88702236  0.85898537  0.56800293
   0.69492596  0.85538320  0.32054075
   0.06799662  0.76789817  0.17073471
   0.29593312  0.67371985  0.61317999
   0.73935669  0.06131968  0.69996584
   0.77441391  0.48369798  0.47892056
   0.47770738  0.95007277  0.55633933
   0.37378230  0.14659056  0.66524760
   0.46200250  0.14269687  0.37409869
   0.52261761  0.88380808  0.29310463
   0.25622998  0.87463456  0.82231970
   0.28452220  0.16072135  0.08032379
   0.95782353  0.43896445  0.98589507
   0.00101516  0.45209483  0.08368559
   0.89747444  0.14222255  0.42554741
   0.10079310  0.29758333  0.67230987
   0.12536434  0.40047506  0.69924735
   0.77044382  0.05737437  0.99941892
unknown system                          
           1
     3.950591   -0.832813    0.386374
    -0.612129    7.173332    0.196740
     1.327726    0.772819    6.968252
   Sr   H    Sr   Nb   H    Sr   H 
   1   7   1   1   4   1   6
Direct configuration=     7
   0.63125631  0.72947763  0.96758156
   0.35703303  0.46274886  0.26368868
   0.61245957  0.44857017  0.82866703
   0.88716740  0.85885644  0.56802824
   0.69435682  0.85528751  0.32041981
   0.06788038  0.76826135  0.17065921
   0.29589541  0.67351862  0.61309695
   0.73914039  0.06116054  0.70031861
   0.77451584  0.48366240  0.47880947
   0.47757350  0.94983560  0.55662025
   0.37395948  0.14666916  0.66571398
   0.46228825  0.14233538  0.37461187
   0.52400038  0.88474660  0.29292259
   0.25678308  0.87419993  0.82220057
   0.28567178  0.16106105  0.08000890
   0.95671047  0.43907329  0.98551761
   0.00040736  0.45224802  0.08340639
   0.89791861  0.14193599  0.42541068
   0.10051812  0.29745674  0.67198211
   0.12506687  0.40014530  0.69926392
   0.77062696  0.05759240  0.99965858
unknown system                          
           1
     3.951090   -0.832896    0.386346
    -0.611892    7.175318    0.196258
     1.327646    0.772566    6.969561
   Sr   H    Sr   Nb   H    Sr   H 
   1   7   1   1   4   1   6
Direct configuration=     8
   0.63117090  0.72949026  0.96760749
   0.35702646  0.46274396  0.26365269
   0.61243014  0.44859646  0.82860072
   0.88721971  0.85881615  0.56804206
   0.69410269  0.85529117  0.32034062
   0.06785098  0.76830404  0.17065215
   0.29573136  0.67329760  0.61308068
   0.73924350  0.06121878  0.70037144
   0.77453633  0.48368568  0.47883462
   0.47753742  0.94990599  0.55662652
   0.37394203  0.14662990  0.66582017
   0.46230472  0.14230707  0.37462898
   0.52439234  0.88484686  0.29287853
   0.25672368  0.87408921  0.82231738
   0.28574188  0.16109358  0.08009540
   0.95657815  0.43909124  0.98531496
   0.00026369  0.45226339  0.08350076
   0.89827045  0.14200469  0.42535818
   0.10044773  0.29754055  0.67196683
   0.12498152  0.40000163  0.69921814
   0.77073433  0.05762480  0.99967869
unknown system                          
           1
     3.952514   -0.833132    0.386265
    -0.611215    7.180995    0.194880
     1.327418    0.771842    6.973300
   Sr   H    Sr   Nb   H    Sr   H 
   1   7   1   1   4   1   6
Direct configuration=     9
   0.63092691  0.72952633  0.96768155
   0.35700767  0.46272995  0.26354988
   0.61234606  0.44867152  0.82841132
   0.88736918  0.85870110  0.56808153
   0.69337670  0.85530161  0.32011439
   0.06776697  0.76842594  0.17063199
   0.29526279  0.67266630  0.61303411
   0.73953805  0.06138516  0.70052239
   0.77459486  0.48375217  0.47890645
   0.47743432  0.95010705  0.55664446
   0.37389223  0.14651777  0.66612348
   0.46235179  0.14222621  0.37467788
   0.52551201  0.88513321  0.29275269
   0.25655404  0.87377299  0.82265103
   0.28594214  0.16118652  0.08034250
   0.95620005  0.43914246  0.98473609
  -0.00014673  0.45230732  0.08377033
   0.89927553  0.14220088  0.42520824
   0.10024662  0.29777991  0.67192321
   0.12473774  0.39959125  0.69908733
   0.77104104  0.05771735  0.99973614
unknown system                          
           1
     3.952722   -0.833353    0.386072
    -0.611451    7.182015    0.194968
     1.327180    0.771987    6.972826
   Sr   H    Sr   Nb   H    Sr   H 
   1   7   1   1   4   1   6
Direct configuration=    10
   0.63088932  0.72953173  0.96768610
   0.35700281  0.46273361  0.26353027
   0.61232143  0.44868088  0.82839055
   0.88735540  0.85869605  0.56808788
   0.69352949  0.85525091  0.32013209
   0.06774028  0.76844425  0.17063268
   0.29526739  0.67269469  0.61298561
   0.73950952  0.06138131  0.70052176
   0.77459551  0.48375826  0.47891401
   0.47762810  0.95001656  0.55675359
   0.37388739  0.14650003  0.66617893
   0.46235510  0.14222458  0.37469000
   0.52542193  0.88525288  0.29267240
   0.25657408  0.87374504  0.82263488
   0.28599209  0.16122081  0.08037572
   0.95626927  0.43920195  0.98497953
  -0.00038520  0.45227013  0.08345646
   0.89929066  0.14217424  0.42523848
   0.10013352  0.29755814  0.67184061
   0.12475522  0.39977517  0.69913086
   0.77109670  0.05773179  0.99975458
unknown system                          
           1
     3.952874   -0.833514    0.385931
    -0.611623    7.182759    0.195032
     1.327007    0.772092    6.972481
   Sr   H    Sr   Nb   H    Sr   H 
   1   7   1   1   4   1   6
Direct configuration=    11
   0.63086191  0.72953566  0.96768942
   0.35699926  0.46273628  0.26351596
   0.61230346  0.44868770  0.82837540
   0.88734536  0.85869237  0.56809251
   0.69364091  0.85521394  0.32014501
   0.06772081  0.76845760  0.17063319
   0.29527075  0.67271539  0.61295023
   0.73948872  0.06137850  0.70052131
   0.77459599  0.48376270  0.47891951
   0.47776941  0.94995058  0.55683319
   0.37388385  0.14648709  0.66621937
   0.46235750  0.14222339  0.37469884
   0.52535623  0.88534015  0.29261384
   0.25658869  0.87372466  0.82262310
   0.28602852  0.16124581  0.08039994
   0.95631975  0.43924533  0.98515709
  -0.00055912  0.45224301  0.08322754
   0.89930169  0.14215482  0.42526054
   0.10005104  0.29739642  0.67178035
   0.12476798  0.39990929  0.69916261
   0.77113730  0.05774231  0.99976803
