  22  22   1   0
  0.7544030E+01  0.5052283E-09  0.6085757E-09  0.5582424E-09  0.5000000E-15
  1.000000000000000E-004
  CAR 
 unknown system                          
     17.25203887    -36.19896462  301      1.92852488      1.00000000
    -36.199  0.0000E+00  0.0000E+00  0.0000E+00  0.0000E+00
    -36.021  0.0000E+00  0.0000E+00  0.0000E+00  0.0000E+00
    -35.843  0.0000E+00  0.0000E+00  0.0000E+00  0.0000E+00
    -35.664  0.0000E+00  0.0000E+00  0.0000E+00  0.0000E+00
    -35.486  0.0000E+00  0.0000E+00  0.0000E+00  0.0000E+00
    -35.308  0.0000E+00  0.0000E+00  0.0000E+00  0.0000E+00
    -35.130  0.0000E+00  0.0000E+00  0.0000E+00  0.0000E+00
    -34.952  0.0000E+00  0.0000E+00  0.0000E+00  0.0000E+00
    -34.774  0.0000E+00  0.0000E+00  0.0000E+00  0.0000E+00
    -34.595  0.0000E+00  0.0000E+00  0.0000E+00  0.0000E+00
    -34.417  0.0000E+00  0.0000E+00  0.0000E+00  0.0000E+00
    -34.239  0.0000E+00  0.0000E+00  0.0000E+00  0.0000E+00
    -34.061  0.0000E+00  0.0000E+00  0.0000E+00  0.0000E+00
    -33.883  0.0000E+00  0.0000E+00  0.0000E+00  0.0000E+00
    -33.705  0.0000E+00  0.0000E+00  0.1010E-01  0.1010E-01
    -33.526  0.0000E+00  0.0000E+00  0.1010E-01  0.1010E-01
    -33.348  0.0000E+00  0.0000E+00  0.1010E-01  0.1010E-01
    -33.170  0.0000E+00  0.0000E+00  0.1010E-01  0.1010E-01
    -32.992  0.0000E+00  0.0000E+00  0.1010E-01  0.1010E-01
    -32.814  0.0000E+00  0.0000E+00  0.1010E-01  0.1010E-01
    -32.636  0.0000E+00  0.0000E+00  0.1010E-01  0.1010E-01
    -32.457  0.0000E+00  0.0000E+00  0.1010E-01  0.1010E-01
    -32.279  0.0000E+00  0.0000E+00  0.1010E-01  0.1010E-01
    -32.101  0.0000E+00  0.0000E+00  0.1010E-01  0.1010E-01
    -31.923  0.0000E+00  0.0000E+00  0.1010E-01  0.1010E-01
    -31.745  0.0000E+00  0.0000E+00  0.1010E-01  0.1010E-01
    -31.567  0.0000E+00  0.0000E+00  0.1010E-01  0.1010E-01
    -31.388  0.0000E+00  0.0000E+00  0.1010E-01  0.1010E-01
    -31.210  0.0000E+00  0.0000E+00  0.1010E-01  0.1010E-01
    -31.032  0.0000E+00  0.0000E+00  0.1010E-01  0.1010E-01
    -30.854  0.0000E+00  0.0000E+00  0.1010E-01  0.1010E-01
    -30.676  0.0000E+00  0.0000E+00  0.1010E-01  0.1010E-01
    -30.498  0.0000E+00  0.0000E+00  0.1010E-01  0.1010E-01
    -30.319  0.0000E+00  0.0000E+00  0.1010E-01  0.1010E-01
    -30.141  0.0000E+00  0.0000E+00  0.1010E-01  0.1010E-01
    -29.963  0.5421E-01  0.5422E-01  0.1045E-01  0.1045E-01
    -29.785  0.1061E+00  0.1061E+00  0.3390E-01  0.3390E-01
    -29.607  0.1413E+00  0.1414E+00  0.5089E-01  0.5089E-01
    -29.429  0.3864E+00  0.3864E+00  0.8503E-01  0.8503E-01
    -29.250  0.0000E+00  0.0000E+00  0.1010E+00  0.1010E+00
    -29.072  0.0000E+00  0.0000E+00  0.1010E+00  0.1010E+00
    -28.894  0.0000E+00  0.0000E+00  0.1010E+00  0.1010E+00
    -28.716  0.0000E+00  0.0000E+00  0.1010E+00  0.1010E+00
    -28.538  0.0000E+00  0.0000E+00  0.1010E+00  0.1010E+00
    -28.359  0.0000E+00  0.0000E+00  0.1010E+00  0.1010E+00
    -28.181  0.0000E+00  0.0000E+00  0.1010E+00  0.1010E+00
    -28.003  0.0000E+00  0.0000E+00  0.1010E+00  0.1010E+00
    -27.825  0.0000E+00  0.0000E+00  0.1010E+00  0.1010E+00
    -27.647  0.0000E+00  0.0000E+00  0.1010E+00  0.1010E+00
    -27.469  0.0000E+00  0.0000E+00  0.1010E+00  0.1010E+00
    -27.290  0.0000E+00  0.0000E+00  0.1010E+00  0.1010E+00
    -27.112  0.0000E+00  0.0000E+00  0.1010E+00  0.1010E+00
    -26.934  0.0000E+00  0.0000E+00  0.1010E+00  0.1010E+00
    -26.756  0.0000E+00  0.0000E+00  0.1010E+00  0.1010E+00
    -26.578  0.0000E+00  0.0000E+00  0.1010E+00  0.1010E+00
    -26.400  0.0000E+00  0.0000E+00  0.1010E+00  0.1010E+00
    -26.221  0.0000E+00  0.0000E+00  0.1010E+00  0.1010E+00
    -26.043  0.0000E+00  0.0000E+00  0.1010E+00  0.1010E+00
    -25.865  0.0000E+00  0.0000E+00  0.1010E+00  0.1010E+00
    -25.687  0.0000E+00  0.0000E+00  0.1010E+00  0.1010E+00
    -25.509  0.0000E+00  0.0000E+00  0.1010E+00  0.1010E+00
    -25.331  0.0000E+00  0.0000E+00  0.1010E+00  0.1010E+00
    -25.152  0.0000E+00  0.0000E+00  0.1010E+00  0.1010E+00
    -24.974  0.0000E+00  0.0000E+00  0.1010E+00  0.1010E+00
    -24.796  0.0000E+00  0.0000E+00  0.1010E+00  0.1010E+00
    -24.618  0.0000E+00  0.0000E+00  0.1010E+00  0.1010E+00
    -24.440  0.0000E+00  0.0000E+00  0.1010E+00  0.1010E+00
    -24.262  0.0000E+00  0.0000E+00  0.1010E+00  0.1010E+00
    -24.083  0.0000E+00  0.0000E+00  0.1010E+00  0.1010E+00
    -23.905  0.0000E+00  0.0000E+00  0.1010E+00  0.1010E+00
    -23.727  0.0000E+00  0.0000E+00  0.1010E+00  0.1010E+00
    -23.549  0.0000E+00  0.0000E+00  0.1010E+00  0.1010E+00
    -23.371  0.0000E+00  0.0000E+00  0.1010E+00  0.1010E+00
    -23.193  0.0000E+00  0.0000E+00  0.1010E+00  0.1010E+00
    -23.014  0.0000E+00  0.0000E+00  0.1010E+00  0.1010E+00
    -22.836  0.0000E+00  0.0000E+00  0.1010E+00  0.1010E+00
    -22.658  0.0000E+00  0.0000E+00  0.1010E+00  0.1010E+00
    -22.480  0.0000E+00  0.0000E+00  0.1010E+00  0.1010E+00
    -22.302  0.0000E+00  0.0000E+00  0.1010E+00  0.1010E+00
    -22.124  0.0000E+00  0.0000E+00  0.1010E+00  0.1010E+00
    -21.945  0.0000E+00  0.0000E+00  0.1010E+00  0.1010E+00
    -21.767  0.0000E+00  0.0000E+00  0.1010E+00  0.1010E+00
    -21.589  0.0000E+00  0.0000E+00  0.1010E+00  0.1010E+00
    -21.411  0.0000E+00  0.0000E+00  0.1010E+00  0.1010E+00
    -21.233  0.0000E+00  0.0000E+00  0.1010E+00  0.1010E+00
    -21.055  0.0000E+00  0.0000E+00  0.1010E+00  0.1010E+00
    -20.876  0.0000E+00  0.0000E+00  0.1010E+00  0.1010E+00
    -20.698  0.0000E+00  0.0000E+00  0.1010E+00  0.1010E+00
    -20.520  0.0000E+00  0.0000E+00  0.1010E+00  0.1010E+00
    -20.342  0.0000E+00  0.0000E+00  0.1010E+00  0.1010E+00
    -20.164  0.0000E+00  0.0000E+00  0.1010E+00  0.1010E+00
    -19.985  0.0000E+00  0.0000E+00  0.1010E+00  0.1010E+00
    -19.807  0.0000E+00  0.0000E+00  0.1010E+00  0.1010E+00
    -19.629  0.0000E+00  0.0000E+00  0.1010E+00  0.1010E+00
    -19.451  0.0000E+00  0.0000E+00  0.1010E+00  0.1010E+00
    -19.273  0.0000E+00  0.0000E+00  0.1010E+00  0.1010E+00
    -19.095  0.0000E+00  0.0000E+00  0.1010E+00  0.1010E+00
    -18.916  0.0000E+00  0.0000E+00  0.1010E+00  0.1010E+00
    -18.738  0.0000E+00  0.0000E+00  0.1010E+00  0.1010E+00
    -18.560  0.0000E+00  0.0000E+00  0.1010E+00  0.1010E+00
    -18.382  0.0000E+00  0.0000E+00  0.1010E+00  0.1010E+00
    -18.204  0.0000E+00  0.0000E+00  0.1010E+00  0.1010E+00
    -18.026  0.0000E+00  0.0000E+00  0.1010E+00  0.1010E+00
    -17.847  0.0000E+00  0.0000E+00  0.1010E+00  0.1010E+00
    -17.669  0.0000E+00  0.0000E+00  0.1010E+00  0.1010E+00
    -17.491  0.0000E+00  0.0000E+00  0.1010E+00  0.1010E+00
    -17.313  0.0000E+00  0.0000E+00  0.1010E+00  0.1010E+00
    -17.135  0.0000E+00  0.0000E+00  0.1010E+00  0.1010E+00
    -16.957  0.0000E+00  0.0000E+00  0.1010E+00  0.1010E+00
    -16.778  0.0000E+00  0.0000E+00  0.1010E+00  0.1010E+00
    -16.600  0.0000E+00  0.0000E+00  0.1010E+00  0.1010E+00
    -16.422  0.0000E+00  0.0000E+00  0.1010E+00  0.1010E+00
    -16.244  0.0000E+00  0.0000E+00  0.1010E+00  0.1010E+00
    -16.066  0.0000E+00  0.0000E+00  0.1010E+00  0.1010E+00
    -15.888  0.0000E+00  0.0000E+00  0.1010E+00  0.1010E+00
    -15.709  0.0000E+00  0.0000E+00  0.1313E+00  0.1313E+00
    -15.531  0.0000E+00  0.0000E+00  0.1313E+00  0.1313E+00
    -15.353  0.0000E+00  0.0000E+00  0.1313E+00  0.1313E+00
    -15.175  0.0000E+00  0.0000E+00  0.1313E+00  0.1313E+00
    -14.997  0.0000E+00  0.0000E+00  0.1313E+00  0.1313E+00
    -14.819  0.0000E+00  0.0000E+00  0.1313E+00  0.1313E+00
    -14.640  0.0000E+00  0.0000E+00  0.1313E+00  0.1313E+00
    -14.462  0.0000E+00  0.0000E+00  0.1313E+00  0.1313E+00
    -14.284  0.0000E+00  0.0000E+00  0.1313E+00  0.1313E+00
    -14.106  0.0000E+00  0.0000E+00  0.1313E+00  0.1313E+00
    -13.928  0.0000E+00  0.0000E+00  0.1313E+00  0.1313E+00
    -13.750  0.0000E+00  0.0000E+00  0.1313E+00  0.1313E+00
    -13.571  0.0000E+00  0.0000E+00  0.1313E+00  0.1313E+00
    -13.393  0.0000E+00  0.0000E+00  0.1313E+00  0.1313E+00
    -13.215  0.0000E+00  0.0000E+00  0.1313E+00  0.1313E+00
    -13.037  0.0000E+00  0.0000E+00  0.1313E+00  0.1313E+00
    -12.859  0.0000E+00  0.0000E+00  0.1313E+00  0.1313E+00
    -12.681  0.0000E+00  0.0000E+00  0.1313E+00  0.1313E+00
    -12.502  0.0000E+00  0.0000E+00  0.1313E+00  0.1313E+00
    -12.324  0.0000E+00  0.0000E+00  0.1313E+00  0.1313E+00
    -12.146  0.0000E+00  0.0000E+00  0.1313E+00  0.1313E+00
    -11.968  0.0000E+00  0.0000E+00  0.1313E+00  0.1313E+00
    -11.790  0.0000E+00  0.0000E+00  0.1313E+00  0.1313E+00
    -11.612  0.0000E+00  0.0000E+00  0.1313E+00  0.1313E+00
    -11.433  0.0000E+00  0.0000E+00  0.1313E+00  0.1313E+00
    -11.255  0.0000E+00  0.0000E+00  0.1313E+00  0.1313E+00
    -11.077  0.0000E+00  0.0000E+00  0.1313E+00  0.1313E+00
    -10.899  0.0000E+00  0.0000E+00  0.1313E+00  0.1313E+00
    -10.721  0.0000E+00  0.0000E+00  0.1313E+00  0.1313E+00
    -10.542  0.0000E+00  0.0000E+00  0.1313E+00  0.1313E+00
    -10.364  0.0000E+00  0.0000E+00  0.1313E+00  0.1313E+00
    -10.186  0.0000E+00  0.0000E+00  0.1313E+00  0.1313E+00
    -10.008  0.0000E+00  0.0000E+00  0.1313E+00  0.1313E+00
     -9.830  0.0000E+00  0.0000E+00  0.1313E+00  0.1313E+00
     -9.652  0.0000E+00  0.0000E+00  0.1313E+00  0.1313E+00
     -9.473  0.0000E+00  0.0000E+00  0.1313E+00  0.1313E+00
     -9.295  0.0000E+00  0.0000E+00  0.1313E+00  0.1313E+00
     -9.117  0.0000E+00  0.0000E+00  0.1313E+00  0.1313E+00
     -8.939  0.0000E+00  0.0000E+00  0.1313E+00  0.1313E+00
     -8.761  0.0000E+00  0.0000E+00  0.1313E+00  0.1313E+00
     -8.583  0.0000E+00  0.0000E+00  0.1313E+00  0.1313E+00
     -8.404  0.0000E+00  0.0000E+00  0.1313E+00  0.1313E+00
     -8.226  0.0000E+00  0.0000E+00  0.1313E+00  0.1313E+00
     -8.048  0.0000E+00  0.0000E+00  0.1313E+00  0.1313E+00
     -7.870  0.2114E-03  0.2114E-03  0.1313E+00  0.1313E+00
     -7.692  0.4835E-02  0.4835E-02  0.1317E+00  0.1317E+00
     -7.514  0.1193E-01  0.1193E-01  0.1332E+00  0.1332E+00
     -7.335  0.1818E-01  0.1818E-01  0.1358E+00  0.1358E+00
     -7.157  0.2140E-01  0.2140E-01  0.1392E+00  0.1392E+00
     -6.979  0.0000E+00  0.0000E+00  0.1414E+00  0.1414E+00
     -6.801  0.0000E+00  0.0000E+00  0.1414E+00  0.1414E+00
     -6.623  0.0000E+00  0.0000E+00  0.1414E+00  0.1414E+00
     -6.445  0.0000E+00  0.0000E+00  0.1414E+00  0.1414E+00
     -6.266  0.1709E-02  0.1709E-02  0.1415E+00  0.1415E+00
     -6.088  0.7181E-02  0.7181E-02  0.1422E+00  0.1422E+00
     -5.910  0.1669E-01  0.1669E-01  0.1444E+00  0.1444E+00
     -5.732  0.1626E-01  0.1626E-01  0.1482E+00  0.1482E+00
     -5.554  0.7607E-02  0.7607E-02  0.1504E+00  0.1504E+00
     -5.376  0.2991E-02  0.2991E-02  0.1513E+00  0.1513E+00
     -5.197  0.1755E-02  0.1755E-02  0.1515E+00  0.1515E+00
     -5.019  0.6136E-02  0.6136E-02  0.1522E+00  0.1522E+00
     -4.841  0.1024E-01  0.1024E-01  0.1538E+00  0.1538E+00
     -4.663  0.1507E-01  0.1507E-01  0.1559E+00  0.1559E+00
     -4.485  0.1691E-01  0.1691E-01  0.1590E+00  0.1590E+00
     -4.307  0.8596E-02  0.8597E-02  0.1611E+00  0.1611E+00
     -4.128  0.1792E-01  0.1792E-01  0.1632E+00  0.1632E+00
     -3.950  0.3077E-01  0.3077E-01  0.1678E+00  0.1678E+00
     -3.772  0.2773E-01  0.2773E-01  0.1728E+00  0.1728E+00
     -3.594  0.4061E-01  0.4060E-01  0.1802E+00  0.1802E+00
     -3.416  0.3639E-01  0.3639E-01  0.1882E+00  0.1882E+00
     -3.238  0.2537E-01  0.2537E-01  0.1928E+00  0.1928E+00
     -3.059  0.1469E-01  0.1469E-01  0.2014E+00  0.2014E+00
     -2.881  0.6164E-01  0.6164E-01  0.2078E+00  0.2078E+00
     -2.703  0.4838E-01  0.4838E-01  0.2159E+00  0.2159E+00
     -2.525  0.2749E-01  0.2749E-01  0.2229E+00  0.2229E+00
     -2.347  0.1746E-01  0.1746E-01  0.2333E+00  0.2333E+00
     -2.168  0.3470E-01  0.3470E-01  0.2393E+00  0.2393E+00
     -1.990  0.3728E-01  0.3728E-01  0.2451E+00  0.2451E+00
     -1.812  0.2543E-01  0.2543E-01  0.2512E+00  0.2512E+00
     -1.634  0.4547E-01  0.4547E-01  0.2564E+00  0.2564E+00
     -1.456  0.1089E-01  0.1089E-01  0.2622E+00  0.2622E+00
     -1.278  0.4895E-01  0.4895E-01  0.2655E+00  0.2655E+00
     -1.099  0.1576E-01  0.1576E-01  0.2723E+00  0.2723E+00
     -0.921  0.2785E-01  0.2785E-01  0.2753E+00  0.2753E+00
     -0.743  0.3828E-01  0.3828E-01  0.2813E+00  0.2813E+00
     -0.565  0.8989E-02  0.8989E-02  0.2840E+00  0.2840E+00
     -0.387  0.2198E-01  0.2198E-01  0.2867E+00  0.2867E+00
     -0.209  0.1929E-01  0.1929E-01  0.2909E+00  0.2909E+00
     -0.030  0.8284E-03  0.8284E-03  0.2929E+00  0.2929E+00
      0.148  0.0000E+00  0.0000E+00  0.2929E+00  0.2929E+00
      0.326  0.3245E-01  0.3245E-01  0.2953E+00  0.2953E+00
      0.504  0.2068E-01  0.2068E-01  0.3009E+00  0.3009E+00
      0.682  0.2727E-02  0.2727E-02  0.3030E+00  0.3030E+00
      0.860  0.0000E+00  0.0000E+00  0.3030E+00  0.3030E+00
      1.039  0.0000E+00  0.0000E+00  0.3030E+00  0.3030E+00
      1.217  0.0000E+00  0.0000E+00  0.3030E+00  0.3030E+00
      1.395  0.0000E+00  0.0000E+00  0.3030E+00  0.3030E+00
      1.573  0.1038E-01  0.1038E-01  0.3040E+00  0.3040E+00
      1.751  0.1120E-01  0.1120E-01  0.3059E+00  0.3059E+00
      1.929  0.1359E-01  0.1359E-01  0.3081E+00  0.3081E+00
      2.108  0.1231E-01  0.1231E-01  0.3104E+00  0.3104E+00
      2.286  0.9252E-02  0.9252E-02  0.3124E+00  0.3124E+00
      2.464  0.3347E-01  0.3347E-01  0.3170E+00  0.3170E+00
      2.642  0.2145E-01  0.2145E-01  0.3224E+00  0.3224E+00
      2.820  0.1890E-01  0.1890E-01  0.3243E+00  0.3243E+00
      2.998  0.2774E-01  0.2774E-01  0.3288E+00  0.3288E+00
      3.177  0.5569E-01  0.5569E-01  0.3345E+00  0.3345E+00
      3.355  0.2068E-01  0.2068E-01  0.3415E+00  0.3415E+00
      3.533  0.4359E-02  0.4359E-02  0.3435E+00  0.3435E+00
      3.711  0.3388E-01  0.3388E-01  0.3463E+00  0.3463E+00
      3.889  0.1820E-01  0.1820E-01  0.3521E+00  0.3521E+00
      4.067  0.1494E-02  0.1494E-02  0.3535E+00  0.3535E+00
      4.246  0.1674E-01  0.1674E-01  0.3543E+00  0.3543E+00
      4.424  0.2896E-01  0.2896E-01  0.3607E+00  0.3607E+00
      4.602  0.1147E-01  0.1147E-01  0.3637E+00  0.3637E+00
      4.780  0.5020E-01  0.5020E-01  0.3702E+00  0.3702E+00
      4.958  0.2157E-01  0.2157E-01  0.3750E+00  0.3750E+00
      5.136  0.3595E-01  0.3595E-01  0.3819E+00  0.3819E+00
      5.315  0.3518E-01  0.3518E-01  0.3855E+00  0.3855E+00
      5.493  0.2708E-01  0.2708E-01  0.3925E+00  0.3925E+00
      5.671  0.4031E-01  0.4031E-01  0.3977E+00  0.3977E+00
      5.849  0.2085E-01  0.2085E-01  0.4037E+00  0.4037E+00
      6.027  0.4483E-01  0.4483E-01  0.4082E+00  0.4082E+00
      6.205  0.1259E-01  0.1259E-01  0.4140E+00  0.4140E+00
      6.384  0.6657E-01  0.6657E-01  0.4216E+00  0.4216E+00
      6.562  0.4317E-01  0.4317E-01  0.4264E+00  0.4264E+00
      6.740  0.2153E-01  0.2153E-01  0.4353E+00  0.4353E+00
      6.918  0.3838E-01  0.3838E-01  0.4423E+00  0.4423E+00
      7.096  0.4312E-01  0.4312E-01  0.4486E+00  0.4486E+00
      7.275  0.4301E-01  0.4301E-01  0.4553E+00  0.4553E+00
      7.453  0.3700E-01  0.3700E-01  0.4641E+00  0.4641E+00
      7.631  0.4071E-01  0.4071E-01  0.4713E+00  0.4713E+00
      7.809  0.4938E-01  0.4938E-01  0.4782E+00  0.4782E+00
      7.987  0.2399E-01  0.2399E-01  0.4857E+00  0.4857E+00
      8.165  0.4130E-01  0.4130E-01  0.4927E+00  0.4927E+00
      8.344  0.1724E-01  0.1724E-01  0.4968E+00  0.4968E+00
      8.522  0.3393E-01  0.3393E-01  0.5035E+00  0.5035E+00
      8.700  0.2545E-01  0.2545E-01  0.5068E+00  0.5068E+00
      8.878  0.2309E-01  0.2309E-01  0.5139E+00  0.5139E+00
      9.056  0.2423E-01  0.2423E-01  0.5160E+00  0.5160E+00
      9.234  0.2654E-01  0.2654E-01  0.5211E+00  0.5211E+00
      9.413  0.1631E-01  0.1631E-01  0.5252E+00  0.5252E+00
      9.591  0.3654E-01  0.3654E-01  0.5294E+00  0.5294E+00
      9.769  0.2069E-01  0.2069E-01  0.5338E+00  0.5338E+00
      9.947  0.1541E-01  0.1541E-01  0.5372E+00  0.5372E+00
     10.125  0.2904E-01  0.2904E-01  0.5411E+00  0.5411E+00
     10.303  0.1258E-01  0.1258E-01  0.5447E+00  0.5447E+00
     10.482  0.2392E-01  0.2392E-01  0.5476E+00  0.5476E+00
     10.660  0.1799E-01  0.1799E-01  0.5535E+00  0.5535E+00
     10.838  0.1887E-01  0.1887E-01  0.5565E+00  0.5565E+00
     11.016  0.2356E-01  0.2356E-01  0.5604E+00  0.5604E+00
     11.194  0.1438E-01  0.1438E-01  0.5649E+00  0.5649E+00
     11.372  0.1870E-01  0.1870E-01  0.5673E+00  0.5673E+00
     11.551  0.3514E-01  0.3514E-01  0.5725E+00  0.5725E+00
     11.729  0.1440E-01  0.1440E-01  0.5764E+00  0.5764E+00
     11.907  0.3255E-01  0.3255E-01  0.5810E+00  0.5810E+00
     12.085  0.1324E-01  0.1324E-01  0.5858E+00  0.5858E+00
     12.263  0.2986E-01  0.2986E-01  0.5890E+00  0.5890E+00
     12.441  0.1976E-01  0.1976E-01  0.5954E+00  0.5954E+00
     12.620  0.2700E-01  0.2700E-01  0.5985E+00  0.5985E+00
     12.798  0.2800E-01  0.2800E-01  0.6043E+00  0.6043E+00
     12.976  0.9938E-02  0.9938E-02  0.6067E+00  0.6067E+00
     13.154  0.3427E-01  0.3427E-01  0.6104E+00  0.6104E+00
     13.332  0.1967E-01  0.1967E-01  0.6157E+00  0.6157E+00
     13.510  0.3824E-01  0.3824E-01  0.6202E+00  0.6202E+00
     13.689  0.1783E-01  0.1783E-01  0.6253E+00  0.6253E+00
     13.867  0.4437E-01  0.4437E-01  0.6295E+00  0.6295E+00
     14.045  0.2058E-01  0.2058E-01  0.6353E+00  0.6353E+00
     14.223  0.2452E-01  0.2451E-01  0.6395E+00  0.6395E+00
     14.401  0.2348E-01  0.2347E-01  0.6442E+00  0.6442E+00
     14.579  0.3181E-02  0.3193E-02  0.6462E+00  0.6462E+00
     14.758  0.2249E-03  0.2242E-03  0.6465E+00  0.6465E+00
     14.936  0.0000E+00  0.0000E+00  0.6465E+00  0.6465E+00
     15.114  0.0000E+00  0.0000E+00  0.6465E+00  0.6465E+00
     15.292  0.0000E+00  0.0000E+00  0.6465E+00  0.6465E+00
     15.470  0.0000E+00  0.0000E+00  0.6465E+00  0.6465E+00
     15.649  0.0000E+00  0.0000E+00  0.6465E+00  0.6465E+00
     15.827  0.0000E+00  0.0000E+00  0.6465E+00  0.6465E+00
     16.005  0.0000E+00  0.0000E+00  0.6465E+00  0.6465E+00
     16.183  0.0000E+00  0.0000E+00  0.6465E+00  0.6465E+00
     16.361  0.0000E+00  0.0000E+00  0.6465E+00  0.6465E+00
     16.539  0.0000E+00  0.0000E+00  0.6465E+00  0.6465E+00
     16.718  0.0000E+00  0.0000E+00  0.6465E+00  0.6465E+00
     16.896  0.0000E+00  0.0000E+00  0.6465E+00  0.6465E+00
     17.074  0.0000E+00  0.0000E+00  0.6465E+00  0.6465E+00
     17.252  0.0000E+00  0.0000E+00  0.6465E+00  0.6465E+00
     17.25203887    -36.19896462  301      1.92852488      1.00000000
    -36.199  0.0000E+00  0.0000E+00  0.0000E+00  0.0000E+00  0.0000E+00  0.0000E+00  0.0000E+00  0.0000E+00  0.0000E+00  0.0000E+00  0.0000E+00  0.0000E+00  0.0000E+00  0.0000E+00  0.0000E+00  0.0000E+00  0.0000E+00  0.0000E+00
    -36.021  0.0000E+00  0.0000E+00  0.0000E+00  0.0000E+00  0.0000E+00  0.0000E+00  0.0000E+00  0.0000E+00  0.0000E+00  0.0000E+00  0.0000E+00  0.0000E+00  0.0000E+00  0.0000E+00  0.0000E+00  0.0000E+00  0.0000E+00  0.0000E+00
    -35.843  0.0000E+00  0.0000E+00  0.0000E+00  0.0000E+00  0.0000E+00  0.0000E+00  0.0000E+00  0.0000E+00  0.0000E+00  0.0000E+00  0.0000E+00  0.0000E+00  0.0000E+00  0.0000E+00  0.0000E+00  0.0000E+00  0.0000E+00  0.0000E+00
    -35.664  0.0000E+00  0.0000E+00  0.0000E+00  0.0000E+00  0.0000E+00  0.0000E+00  0.0000E+00  0.0000E+00  0.0000E+00  0.0000E+00  0.0000E+00  0.0000E+00  0.0000E+00  0.0000E+00  0.0000E+00  0.0000E+00  0.0000E+00  0.0000E+00
    -35.486  0.0000E+00  0.0000E+00  0.0000E+00  0.0000E+00  0.0000E+00  0.0000E+00  0.0000E+00  0.0000E+00  0.0000E+00  0.0000E+00  0.0000E+00  0.0000E+00  0.0000E+00  0.0000E+00  0.0000E+00  0.0000E+00  0.0000E+00  0.0000E+00
    -35.308  0.0000E+00  0.0000E+00  0.0000E+00  0.0000E+00  0.0000E+00  0.0000E+00  0.0000E+00  0.0000E+00  0.0000E+00  0.0000E+00  0.0000E+00  0.0000E+00  0.0000E+00  0.0000E+00  0.0000E+00  0.0000E+00  0.0000E+00  0.0000E+00
    -35.130  0.0000E+00  0.0000E+00  0.0000E+00  0.0000E+00  0.0000E+00  0.0000E+00  0.0000E+00  0.0000E+00  0.0000E+00  0.0000E+00  0.0000E+00  0.0000E+00  0.0000E+00  0.0000E+00  0.0000E+00  0.0000E+00  0.0000E+00  0.0000E+00
    -34.952  0.0000E+00  0.0000E+00  0.0000E+00  0.0000E+00  0.0000E+00  0.0000E+00  0.0000E+00  0.0000E+00  0.0000E+00  0.0000E+00  0.0000E+00  0.0000E+00  0.0000E+00  0.0000E+00  0.0000E+00  0.0000E+00  0.0000E+00  0.0000E+00
    -34.774  0.0000E+00  0.0000E+00  0.0000E+00  0.0000E+00  0.0000E+00  0.0000E+00  0.0000E+00  0.0000E+00  0.0000E+00  0.0000E+00  0.0000E+00  0.0000E+00  0.0000E+00  0.0000E+00  0.0000E+00  0.0000E+00  0.0000E+00  0.0000E+00
    -34.595  0.0000E+00  0.0000E+00  0.0000E+00  0.0000E+00  0.0000E+00  0.0000E+00  0.0000E+00  0.0000E+00  0.0000E+00  0.0000E+00  0.0000E+00  0.0000E+00  0.0000E+00  0.0000E+00  0.0000E+00  0.0000E+00  0.0000E+00  0.0000E+00
    -34.417  0.0000E+00  0.0000E+00  0.0000E+00  0.0000E+00  0.0000E+00  0.0000E+00  0.0000E+00  0.0000E+00  0.0000E+00  0.0000E+00  0.0000E+00  0.0000E+00  0.0000E+00  0.0000E+00  0.0000E+00  0.0000E+00  0.0000E+00  0.0000E+00
    -34.239  0.0000E+00  0.0000E+00  0.0000E+00  0.0000E+00  0.0000E+00  0.0000E+00  0.0000E+00  0.0000E+00  0.0000E+00  0.0000E+00  0.0000E+00  0.0000E+00  0.0000E+00  0.0000E+00  0.0000E+00  0.0000E+00  0.0000E+00  0.0000E+00
    -34.061  0.0000E+00  0.0000E+00  0.0000E+00  0.0000E+00  0.0000E+00  0.0000E+00  0.0000E+00  0.0000E+00  0.0000E+00  0.0000E+00  0.0000E+00  0.0000E+00  0.0000E+00  0.0000E+00  0.0000E+00  0.0000E+00  0.0000E+00  0.0000E+00
    -33.883  0.0000E+00  0.0000E+00  0.0000E+00  0.0000E+00  0.0000E+00  0.0000E+00  0.0000E+00  0.0000E+00  0.0000E+00  0.0000E+00  0.0000E+00  0.0000E+00  0.0000E+00  0.0000E+00  0.0000E+00  0.0000E+00  0.0000E+00  0.0000E+00
    -33.705  0.0000E+00  0.0000E+00  0.0000E+00  0.0000E+00  0.0000E+00  0.0000E+00  0.0000E+00  0.0000E+00  0.0000E+00  0.0000E+00  0.0000E+00  0.0000E+00  0.0000E+00  0.0000E+00  0.0000E+00  0.0000E+00  0.0000E+00  0.0000E+00
    -33.526  0.0000E+00  0.0000E+00  0.0000E+00  0.0000E+00  0.0000E+00  0.0000E+00  0.0000E+00  0.0000E+00  0.0000E+00  0.0000E+00  0.0000E+00  0.0000E+00  0.0000E+00  0.0000E+00  0.0000E+00  0.0000E+00  0.0000E+00  0.0000E+00
    -33.348  0.0000E+00  0.0000E+00  0.0000E+00  0.0000E+00  0.0000E+00  0.0000E+00  0.0000E+00  0.0000E+00  0.0000E+00  0.0000E+00  0.0000E+00  0.0000E+00  0.0000E+00  0.0000E+00  0.0000E+00  0.0000E+00  0.0000E+00  0.0000E+00
    -33.170  0.0000E+00  0.0000E+00  0.0000E+00  0.0000E+00  0.0000E+00  0.0000E+00  0.0000E+00  0.0000E+00  0.0000E+00  0.0000E+00  0.0000E+00  0.0000E+00  0.0000E+00  0.0000E+00  0.0000E+00  0.0000E+00  0.0000E+00  0.0000E+00
    -32.992  0.0000E+00  0.0000E+00  0.0000E+00  0.0000E+00  0.0000E+00  0.0000E+00  0.0000E+00  0.0000E+00  0.0000E+00  0.0000E+00  0.0000E+00  0.0000E+00  0.0000E+00  0.0000E+00  0.0000E+00  0.0000E+00  0.0000E+00  0.0000E+00
    -32.814  0.0000E+00  0.0000E+00  0.0000E+00  0.0000E+00  0.0000E+00  0.0000E+00  0.0000E+00  0.0000E+00  0.0000E+00  0.0000E+00  0.0000E+00  0.0000E+00  0.0000E+00  0.0000E+00  0.0000E+00  0.0000E+00  0.0000E+00  0.0000E+00
    -32.636  0.0000E+00  0.0000E+00  0.0000E+00  0.0000E+00  0.0000E+00  0.0000E+00  0.0000E+00  0.0000E+00  0.0000E+00  0.0000E+00  0.0000E+00  0.0000E+00  0.0000E+00  0.0000E+00  0.0000E+00  0.0000E+00  0.0000E+00  0.0000E+00
    -32.457  0.0000E+00  0.0000E+00  0.0000E+00  0.0000E+00  0.0000E+00  0.0000E+00  0.0000E+00  0.0000E+00  0.0000E+00  0.0000E+00  0.0000E+00  0.0000E+00  0.0000E+00  0.0000E+00  0.0000E+00  0.0000E+00  0.0000E+00  0.0000E+00
    -32.279  0.0000E+00  0.0000E+00  0.0000E+00  0.0000E+00  0.0000E+00  0.0000E+00  0.0000E+00  0.0000E+00  0.0000E+00  0.0000E+00  0.0000E+00  0.0000E+00  0.0000E+00  0.0000E+00  0.0000E+00  0.0000E+00  0.0000E+00  0.0000E+00
    -32.101  0.0000E+00  0.0000E+00  0.0000E+00  0.0000E+00  0.0000E+00  0.0000E+00  0.0000E+00  0.0000E+00  0.0000E+00  0.0000E+00  0.0000E+00  0.0000E+00  0.0000E+00  0.0000E+00  0.0000E+00  0.0000E+00  0.0000E+00  0.0000E+00
    -31.923  0.0000E+00  0.0000E+00  0.0000E+00  0.0000E+00  0.0000E+00  0.0000E+00  0.0000E+00  0.0000E+00  0.0000E+00  0.0000E+00  0.0000E+00  0.0000E+00  0.0000E+00  0.0000E+00  0.0000E+00  0.0000E+00  0.0000E+00  0.0000E+00
    -31.745  0.0000E+00  0.0000E+00  0.0000E+00  0.0000E+00  0.0000E+00  0.0000E+00  0.0000E+00  0.0000E+00  0.0000E+00  0.0000E+00  0.0000E+00  0.0000E+00  0.0000E+00  0.0000E+00  0.0000E+00  0.0000E+00  0.0000E+00  0.0000E+00
    -31.567  0.0000E+00  0.0000E+00  0.0000E+00  0.0000E+00  0.0000E+00  0.0000E+00  0.0000E+00  0.0000E+00  0.0000E+00  0.0000E+00  0.0000E+00  0.0000E+00  0.0000E+00  0.0000E+00  0.0000E+00  0.0000E+00  0.0000E+00  0.0000E+00
    -31.388  0.0000E+00  0.0000E+00  0.0000E+00  0.0000E+00  0.0000E+00  0.0000E+00  0.0000E+00  0.0000E+00  0.0000E+00  0.0000E+00  0.0000E+00  0.0000E+00  0.0000E+00  0.0000E+00  0.0000E+00  0.0000E+00  0.0000E+00  0.0000E+00
    -31.210  0.0000E+00  0.0000E+00  0.0000E+00  0.0000E+00  0.0000E+00  0.0000E+00  0.0000E+00  0.0000E+00  0.0000E+00  0.0000E+00  0.0000E+00  0.0000E+00  0.0000E+00  0.0000E+00  0.0000E+00  0.0000E+00  0.0000E+00  0.0000E+00
    -31.032  0.0000E+00  0.0000E+00  0.0000E+00  0.0000E+00  0.0000E+00  0.0000E+00  0.0000E+00  0.0000E+00  0.0000E+00  0.0000E+00  0.0000E+00  0.0000E+00  0.0000E+00  0.0000E+00  0.0000E+00  0.0000E+00  0.0000E+00  0.0000E+00
    -30.854  0.0000E+00  0.0000E+00  0.0000E+00  0.0000E+00  0.0000E+00  0.0000E+00  0.0000E+00  0.0000E+00  0.0000E+00  0.0000E+00  0.0000E+00  0.0000E+00  0.0000E+00  0.0000E+00  0.0000E+00  0.0000E+00  0.0000E+00  0.0000E+00
    -30.676  0.0000E+00  0.0000E+00  0.0000E+00  0.0000E+00  0.0000E+00  0.0000E+00  0.0000E+00  0.0000E+00  0.0000E+00  0.0000E+00  0.0000E+00  0.0000E+00  0.0000E+00  0.0000E+00  0.0000E+00  0.0000E+00  0.0000E+00  0.0000E+00
    -30.498  0.0000E+00  0.0000E+00  0.0000E+00  0.0000E+00  0.0000E+00  0.0000E+00  0.0000E+00  0.0000E+00  0.0000E+00  0.0000E+00  0.0000E+00  0.0000E+00  0.0000E+00  0.0000E+00  0.0000E+00  0.0000E+00  0.0000E+00  0.0000E+00
    -30.319  0.0000E+00  0.0000E+00  0.0000E+00  0.0000E+00  0.0000E+00  0.0000E+00  0.0000E+00  0.0000E+00  0.0000E+00  0.0000E+00  0.0000E+00  0.0000E+00  0.0000E+00  0.0000E+00  0.0000E+00  0.0000E+00  0.0000E+00  0.0000E+00
    -30.141  0.0000E+00  0.0000E+00  0.0000E+00  0.0000E+00  0.0000E+00  0.0000E+00  0.0000E+00  0.0000E+00  0.0000E+00  0.0000E+00  0.0000E+00  0.0000E+00  0.0000E+00  0.0000E+00  0.0000E+00  0.0000E+00  0.0000E+00  0.0000E+00
    -29.963  0.1853E-04  0.1854E-04  0.6944E-06  0.6947E-06  0.3376E-05  0.3370E-05  0.2271E-05  0.2270E-05  0.2211E-06  0.2210E-06  0.8721E-07  0.8731E-07  0.4617E-06  0.4622E-06  0.1044E-05  0.1045E-05  0.4006E-06  0.4012E-06
    -29.785  0.6926E-04  0.6926E-04  0.5627E-05  0.5622E-05  0.8758E-05  0.8756E-05  0.8537E-05  0.8537E-05  0.1042E-05  0.1042E-05  0.4289E-06  0.4292E-06  0.5249E-06  0.5253E-06  0.2805E-05  0.2807E-05  0.1678E-05  0.1678E-05
    -29.607  0.1241E-03  0.1242E-03  0.1701E-04  0.1703E-04  0.7480E-05  0.7483E-05  0.1060E-04  0.1059E-04  0.4826E-05  0.4831E-05  0.1074E-05  0.1073E-05  0.1341E-05  0.1341E-05  0.5689E-06  0.5690E-06  0.4850E-06  0.4855E-06
    -29.429  0.3986E-03  0.3986E-03  0.5468E-04  0.5468E-04  0.9496E-04  0.9495E-04  0.3068E-04  0.3071E-04  0.9978E-05  0.9977E-05  0.2702E-04  0.2702E-04  0.1216E-04  0.1215E-04  0.1184E-04  0.1184E-04  0.1044E-05  0.1045E-05
    -29.250  0.0000E+00  0.0000E+00  0.0000E+00  0.0000E+00  0.0000E+00  0.0000E+00  0.0000E+00  0.0000E+00  0.0000E+00  0.0000E+00  0.0000E+00  0.0000E+00  0.0000E+00  0.0000E+00  0.0000E+00  0.0000E+00  0.0000E+00  0.0000E+00
    -29.072  0.0000E+00  0.0000E+00  0.0000E+00  0.0000E+00  0.0000E+00  0.0000E+00  0.0000E+00  0.0000E+00  0.0000E+00  0.0000E+00  0.0000E+00  0.0000E+00  0.0000E+00  0.0000E+00  0.0000E+00  0.0000E+00  0.0000E+00  0.0000E+00
    -28.894  0.0000E+00  0.0000E+00  0.0000E+00  0.0000E+00  0.0000E+00  0.0000E+00  0.0000E+00  0.0000E+00  0.0000E+00  0.0000E+00  0.0000E+00  0.0000E+00  0.0000E+00  0.0000E+00  0.0000E+00  0.0000E+00  0.0000E+00  0.0000E+00
    -28.716  0.0000E+00  0.0000E+00  0.0000E+00  0.0000E+00  0.0000E+00  0.0000E+00  0.0000E+00  0.0000E+00  0.0000E+00  0.0000E+00  0.0000E+00  0.0000E+00  0.0000E+00  0.0000E+00  0.0000E+00  0.0000E+00  0.0000E+00  0.0000E+00
    -28.538  0.0000E+00  0.0000E+00  0.0000E+00  0.0000E+00  0.0000E+00  0.0000E+00  0.0000E+00  0.0000E+00  0.0000E+00  0.0000E+00  0.0000E+00  0.0000E+00  0.0000E+00  0.0000E+00  0.0000E+00  0.0000E+00  0.0000E+00  0.0000E+00
    -28.359  0.0000E+00  0.0000E+00  0.0000E+00  0.0000E+00  0.0000E+00  0.0000E+00  0.0000E+00  0.0000E+00  0.0000E+00  0.0000E+00  0.0000E+00  0.0000E+00  0.0000E+00  0.0000E+00  0.0000E+00  0.0000E+00  0.0000E+00  0.0000E+00
    -28.181  0.0000E+00  0.0000E+00  0.0000E+00  0.0000E+00  0.0000E+00  0.0000E+00  0.0000E+00  0.0000E+00  0.0000E+00  0.0000E+00  0.0000E+00  0.0000E+00  0.0000E+00  0.0000E+00  0.0000E+00  0.0000E+00  0.0000E+00  0.0000E+00
    -28.003  0.0000E+00  0.0000E+00  0.0000E+00  0.0000E+00  0.0000E+00  0.0000E+00  0.0000E+00  0.0000E+00  0.0000E+00  0.0000E+00  0.0000E+00  0.0000E+00  0.0000E+00  0.0000E+00  0.0000E+00  0.0000E+00  0.0000E+00  0.0000E+00
    -27.825  0.0000E+00  0.0000E+00  0.0000E+00  0.0000E+00  0.0000E+00  0.0000E+00  0.0000E+00  0.0000E+00  0.0000E+00  0.0000E+00  0.0000E+00  0.0000E+00  0.0000E+00  0.0000E+00  0.0000E+00  0.0000E+00  0.0000E+00  0.0000E+00
    -27.647  0.0000E+00  0.0000E+00  0.0000E+00  0.0000E+00  0.0000E+00  0.0000E+00  0.0000E+00  0.0000E+00  0.0000E+00  0.0000E+00  0.0000E+00  0.0000E+00  0.0000E+00  0.0000E+00  0.0000E+00  0.0000E+00  0.0000E+00  0.0000E+00
    -27.469  0.0000E+00  0.0000E+00  0.0000E+00  0.0000E+00  0.0000E+00  0.0000E+00  0.0000E+00  0.0000E+00  0.0000E+00  0.0000E+00  0.0000E+00  0.0000E+00  0.0000E+00  0.0000E+00  0.0000E+00  0.0000E+00  0.0000E+00  0.0000E+00
    -27.290  0.0000E+00  0.0000E+00  0.0000E+00  0.0000E+00  0.0000E+00  0.0000E+00  0.0000E+00  0.0000E+00  0.0000E+00  0.0000E+00  0.0000E+00  0.0000E+00  0.0000E+00  0.0000E+00  0.0000E+00  0.0000E+00  0.0000E+00  0.0000E+00