  12  12   0   0
  0.1133216E+02  0.3686475E-09  0.5782970E-09  0.6605906E-09  0.5000000E-15
  1.000000000000000E-004
  CAR 
 unknown system                          
      8.94911579    -35.35352602  301      1.51825558      1.00000000
    -35.354  0.0000E+00  0.0000E+00
    -35.206  0.0000E+00  0.0000E+00
    -35.058  0.0000E+00  0.0000E+00
    -34.910  0.0000E+00  0.0000E+00
    -34.763  0.0000E+00  0.0000E+00
    -34.615  0.0000E+00  0.0000E+00
    -34.467  0.0000E+00  0.0000E+00
    -34.320  0.0000E+00  0.0000E+00
    -34.172  0.3148E-29  0.4649E-30
    -34.024  0.1052E-19  0.1553E-20
    -33.877  0.3947E-12  0.5829E-13
    -33.729  0.1487E-06  0.2197E-07
    -33.581  0.3764E-03  0.5560E-04
    -33.434 -0.9308E-02 -0.1319E-02
    -33.286  0.2353E+00  0.3343E-01
    -33.138  0.2340E+00  0.6798E-01
    -32.991 -0.9285E-02  0.6661E-01
    -32.843  0.3676E-03  0.6667E-01
    -32.695  0.1376E-06  0.6667E-01
    -32.548  0.3468E-12  0.6667E-01
    -32.400  0.0000E+00  0.6667E-01
    -32.252  0.0000E+00  0.6667E-01
    -32.105  0.0000E+00  0.6667E-01
    -31.957  0.0000E+00  0.6667E-01
    -31.809  0.0000E+00  0.6667E-01
    -31.662  0.0000E+00  0.6667E-01
    -31.514  0.0000E+00  0.6667E-01
    -31.366  0.0000E+00  0.6667E-01
    -31.219  0.0000E+00  0.6667E-01
    -31.071  0.0000E+00  0.6667E-01
    -30.923  0.0000E+00  0.6667E-01
    -30.776  0.0000E+00  0.6667E-01
    -30.628  0.0000E+00  0.6667E-01
    -30.480  0.0000E+00  0.6667E-01
    -30.333  0.5571E-28  0.6667E-01
    -30.185  0.9520E-19  0.6667E-01
    -30.037  0.1790E-11  0.6667E-01
    -29.890  0.3243E-06  0.6667E-01
    -29.742  0.3401E-03  0.6672E-01
    -29.594 -0.3863E-02  0.6615E-01
    -29.447  0.1544E+00  0.8894E-01
    -29.299  0.5141E+00  0.1649E+00
    -29.151  0.1066E-01  0.1664E+00
    -29.003  0.1515E-02  0.1667E+00
    -28.856  0.1064E-04  0.1667E+00
    -28.708  0.2082E-09  0.1667E+00
    -28.560  0.3417E-16  0.1667E+00
    -28.413  0.0000E+00  0.1667E+00
    -28.265  0.0000E+00  0.1667E+00
    -28.117  0.0000E+00  0.1667E+00
    -27.970  0.0000E+00  0.1667E+00
    -27.822  0.0000E+00  0.1667E+00
    -27.674  0.0000E+00  0.1667E+00
    -27.527  0.0000E+00  0.1667E+00
    -27.379  0.0000E+00  0.1667E+00
    -27.231  0.0000E+00  0.1667E+00
    -27.084  0.0000E+00  0.1667E+00
    -26.936  0.0000E+00  0.1667E+00
    -26.788  0.0000E+00  0.1667E+00
    -26.641  0.0000E+00  0.1667E+00
    -26.493  0.0000E+00  0.1667E+00
    -26.345  0.0000E+00  0.1667E+00
    -26.198  0.0000E+00  0.1667E+00
    -26.050  0.0000E+00  0.1667E+00
    -25.902  0.0000E+00  0.1667E+00
    -25.755  0.0000E+00  0.1667E+00
    -25.607  0.0000E+00  0.1667E+00
    -25.459  0.0000E+00  0.1667E+00
    -25.312  0.0000E+00  0.1667E+00
    -25.164  0.0000E+00  0.1667E+00
    -25.016  0.0000E+00  0.1667E+00
    -24.869  0.0000E+00  0.1667E+00
    -24.721  0.0000E+00  0.1667E+00
    -24.573  0.0000E+00  0.1667E+00
    -24.426  0.0000E+00  0.1667E+00
    -24.278  0.0000E+00  0.1667E+00
    -24.130  0.0000E+00  0.1667E+00
    -23.983  0.0000E+00  0.1667E+00
    -23.835  0.0000E+00  0.1667E+00
    -23.687  0.0000E+00  0.1667E+00
    -23.539  0.0000E+00  0.1667E+00
    -23.392  0.0000E+00  0.1667E+00
    -23.244  0.0000E+00  0.1667E+00
    -23.096  0.0000E+00  0.1667E+00
    -22.949  0.0000E+00  0.1667E+00
    -22.801  0.0000E+00  0.1667E+00
    -22.653  0.0000E+00  0.1667E+00
    -22.506  0.0000E+00  0.1667E+00
    -22.358  0.0000E+00  0.1667E+00
    -22.210  0.0000E+00  0.1667E+00
    -22.063  0.0000E+00  0.1667E+00
    -21.915  0.0000E+00  0.1667E+00
    -21.767  0.0000E+00  0.1667E+00
    -21.620  0.0000E+00  0.1667E+00
    -21.472  0.0000E+00  0.1667E+00
    -21.324  0.0000E+00  0.1667E+00
    -21.177  0.0000E+00  0.1667E+00
    -21.029  0.0000E+00  0.1667E+00
    -20.881  0.0000E+00  0.1667E+00
    -20.734  0.0000E+00  0.1667E+00
    -20.586  0.0000E+00  0.1667E+00
    -20.438  0.0000E+00  0.1667E+00
    -20.291  0.0000E+00  0.1667E+00
    -20.143  0.0000E+00  0.1667E+00
    -19.995  0.0000E+00  0.1667E+00
    -19.848  0.0000E+00  0.1667E+00
    -19.700  0.0000E+00  0.1667E+00
    -19.552  0.0000E+00  0.1667E+00
    -19.405  0.0000E+00  0.1667E+00
    -19.257  0.0000E+00  0.1667E+00
    -19.109  0.0000E+00  0.1667E+00
    -18.962  0.0000E+00  0.1667E+00
    -18.814  0.0000E+00  0.1667E+00
    -18.666  0.0000E+00  0.1667E+00
    -18.519  0.0000E+00  0.1667E+00
    -18.371  0.0000E+00  0.1667E+00
    -18.223  0.0000E+00  0.1667E+00
    -18.075  0.0000E+00  0.1667E+00
    -17.928  0.0000E+00  0.1667E+00
    -17.780  0.0000E+00  0.1667E+00
    -17.632  0.0000E+00  0.1667E+00
    -17.485  0.0000E+00  0.1667E+00
    -17.337  0.0000E+00  0.1667E+00
    -17.189  0.0000E+00  0.1667E+00
    -17.042  0.0000E+00  0.1667E+00
    -16.894  0.0000E+00  0.1667E+00
    -16.746  0.0000E+00  0.1667E+00
    -16.599  0.7992E-32  0.1667E+00
    -16.451  0.6431E-22  0.1667E+00
    -16.303  0.5778E-14  0.1667E+00
    -16.156  0.5184E-08  0.1667E+00
    -16.008  0.3293E-04  0.1667E+00
    -15.860 -0.9442E-03  0.1665E+00
    -15.713  0.3033E-01  0.1710E+00
    -15.565  0.8581E-01  0.1837E+00
    -15.417  0.3841E+00  0.2404E+00
    -15.270  0.5779E+00  0.3258E+00
    -15.122  0.2520E+00  0.3630E+00
    -14.974  0.2584E-01  0.3668E+00
    -14.827 -0.8069E-03  0.3667E+00
    -14.679  0.3517E-04  0.3667E+00
    -14.531  0.6816E-08  0.3667E+00
    -14.384  0.1004E-13  0.3667E+00
    -14.236  0.0000E+00  0.3667E+00
    -14.088  0.0000E+00  0.3667E+00
    -13.941  0.0000E+00  0.3667E+00
    -13.793  0.0000E+00  0.3667E+00
    -13.645  0.0000E+00  0.3667E+00
    -13.498  0.0000E+00  0.3667E+00
    -13.350  0.0000E+00  0.3667E+00
    -13.202  0.0000E+00  0.3667E+00
    -13.055  0.0000E+00  0.3667E+00
    -12.907  0.0000E+00  0.3667E+00
    -12.759  0.0000E+00  0.3667E+00
    -12.612  0.0000E+00  0.3667E+00
    -12.464  0.0000E+00  0.3667E+00
    -12.316  0.0000E+00  0.3667E+00
    -12.168  0.0000E+00  0.3667E+00
    -12.021  0.0000E+00  0.3667E+00
    -11.873  0.0000E+00  0.3667E+00
    -11.725  0.0000E+00  0.3667E+00
    -11.578  0.0000E+00  0.3667E+00
    -11.430  0.0000E+00  0.3667E+00
    -11.282  0.0000E+00  0.3667E+00
    -11.135  0.0000E+00  0.3667E+00
    -10.987  0.0000E+00  0.3667E+00
    -10.839  0.0000E+00  0.3667E+00
    -10.692  0.0000E+00  0.3667E+00
    -10.544  0.0000E+00  0.3667E+00
    -10.396  0.0000E+00  0.3667E+00
    -10.249  0.0000E+00  0.3667E+00
    -10.101  0.0000E+00  0.3667E+00
     -9.953  0.0000E+00  0.3667E+00
     -9.806  0.0000E+00  0.3667E+00
     -9.658  0.0000E+00  0.3667E+00
     -9.510  0.0000E+00  0.3667E+00
     -9.363  0.0000E+00  0.3667E+00
     -9.215  0.0000E+00  0.3667E+00
     -9.067  0.0000E+00  0.3667E+00
     -8.920  0.0000E+00  0.3667E+00
     -8.772  0.0000E+00  0.3667E+00
     -8.624  0.0000E+00  0.3667E+00
     -8.477  0.0000E+00  0.3667E+00
     -8.329  0.0000E+00  0.3667E+00
     -8.181  0.0000E+00  0.3667E+00
     -8.034  0.0000E+00  0.3667E+00
     -7.886  0.0000E+00  0.3667E+00
     -7.738  0.0000E+00  0.3667E+00
     -7.591  0.0000E+00  0.3667E+00
     -7.443  0.1851E-30  0.3667E+00
     -7.295  0.3847E-21  0.3667E+00
     -7.148  0.8635E-14  0.3667E+00
     -7.000  0.1864E-08  0.3667E+00
     -6.852  0.3056E-05  0.3667E+00
     -6.704 -0.3046E-04  0.3667E+00
     -6.557  0.2153E-02  0.3670E+00
     -6.409  0.1392E-01  0.3690E+00
     -6.261  0.3229E-01  0.3738E+00
     -6.114  0.4110E-01  0.3799E+00
     -5.966  0.3384E-01  0.3849E+00
     -5.818  0.2936E-01  0.3892E+00
     -5.671  0.4126E-01  0.3953E+00
     -5.523  0.3252E-01  0.4001E+00
     -5.375 -0.7784E-03  0.4000E+00
     -5.228  0.8520E-04  0.4000E+00
     -5.080  0.3139E-05  0.4000E+00
     -4.932 -0.1738E-04  0.4000E+00
     -4.785  0.3100E-02  0.4005E+00
     -4.637  0.3491E-01  0.4056E+00
     -4.489  0.2100E-01  0.4087E+00
     -4.342  0.3169E-01  0.4134E+00
     -4.194  0.1308E-01  0.4153E+00
     -4.046  0.2921E-01  0.4196E+00
     -3.899  0.5875E-01  0.4283E+00
     -3.751  0.3492E-01  0.4335E+00
     -3.603  0.2141E-02  0.4338E+00
     -3.456  0.2644E-01  0.4377E+00
     -3.308  0.2515E-01  0.4414E+00
     -3.160  0.3728E-01  0.4469E+00
     -3.013  0.1133E-01  0.4486E+00
     -2.865  0.3100E-01  0.4532E+00
     -2.717  0.2787E-01  0.4573E+00
     -2.570  0.2712E-01  0.4613E+00
     -2.422  0.7031E-01  0.4717E+00
     -2.274  0.8073E-01  0.4836E+00
     -2.127  0.1222E+00  0.5016E+00
     -1.979  0.1429E+00  0.5227E+00
     -1.831  0.9614E-01  0.5369E+00
     -1.684  0.1139E+00  0.5538E+00
     -1.536  0.8435E-01  0.5662E+00
     -1.388  0.4228E-01  0.5725E+00
     -1.240  0.8955E-01  0.5857E+00
     -1.093  0.7288E-01  0.5964E+00
     -0.945  0.2475E-01  0.6001E+00
     -0.797 -0.1144E-02  0.5999E+00
     -0.650  0.1816E-01  0.6026E+00
     -0.502  0.6912E-01  0.6128E+00
     -0.354  0.5617E-01  0.6211E+00
     -0.207  0.5202E-01  0.6288E+00
     -0.059  0.3125E-01  0.6334E+00
      0.089 -0.5845E-03  0.6333E+00
      0.236  0.7173E-04  0.6333E+00
      0.384  0.3581E-05  0.6333E+00
      0.532 -0.3238E-04  0.6333E+00
      0.679  0.5210E-02  0.6341E+00
      0.827  0.2227E-01  0.6374E+00
      0.975  0.3008E-01  0.6418E+00
      1.122  0.2685E-01  0.6458E+00
      1.270  0.3135E-01  0.6504E+00
      1.418  0.8617E-01  0.6631E+00
      1.565  0.3765E-01  0.6687E+00
      1.713  0.4974E-02  0.6694E+00
      1.861  0.4769E-01  0.6765E+00
      2.008  0.3721E-01  0.6820E+00
      2.156  0.5670E-02  0.6828E+00
      2.304  0.5687E-01  0.6912E+00
      2.451  0.3808E-01  0.6968E+00
      2.599  0.2165E-01  0.7000E+00
      2.747 -0.3314E-03  0.7000E+00
      2.894  0.7021E-04  0.7000E+00
      3.042  0.2015E-06  0.7000E+00
      3.190  0.1576E-04  0.7000E+00
      3.337 -0.1466E-03  0.7000E+00
      3.485  0.1067E-01  0.7016E+00
      3.633  0.1016E+00  0.7166E+00
      3.780  0.9673E-01  0.7308E+00
      3.928  0.8524E-01  0.7434E+00
      4.076  0.6834E-01  0.7535E+00
      4.224  0.7224E-01  0.7642E+00
      4.371  0.5713E-01  0.7726E+00
      4.519  0.6795E-01  0.7827E+00
      4.667  0.6570E-01  0.7924E+00
      4.814  0.3795E-01  0.7980E+00
      4.962  0.2541E-01  0.8017E+00
      5.110  0.4484E-01  0.8083E+00
      5.257  0.7842E-01  0.8199E+00
      5.405  0.6698E-01  0.8298E+00
      5.553  0.4879E-01  0.8370E+00
      5.700  0.8963E-01  0.8503E+00
      5.848  0.7394E-01  0.8612E+00
      5.996  0.6104E-01  0.8702E+00
      6.143  0.6610E-01  0.8800E+00
      6.291  0.8573E-01  0.8926E+00
      6.439  0.8197E-01  0.9047E+00
      6.586  0.1077E+00  0.9206E+00
      6.734  0.6493E-01  0.9302E+00
      6.882  0.1723E-01  0.9328E+00
      7.029  0.4101E-02  0.9334E+00
      7.177 -0.1668E-03  0.9333E+00
      7.325  0.8823E-05  0.9333E+00
      7.472  0.4493E-08  0.9333E+00
      7.620  0.1388E-13  0.9333E+00
      7.768  0.0000E+00  0.9333E+00
      7.915  0.0000E+00  0.9333E+00
      8.063  0.0000E+00  0.9333E+00
      8.211  0.0000E+00  0.9333E+00
      8.358  0.0000E+00  0.9333E+00
      8.506  0.0000E+00  0.9333E+00
      8.654  0.0000E+00  0.9333E+00
      8.801  0.0000E+00  0.9333E+00
      8.949  0.0000E+00  0.9333E+00
