  19  19   0   0
  0.8352139E+01  0.4761358E-09  0.5331057E-09  0.6255207E-09  0.5000000E-15
  1.000000000000000E-004
  CAR 
 unknown system                          
      9.42329075    -34.06746253  301      3.66049053      1.00000000
    -34.067  0.0000E+00  0.0000E+00
    -33.922  0.0000E+00  0.0000E+00
    -33.778  0.0000E+00  0.0000E+00
    -33.633  0.0000E+00  0.0000E+00
    -33.488  0.0000E+00  0.0000E+00
    -33.343  0.0000E+00  0.0000E+00
    -33.198  0.0000E+00  0.0000E+00
    -33.053  0.0000E+00  0.0000E+00
    -32.908  0.1493E-27  0.2164E-28
    -32.763  0.1968E-18  0.2853E-19
    -32.618  0.3283E-11  0.4760E-12
    -32.473  0.5983E-06  0.8674E-07
    -32.328  0.6659E-03  0.9662E-04
    -32.183 -0.1247E-01 -0.1711E-02
    -32.038  0.2301E+00  0.3164E-01
    -31.893  0.1057E-01  0.3317E-01
    -31.748  0.1107E-02  0.3333E-01
    -31.603  0.7789E-05  0.3333E-01
    -31.458  0.1635E-09  0.3333E-01
    -31.313  0.2553E-16  0.3333E-01
    -31.168  0.0000E+00  0.3333E-01
    -31.023  0.0000E+00  0.3333E-01
    -30.878  0.0000E+00  0.3333E-01
    -30.733  0.0000E+00  0.3333E-01
    -30.588  0.0000E+00  0.3333E-01
    -30.443  0.0000E+00  0.3333E-01
    -30.298  0.0000E+00  0.3333E-01
    -30.153  0.0000E+00  0.3333E-01
    -30.008  0.0000E+00  0.3333E-01
    -29.863  0.0000E+00  0.3333E-01
    -29.718  0.0000E+00  0.3333E-01
    -29.573  0.0000E+00  0.3333E-01
    -29.428  0.0000E+00  0.3333E-01
    -29.283  0.0000E+00  0.3333E-01
    -29.139  0.1937E-30  0.3333E-01
    -28.994  0.5061E-21  0.3333E-01
    -28.849  0.1895E-13  0.3333E-01
    -28.704  0.9825E-08  0.3333E-01
    -28.559  0.5944E-04  0.3334E-01
    -28.414 -0.9815E-03  0.3320E-01
    -28.269  0.6561E-01  0.4271E-01
    -28.124  0.2493E+00  0.7885E-01
    -27.979  0.4720E+00  0.1473E+00
    -27.834  0.3881E+00  0.2035E+00
    -27.689  0.4882E+00  0.2743E+00
    -27.544  0.4849E+00  0.3446E+00
    -27.399  0.3448E+00  0.3946E+00
    -27.254  0.2506E+00  0.4309E+00
    -27.109  0.1587E-01  0.4332E+00
    -26.964  0.6913E-03  0.4333E+00
    -26.819  0.1258E-04  0.4333E+00
    -26.674  0.5513E-09  0.4333E+00
    -26.529  0.2538E-15  0.4333E+00
    -26.384  0.0000E+00  0.4333E+00
    -26.239  0.0000E+00  0.4333E+00
    -26.094  0.0000E+00  0.4333E+00
    -25.949  0.0000E+00  0.4333E+00
    -25.804  0.0000E+00  0.4333E+00
    -25.659  0.0000E+00  0.4333E+00
    -25.514  0.0000E+00  0.4333E+00
    -25.369  0.0000E+00  0.4333E+00
    -25.224  0.0000E+00  0.4333E+00
    -25.079  0.0000E+00  0.4333E+00
    -24.934  0.0000E+00  0.4333E+00
    -24.789  0.0000E+00  0.4333E+00
    -24.644  0.0000E+00  0.4333E+00
    -24.499  0.0000E+00  0.4333E+00
    -24.355  0.0000E+00  0.4333E+00
    -24.210  0.0000E+00  0.4333E+00
    -24.065  0.0000E+00  0.4333E+00
    -23.920  0.0000E+00  0.4333E+00
    -23.775  0.0000E+00  0.4333E+00
    -23.630  0.0000E+00  0.4333E+00
    -23.485  0.0000E+00  0.4333E+00
    -23.340  0.0000E+00  0.4333E+00
    -23.195  0.0000E+00  0.4333E+00
    -23.050  0.0000E+00  0.4333E+00
    -22.905  0.0000E+00  0.4333E+00
    -22.760  0.0000E+00  0.4333E+00
    -22.615  0.0000E+00  0.4333E+00
    -22.470  0.0000E+00  0.4333E+00
    -22.325  0.0000E+00  0.4333E+00
    -22.180  0.0000E+00  0.4333E+00
    -22.035  0.0000E+00  0.4333E+00
    -21.890  0.0000E+00  0.4333E+00
    -21.745  0.0000E+00  0.4333E+00
    -21.600  0.0000E+00  0.4333E+00
    -21.455  0.0000E+00  0.4333E+00
    -21.310  0.0000E+00  0.4333E+00
    -21.165  0.0000E+00  0.4333E+00
    -21.020  0.0000E+00  0.4333E+00
    -20.875  0.0000E+00  0.4333E+00
    -20.730  0.0000E+00  0.4333E+00
    -20.585  0.0000E+00  0.4333E+00
    -20.440  0.0000E+00  0.4333E+00
    -20.295  0.0000E+00  0.4333E+00
    -20.150  0.0000E+00  0.4333E+00
    -20.005  0.0000E+00  0.4333E+00
    -19.860  0.0000E+00  0.4333E+00
    -19.716  0.0000E+00  0.4333E+00
    -19.571  0.0000E+00  0.4333E+00
    -19.426  0.0000E+00  0.4333E+00
    -19.281  0.0000E+00  0.4333E+00
    -19.136  0.0000E+00  0.4333E+00
    -18.991  0.0000E+00  0.4333E+00
    -18.846  0.0000E+00  0.4333E+00
    -18.701  0.0000E+00  0.4333E+00
    -18.556  0.0000E+00  0.4333E+00
    -18.411  0.0000E+00  0.4333E+00
    -18.266  0.0000E+00  0.4333E+00
    -18.121  0.0000E+00  0.4333E+00
    -17.976  0.0000E+00  0.4333E+00
    -17.831  0.0000E+00  0.4333E+00
    -17.686  0.0000E+00  0.4333E+00
    -17.541  0.0000E+00  0.4333E+00
    -17.396  0.0000E+00  0.4333E+00
    -17.251  0.0000E+00  0.4333E+00
    -17.106  0.0000E+00  0.4333E+00
    -16.961  0.0000E+00  0.4333E+00
    -16.816  0.0000E+00  0.4333E+00
    -16.671  0.0000E+00  0.4333E+00
    -16.526  0.0000E+00  0.4333E+00
    -16.381  0.0000E+00  0.4333E+00
    -16.236  0.0000E+00  0.4333E+00
    -16.091  0.0000E+00  0.4333E+00
    -15.946  0.0000E+00  0.4333E+00
    -15.801  0.0000E+00  0.4333E+00
    -15.656  0.0000E+00  0.4333E+00
    -15.511  0.0000E+00  0.4333E+00
    -15.366  0.0000E+00  0.4333E+00
    -15.221  0.0000E+00  0.4333E+00
    -15.077  0.3486E-31  0.4333E+00
    -14.932  0.1709E-21  0.4333E+00
    -14.787  0.1139E-13  0.4333E+00
    -14.642  0.9744E-08  0.4333E+00
    -14.497  0.9087E-04  0.4333E+00
    -14.352  0.4603E-04  0.4334E+00
    -14.207  0.1070E+00  0.4489E+00
    -14.062  0.6064E+00  0.5368E+00
    -13.917 -0.2542E-01  0.5331E+00
    -13.772  0.1693E-02  0.5333E+00
    -13.627  0.2637E-05  0.5333E+00
    -13.482  0.2670E-10  0.5333E+00
    -13.337  0.0000E+00  0.5333E+00
    -13.192  0.0000E+00  0.5333E+00
    -13.047  0.0000E+00  0.5333E+00
    -12.902  0.0000E+00  0.5333E+00
    -12.757  0.0000E+00  0.5333E+00
    -12.612  0.0000E+00  0.5333E+00
    -12.467  0.0000E+00  0.5333E+00
    -12.322  0.0000E+00  0.5333E+00
    -12.177  0.0000E+00  0.5333E+00
    -12.032  0.0000E+00  0.5333E+00
    -11.887  0.0000E+00  0.5333E+00
    -11.742  0.0000E+00  0.5333E+00
    -11.597  0.0000E+00  0.5333E+00
    -11.452  0.0000E+00  0.5333E+00
    -11.307  0.0000E+00  0.5333E+00
    -11.162  0.0000E+00  0.5333E+00
    -11.017  0.0000E+00  0.5333E+00
    -10.872  0.0000E+00  0.5333E+00
    -10.727  0.0000E+00  0.5333E+00
    -10.582  0.0000E+00  0.5333E+00
    -10.437  0.0000E+00  0.5333E+00
    -10.293  0.0000E+00  0.5333E+00
    -10.148  0.0000E+00  0.5333E+00
    -10.003  0.0000E+00  0.5333E+00
     -9.858  0.0000E+00  0.5333E+00
     -9.713  0.0000E+00  0.5333E+00
     -9.568  0.0000E+00  0.5333E+00
     -9.423  0.0000E+00  0.5333E+00
     -9.278  0.0000E+00  0.5333E+00
     -9.133  0.0000E+00  0.5333E+00
     -8.988  0.0000E+00  0.5333E+00
     -8.843  0.0000E+00  0.5333E+00
     -8.698  0.0000E+00  0.5333E+00
     -8.553  0.0000E+00  0.5333E+00
     -8.408  0.0000E+00  0.5333E+00
     -8.263  0.0000E+00  0.5333E+00
     -8.118  0.0000E+00  0.5333E+00
     -7.973  0.0000E+00  0.5333E+00
     -7.828  0.0000E+00  0.5333E+00
     -7.683  0.0000E+00  0.5333E+00
     -7.538  0.0000E+00  0.5333E+00
     -7.393  0.0000E+00  0.5333E+00
     -7.248  0.0000E+00  0.5333E+00
     -7.103  0.1510E-35  0.5333E+00
     -6.958  0.1831E-25  0.5333E+00
     -6.813  0.2907E-17  0.5333E+00
     -6.668  0.5547E-11  0.5333E+00
     -6.523  0.9867E-07  0.5333E+00
     -6.378  0.1827E-05  0.5333E+00
     -6.233  0.9704E-04  0.5333E+00
     -6.088  0.2300E-02  0.5337E+00
     -5.943  0.8060E-02  0.5348E+00
     -5.798  0.6529E-02  0.5358E+00
     -5.654  0.1169E-01  0.5375E+00
     -5.509  0.1887E-01  0.5402E+00
     -5.364  0.6867E-02  0.5412E+00
     -5.219  0.2694E-01  0.5451E+00
     -5.074  0.1626E-01  0.5475E+00
     -4.929  0.2052E-01  0.5505E+00
     -4.784  0.2625E-01  0.5543E+00
     -4.639  0.1832E-01  0.5569E+00
     -4.494  0.3025E-01  0.5613E+00
     -4.349  0.2251E-01  0.5646E+00
     -4.204  0.3588E-01  0.5698E+00
     -4.059  0.4492E-01  0.5763E+00
     -3.914  0.4058E-01  0.5822E+00
     -3.769  0.4022E-01  0.5880E+00
     -3.624  0.4173E-01  0.5940E+00
     -3.479  0.4873E-01  0.6011E+00
     -3.334  0.6448E-01  0.6105E+00
     -3.189  0.5706E-01  0.6187E+00
     -3.044  0.4521E-01  0.6253E+00
     -2.899  0.6761E-01  0.6351E+00
     -2.754  0.7771E-01  0.6463E+00
     -2.609  0.1116E+00  0.6625E+00
     -2.464  0.1271E+00  0.6809E+00
     -2.319  0.1413E+00  0.7014E+00
     -2.174  0.1392E+00  0.7216E+00
     -2.029  0.1212E+00  0.7392E+00
     -1.884  0.8033E-01  0.7508E+00
     -1.739  0.9433E-01  0.7645E+00
     -1.594  0.1258E+00  0.7827E+00
     -1.449  0.1147E+00  0.7994E+00
     -1.304  0.8243E-01  0.8113E+00
     -1.159  0.1254E+00  0.8295E+00
     -1.014  0.7332E-01  0.8401E+00
     -0.870  0.1228E+00  0.8579E+00
     -0.725  0.1498E+00  0.8796E+00
     -0.580  0.1141E+00  0.8962E+00
     -0.435  0.1050E+00  0.9114E+00
     -0.290  0.1342E+00  0.9309E+00
     -0.145  0.1570E+00  0.9536E+00
      0.000  0.9069E-01  0.9668E+00
      0.145  0.4824E-01  0.9738E+00
      0.290  0.3550E-01  0.9789E+00
      0.435  0.4635E-01  0.9856E+00
      0.580  0.3858E-01  0.9912E+00
      0.725  0.2900E-01  0.9954E+00
      0.870  0.1648E-01  0.9978E+00
      1.015  0.1452E-01  0.9999E+00
      1.160  0.5465E-03  0.1000E+01
      1.305  0.5030E-03  0.1000E+01
      1.450  0.3529E-02  0.1001E+01
      1.595  0.2479E-01  0.1004E+01
      1.740  0.4589E-01  0.1011E+01
      1.885  0.5778E-01  0.1019E+01
      2.030  0.4929E-01  0.1026E+01
      2.175  0.3138E-01  0.1031E+01
      2.320  0.4281E-01  0.1037E+01
      2.465  0.3388E-01  0.1042E+01
      2.610  0.5313E-01  0.1050E+01
      2.755  0.5757E-01  0.1058E+01
      2.900  0.1036E+00  0.1073E+01
      3.045  0.1361E+00  0.1093E+01
      3.190  0.8738E-01  0.1105E+01
      3.335  0.5701E-01  0.1114E+01
      3.480  0.5803E-01  0.1122E+01
      3.625  0.6453E-01  0.1132E+01
      3.769  0.4741E-01  0.1138E+01
      3.914  0.7509E-01  0.1149E+01
      4.059  0.8009E-01  0.1161E+01
      4.204  0.9058E-01  0.1174E+01
      4.349  0.1147E+00  0.1191E+01
      4.494  0.1043E+00  0.1206E+01
      4.639  0.9201E-01  0.1219E+01
      4.784  0.1090E+00  0.1235E+01
      4.929  0.9368E-01  0.1248E+01
      5.074  0.1028E+00  0.1263E+01
      5.219  0.1462E+00  0.1285E+01
      5.364  0.1157E+00  0.1301E+01
      5.509  0.9497E-01  0.1315E+01
      5.654  0.7032E-01  0.1325E+01
      5.799  0.9432E-01  0.1339E+01
      5.944  0.8887E-01  0.1352E+01
      6.089  0.8392E-01  0.1364E+01
      6.234  0.9861E-01  0.1378E+01
      6.379  0.7466E-01  0.1389E+01
      6.524  0.8811E-01  0.1402E+01
      6.669  0.9702E-01  0.1416E+01
      6.814  0.8657E-01  0.1429E+01
      6.959  0.1070E+00  0.1444E+01
      7.104  0.9034E-01  0.1457E+01
      7.249  0.5108E-01  0.1465E+01
      7.394  0.1395E-01  0.1467E+01
      7.539  0.4579E-03  0.1467E+01
      7.684  0.1524E-05  0.1467E+01
      7.829  0.1941E-05  0.1467E+01
      7.974  0.1649E-08  0.1467E+01
      8.119  0.9255E-14  0.1467E+01
      8.264  0.0000E+00  0.1467E+01
      8.409  0.0000E+00  0.1467E+01
      8.553  0.0000E+00  0.1467E+01
      8.698  0.0000E+00  0.1467E+01
      8.843  0.0000E+00  0.1467E+01
      8.988  0.0000E+00  0.1467E+01
      9.133  0.0000E+00  0.1467E+01
      9.278  0.0000E+00  0.1467E+01
      9.423  0.0000E+00  0.1467E+01
