       N       E                     dE             d eps       ncg     rms          rms(c)
DAV:   1     0.170566183341E+03    0.17057E+03   -0.12807E+04 17456   0.743E+02
DAV:   2    -0.263083798768E+02   -0.19687E+03   -0.19197E+03 21108   0.289E+02
DAV:   3    -0.402835016068E+02   -0.13975E+02   -0.13872E+02 28128   0.579E+01
DAV:   4    -0.410496905985E+02   -0.76619E+00   -0.76424E+00 27164   0.115E+01
DAV:   5    -0.410661832085E+02   -0.16493E-01   -0.16488E-01 27464   0.165E+00    0.343E+01
DAV:   6    -0.391696492444E+02    0.18965E+01   -0.39205E+00 24824   0.106E+01    0.165E+01
DAV:   7    -0.386568664491E+02    0.51278E+00   -0.14036E+00 23404   0.492E+00    0.608E+00
DAV:   8    -0.386784476640E+02   -0.21581E-01   -0.34938E-01 28784   0.284E+00    0.212E+00
DAV:   9    -0.386705930238E+02    0.78546E-02   -0.25887E-02 21296   0.682E-01    0.101E+00
DAV:  10    -0.386672538558E+02    0.33392E-02   -0.14398E-02 24112   0.548E-01    0.315E-01
DAV:  11    -0.386675698769E+02   -0.31602E-03   -0.13078E-03 26968   0.173E-01    0.933E-02
DAV:  12    -0.386676064971E+02   -0.36620E-04   -0.11436E-04 14488   0.557E-02
   1 F= -.38667606E+02 E0= -.38668150E+02  d E =-.386676E+02
       N       E                     dE             d eps       ncg     rms          rms(c)
DAV:   1    -0.386679650537E+02   -0.39518E-03   -0.31731E-02 19100   0.910E-01    0.914E-02
DAV:   2    -0.386679516254E+02    0.13428E-04   -0.95229E-04 22460   0.197E-01
   2 F= -.38667952E+02 E0= -.38668492E+02  d E =-.345128E-03
       N       E                     dE             d eps       ncg     rms          rms(c)
DAV:   1    -0.386680116670E+02   -0.46613E-04   -0.28323E-03 19180   0.269E-01    0.215E-02
DAV:   2    -0.386680183166E+02   -0.66495E-05   -0.90585E-05 13656   0.614E-02
   3 F= -.38668018E+02 E0= -.38668560E+02  d E =-.411819E-03
