   20   20   99    2
  0.8304778E+01  0.4805979E-09  0.4792543E-09  0.7879921E-09  0.5000000E-15
  1.000000000000000E-004
  CAR 
 unknown system                          
     69     38     64
 
  0.3742002E-15  0.3742002E-15  0.3742002E-15  0.1333333E-01
    1      -31.912983    -31.912983   1.000000   1.000000
    2      -28.882946    -28.882947   1.000000   1.000000
    3      -28.761761    -28.761760   1.000000   1.000000
    4      -28.670346    -28.670344   1.000000   1.000000
    5      -28.654666    -28.654666   1.000000   1.000000
    6      -28.598370    -28.598369   1.000000   1.000000
    7      -28.577391    -28.577387   1.000000   1.000000
    8      -28.510168    -28.510168   1.000000   1.000000
    9      -28.406587    -28.406586   1.000000   1.000000
   10      -28.345960    -28.345962   1.000000   1.000000
   11      -28.211105    -28.211106   1.000000   1.000000
   12      -28.151837    -28.151838   1.000000   1.000000
   13      -27.888961    -27.888962   1.000000   1.000000
   14      -14.103663    -14.103664   1.000000   1.000000
   15      -14.089665    -14.089665   1.000000   1.000000
   16      -14.012907    -14.012907   1.000000   1.000000
   17       -6.444254     -6.444253   1.000000   1.000000
   18       -3.858166     -3.858166   1.000000   1.000000
   19       -3.579787     -3.579784   1.000000   1.000000
   20       -2.789164     -2.789163   1.000000   1.000000
   21       -2.448596     -2.448594   1.000000   1.000000
   22       -2.398889     -2.398889   1.000000   1.000000
   23       -1.924876     -1.924876   1.000000   1.000000
   24       -1.787244     -1.787242   1.000000   1.000000
   25       -1.666221     -1.666221   1.000000   1.000000
   26       -1.429093     -1.429092   1.000000   1.000000
   27       -1.203140     -1.203138   1.000000   1.000000
   28       -1.073861     -1.073859   1.000000   1.000000
   29       -0.804586     -0.804586   1.000000   1.000000
   30       -0.123943     -0.123943   1.000000   1.000000
   31       -0.006862     -0.006860   1.000000   1.000000
   32        1.579642      1.579643   1.000000   1.000000
   33        2.094929      2.094930   1.000000   1.000000
   34        2.339491      2.339493   1.000000   1.000000
   35        2.601084      2.601084   1.000100   1.000100
   36        3.227324      3.227325   0.000000   0.000000
   37        3.678199      3.678200   0.000000   0.000000
   38        4.060734      4.060735   0.000000   0.000000
   39        4.356559      4.356559   0.000000   0.000000
   40        4.789603      4.789604   0.000000   0.000000
   41        5.123737      5.123739   0.000000   0.000000
   42        5.520935      5.520935   0.000000   0.000000
   43        5.729984      5.729984   0.000000   0.000000
   44        6.035778      6.035778   0.000000   0.000000
   45        6.092321      6.092323   0.000000   0.000000
   46        6.569246      6.569247   0.000000   0.000000
   47        6.827304      6.827304   0.000000   0.000000
   48        7.574609      7.574608   0.000000   0.000000
   49        7.956637      7.956639   0.000000   0.000000
   50        8.197399      8.197401   0.000000   0.000000
   51        8.376298      8.376300   0.000000   0.000000
   52        8.837352      8.837353   0.000000   0.000000
   53        9.413173      9.413176   0.000000   0.000000
   54        9.548383      9.548384   0.000000   0.000000
   55        9.976289      9.976288   0.000000   0.000000
   56       10.073536     10.073537   0.000000   0.000000
   57       10.603693     10.603693   0.000000   0.000000
   58       10.855656     10.855655   0.000000   0.000000
   59       11.082037     11.082038   0.000000   0.000000
   60       11.476806     11.476805   0.000000   0.000000
   61       11.800725     11.800727   0.000000   0.000000
   62       12.292782     12.292782   0.000000   0.000000
   63       12.716504     12.716505   0.000000   0.000000
   64       12.971679     12.971679   0.000000   0.000000
 
  0.2000000E+00  0.3760013E-15  0.3677614E-15  0.2666667E-01
    1      -31.912851    -31.912851   1.000000   1.000000
    2      -28.887297    -28.887298   1.000000   1.000000
    3      -28.767505    -28.767504   1.000000   1.000000
    4      -28.662931    -28.662929   1.000000   1.000000
    5      -28.644989    -28.644989   1.000000   1.000000
    6      -28.608459    -28.608457   1.000000   1.000000
    7      -28.570970    -28.570966   1.000000   1.000000
    8      -28.504688    -28.504688   1.000000   1.000000
    9      -28.416710    -28.416709   1.000000   1.000000
   10      -28.345777    -28.345779   1.000000   1.000000
   11      -28.209543    -28.209544   1.000000   1.000000
   12      -28.154380    -28.154381   1.000000   1.000000
   13      -27.890084    -27.890085   1.000000   1.000000
   14      -14.118294    -14.118295   1.000000   1.000000
   15      -14.089461    -14.089461   1.000000   1.000000
   16      -14.015870    -14.015870   1.000000   1.000000
   17       -6.158703     -6.158701   1.000000   1.000000
   18       -3.779262     -3.779261   1.000000   1.000000
   19       -3.563693     -3.563691   1.000000   1.000000
   20       -2.840267     -2.840267   1.000000   1.000000
   21       -2.523878     -2.523876   1.000000   1.000000
   22       -2.399281     -2.399280   1.000000   1.000000
   23       -2.297890     -2.297890   1.000000   1.000000
   24       -1.943612     -1.943610   1.000000   1.000000
   25       -1.705346     -1.705346   1.000000   1.000000
   26       -1.459397     -1.459396   1.000000   1.000000
   27       -1.314177     -1.314176   1.000000   1.000000
   28       -1.033664     -1.033663   1.000000   1.000000
   29       -0.697764     -0.697762   1.000000   1.000000
   30       -0.333583     -0.333583   1.000000   1.000000
   31        0.222496      0.222497   1.000000   1.000000
   32        1.612154      1.612155   1.000000   1.000000
   33        2.260750      2.260751   1.000000   1.000000
   34        2.499579      2.499581   1.000000   1.000000
   35        2.804350      2.804350   1.077117   1.077117
   36        3.485892      3.485893   0.000000   0.000000
   37        3.722643      3.722644   0.000000   0.000000
   38        4.015407      4.015409   0.000000   0.000000
   39        4.229944      4.229944   0.000000   0.000000
   40        4.771833      4.771833   0.000000   0.000000
   41        4.999486      4.999487   0.000000   0.000000
   42        5.456097      5.456099   0.000000   0.000000
   43        5.673213      5.673213   0.000000   0.000000
   44        5.856008      5.856009   0.000000   0.000000
   45        6.289169      6.289169   0.000000   0.000000
   46        6.577597      6.577597   0.000000   0.000000
   47        6.993806      6.993805   0.000000   0.000000
   48        7.495273      7.495273   0.000000   0.000000
   49        7.835179      7.835181   0.000000   0.000000
   50        8.240081      8.240084   0.000000   0.000000
   51        8.397777      8.397778   0.000000   0.000000
   52        8.896465      8.896465   0.000000   0.000000
   53        9.365428      9.365429   0.000000   0.000000
   54        9.553872      9.553873   0.000000   0.000000
   55        9.884680      9.884680   0.000000   0.000000
   56       10.189824     10.189825   0.000000   0.000000
   57       10.507770     10.507770   0.000000   0.000000
   58       10.756071     10.756071   0.000000   0.000000
   59       11.125000     11.125000   0.000000   0.000000
   60       11.333774     11.333774   0.000000   0.000000
   61       11.856355     11.856355   0.000000   0.000000
   62       12.269931     12.269931   0.000000   0.000000
   63       12.635035     12.635036   0.000000   0.000000
   64       12.848136     12.848136   0.000000   0.000000
 
  0.4000000E+00  0.3955170E-15  0.3538836E-15  0.2666667E-01
    1      -31.912638    -31.912638   1.000000   1.000000
    2      -28.894076    -28.894077   1.000000   1.000000
    3      -28.775213    -28.775212   1.000000   1.000000
    4      -28.653026    -28.653025   1.000000   1.000000
    5      -28.634196    -28.634197   1.000000   1.000000
    6      -28.607980    -28.607978   1.000000   1.000000
    7      -28.572296    -28.572293   1.000000   1.000000
    8      -28.491903    -28.491903   1.000000   1.000000
    9      -28.436785    -28.436784   1.000000   1.000000
   10      -28.345513    -28.345515   1.000000   1.000000
   11      -28.207120    -28.207121   1.000000   1.000000
   12      -28.158570    -28.158571   1.000000   1.000000
   13      -27.891874    -27.891875   1.000000   1.000000
   14      -14.149045    -14.149046   1.000000   1.000000
   15      -14.083454    -14.083454   1.000000   1.000000
   16      -14.018636    -14.018636   1.000000   1.000000
   17       -5.426498     -5.426495   1.000000   1.000000
   18       -4.171155     -4.171154   1.000000   1.000000
   19       -3.345404     -3.345404   1.000000   1.000000
   20       -3.068059     -3.068058   1.000000   1.000000
   21       -2.761866     -2.761864   1.000000   1.000000
   22       -2.501587     -2.501587   1.000000   1.000000
   23       -2.337610     -2.337610   1.000000   1.000000
   24       -2.133125     -2.133125   1.000000   1.000000
   25       -1.880059     -1.880058   1.000000   1.000000
   26       -1.610001     -1.610000   1.000000   1.000000
   27       -1.308103     -1.308102   1.000000   1.000000
   28       -1.059724     -1.059723   1.000000   1.000000
   29       -0.688513     -0.688511   1.000000   1.000000
   30       -0.325604     -0.325603   1.000000   1.000000
   31        0.387015      0.387014   1.000000   1.000000
   32        1.913934      1.913935   1.000000   1.000000
   33        2.412312      2.412313   1.000000   1.000000
   34        2.721086      2.721088   1.000000   1.000000
   35        3.178706      3.178707   0.000038   0.000038
   36        3.510199      3.510201   0.000000   0.000000
   37        3.723528      3.723527   0.000000   0.000000
   38        4.091141      4.091143   0.000000   0.000000
   39        4.293845      4.293846   0.000000   0.000000
   40        4.372968      4.372969   0.000000   0.000000
   41        5.056072      5.056074   0.000000   0.000000
   42        5.153112      5.153112   0.000000   0.000000
   43        5.575261      5.575262   0.000000   0.000000
   44        5.786082      5.786082   0.000000   0.000000
   45        6.561308      6.561308   0.000000   0.000000
   46        6.866836      6.866836   0.000000   0.000000
   47        7.143432      7.143432   0.000000   0.000000
   48        7.425492      7.425492   0.000000   0.000000
   49        7.795545      7.795546   0.000000   0.000000
   50        8.187943      8.187945   0.000000   0.000000
   51        8.401898      8.401899   0.000000   0.000000
   52        8.696796      8.696797   0.000000   0.000000
   53        9.132289      9.132290   0.000000   0.000000
   54        9.337206      9.337206   0.000000   0.000000
   55        9.808309      9.808309   0.000000   0.000000
   56       10.033129     10.033129   0.000000   0.000000
   57       10.547346     10.547347   0.000000   0.000000
   58       10.764352     10.764353   0.000000   0.000000
   59       11.314874     11.314875   0.000000   0.000000
   60       11.430929     11.430929   0.000000   0.000000
   61       11.877550     11.877549   0.000000   0.000000
   62       12.415090     12.415090   0.000000   0.000000
   63       12.630729     12.630737   0.000000   0.000000
   64       12.891322     12.891320   0.000000   0.000000
 
  0.3724234E-15  0.2000000E+00  0.3781697E-15  0.2666667E-01
    1      -31.912771    -31.912771   1.000000   1.000000
    2      -28.887941    -28.887941   1.000000   1.000000
    3      -28.773023    -28.773022   1.000000   1.000000
    4      -28.668183    -28.668181   1.000000   1.000000
    5      -28.643621    -28.643621   1.000000   1.000000
    6      -28.606922    -28.606921   1.000000   1.000000
    7      -28.569305    -28.569302   1.000000   1.000000
    8      -28.502525    -28.502525   1.000000   1.000000
    9      -28.420010    -28.420009   1.000000   1.000000
   10      -28.335168    -28.335170   1.000000   1.000000
   11      -28.220648    -28.220649   1.000000   1.000000
   12      -28.139256    -28.139257   1.000000   1.000000
   13      -27.896043    -27.896044   1.000000   1.000000
   14      -14.109010    -14.109010   1.000000   1.000000
   15      -14.089506    -14.089506   1.000000   1.000000
   16      -14.030349    -14.030350   1.000000   1.000000
   17       -6.097433     -6.097432   1.000000   1.000000
   18       -4.025953     -4.025953   1.000000   1.000000
   19       -3.329057     -3.329055   1.000000   1.000000
   20       -2.801314     -2.801314   1.000000   1.000000
   21       -2.605213     -2.605212   1.000000   1.000000
   22       -2.449869     -2.449868   1.000000   1.000000
   23       -2.249640     -2.249640   1.000000   1.000000
   24       -1.866132     -1.866132   1.000000   1.000000
   25       -1.749937     -1.749936   1.000000   1.000000
   26       -1.515421     -1.515420   1.000000   1.000000
   27       -1.275669     -1.275669   1.000000   1.000000
   28       -1.012995     -1.012995   1.000000   1.000000
   29       -0.673369     -0.673368   1.000000   1.000000
   30       -0.236501     -0.236500   1.000000   1.000000
   31        0.084460      0.084460   1.000000   1.000000
   32        1.618172      1.618172   1.000000   1.000000
   33        2.200867      2.200868   1.000000   1.000000
   34        2.435023      2.435025   1.000000   1.000000
   35        2.898579      2.898579   1.018708   1.018707
   36        3.266554      3.266556   0.000000   0.000000
   37        3.906504      3.906505   0.000000   0.000000
   38        3.926198      3.926199   0.000000   0.000000
   39        4.419688      4.419689   0.000000   0.000000
   40        4.541468      4.541469   0.000000   0.000000
   41        5.093511      5.093512   0.000000   0.000000
   42        5.339324      5.339325   0.000000   0.000000
   43        5.698363      5.698365   0.000000   0.000000
   44        6.007791      6.007791   0.000000   0.000000
   45        6.295084      6.295083   0.000000   0.000000
   46        6.557597      6.557597   0.000000   0.000000
   47        7.039727      7.039728   0.000000   0.000000
   48        7.408625      7.408625   0.000000   0.000000
   49        7.644105      7.644105   0.000000   0.000000
   50        8.286309      8.286311   0.000000   0.000000
   51        8.560043      8.560044   0.000000   0.000000
   52        8.835693      8.835695   0.000000   0.000000
   53        9.387238      9.387239   0.000000   0.000000
   54        9.542973      9.542973   0.000000   0.000000
   55        9.889890      9.889890   0.000000   0.000000
   56       10.160220     10.160220   0.000000   0.000000
   57       10.573134     10.573134   0.000000   0.000000
   58       10.780703     10.780702   0.000000   0.000000
   59       11.079034     11.079035   0.000000   0.000000
   60       11.521458     11.521458   0.000000   0.000000
   61       11.842354     11.842354   0.000000   0.000000
   62       12.035523     12.035525   0.000000   0.000000
   63       12.412935     12.412935   0.000000   0.000000
   64       13.267925     13.273510   0.000000   0.000000
 
  0.2000000E+00  0.2000000E+00  0.3747003E-15  0.2666667E-01
    1      -31.912157    -31.912157   1.000000   1.000000
    2      -28.891870    -28.891870   1.000000   1.000000
    3      -28.776061    -28.776060   1.000000   1.000000
    4      -28.686927    -28.686926   1.000000   1.000000
    5      -28.632056    -28.632056   1.000000   1.000000
    6      -28.587106    -28.587105   1.000000   1.000000
    7      -28.573573    -28.573570   1.000000   1.000000
    8      -28.494511    -28.494511   1.000000   1.000000
    9      -28.437570    -28.437569   1.000000   1.000000
   10      -28.334571    -28.334572   1.000000   1.000000
   11      -28.218837    -28.218838   1.000000   1.000000
   12      -28.138269    -28.138270   1.000000   1.000000
   13      -27.894891    -27.894893   1.000000   1.000000
   14      -14.113740    -14.113740   1.000000   1.000000
   15      -14.089739    -14.089739   1.000000   1.000000
   16      -14.035501    -14.035501   1.000000   1.000000
   17       -5.915955     -5.915954   1.000000   1.000000
   18       -4.105640     -4.105639   1.000000   1.000000
   19       -3.266132     -3.266130   1.000000   1.000000
   20       -2.952386     -2.952385   1.000000   1.000000
   21       -2.675302     -2.675300   1.000000   1.000000
   22       -2.500542     -2.500541   1.000000   1.000000
   23       -2.194396     -2.194395   1.000000   1.000000
   24       -1.939383     -1.939382   1.000000   1.000000
   25       -1.734486     -1.734485   1.000000   1.000000
   26       -1.587103     -1.587102   1.000000   1.000000
   27       -1.219445     -1.219444   1.000000   1.000000
   28       -0.930151     -0.930149   1.000000   1.000000
   29       -0.657777     -0.657776   1.000000   1.000000
   30       -0.112659     -0.112658   1.000000   1.000000
   31        0.344684      0.344685   1.000000   1.000000
   32        1.677413      1.677413   1.000000   1.000000
   33        2.151558      2.151560   1.000000   1.000000
   34        2.582368      2.582370   1.000000   1.000000
   35        2.950175      2.950176   0.981415   0.981414
   36        3.217249      3.217249   0.000000   0.000000
   37        3.742358      3.742359   0.000000   0.000000
   38        4.113220      4.113221   0.000000   0.000000
   39        4.358083      4.358083   0.000000   0.000000
   40        4.471264      4.471266   0.000000   0.000000
   41        4.923459      4.923461   0.000000   0.000000
   42        5.203066      5.203067   0.000000   0.000000
   43        5.572946      5.572946   0.000000   0.000000
   44        5.823294      5.823294   0.000000   0.000000
   45        6.049673      6.049674   0.000000   0.000000
   46        6.448231      6.448231   0.000000   0.000000
   47        7.039718      7.039719   0.000000   0.000000
   48        7.469280      7.469279   0.000000   0.000000
   49        7.811243      7.811244   0.000000   0.000000
   50        8.148276      8.148278   0.000000   0.000000
   51        8.410379      8.410380   0.000000   0.000000
   52        8.793092      8.793092   0.000000   0.000000
   53        9.103662      9.103663   0.000000   0.000000
   54        9.584779      9.584779   0.000000   0.000000
   55       10.042767     10.042768   0.000000   0.000000
   56       10.138740     10.138740   0.000000   0.000000
   57       10.445104     10.445105   0.000000   0.000000
   58       10.903423     10.903423   0.000000   0.000000
   59       11.152375     11.152374   0.000000   0.000000
   60       11.487057     11.487058   0.000000   0.000000
   61       11.664346     11.664348   0.000000   0.000000
   62       12.063430     12.063431   0.000000   0.000000
   63       12.425179     12.425181   0.000000   0.000000
   64       13.242587     13.242583   0.000000   0.000000
 
  0.4000000E+00  0.2000000E+00  0.3677614E-15  0.2666667E-01
    1      -31.911771    -31.911771   1.000000   1.000000
    2      -28.896893    -28.896893   1.000000   1.000000
    3      -28.776636    -28.776636   1.000000   1.000000
    4      -28.686198    -28.686197   1.000000   1.000000
    5      -28.634028    -28.634028   1.000000   1.000000
    6      -28.591385    -28.591383   1.000000   1.000000
    7      -28.563989    -28.563987   1.000000   1.000000
    8      -28.490470    -28.490470   1.000000   1.000000
    9      -28.440850    -28.440849   1.000000   1.000000
   10      -28.336745    -28.336746   1.000000   1.000000
   11      -28.216645    -28.216646   1.000000   1.000000
   12      -28.142133    -28.142134   1.000000   1.000000
   13      -27.895534    -27.895536   1.000000   1.000000
   14      -14.139862    -14.139863   1.000000   1.000000
   15      -14.085258    -14.085258   1.000000   1.000000
   16      -14.037962    -14.037962   1.000000   1.000000
   17       -5.287973     -5.287970   1.000000   1.000000
   18       -4.202064     -4.202063   1.000000   1.000000
   19       -3.280996     -3.280996   1.000000   1.000000
   20       -3.180915     -3.180914   1.000000   1.000000
   21       -2.768180     -2.768179   1.000000   1.000000
   22       -2.480563     -2.480562   1.000000   1.000000
   23       -2.334291     -2.334291   1.000000   1.000000
   24       -2.034028     -2.034027   1.000000   1.000000
   25       -1.900537     -1.900536   1.000000   1.000000
   26       -1.764521     -1.764520   1.000000   1.000000
   27       -1.253841     -1.253840   1.000000   1.000000
   28       -1.001875     -1.001873   1.000000   1.000000
   29       -0.597681     -0.597680   1.000000   1.000000
   30       -0.092928     -0.092927   1.000000   1.000000
   31        0.524839      0.524839   1.000000   1.000000
   32        1.946863      1.946864   1.000000   1.000000
   33        2.244562      2.244564   1.000000   1.000000
   34        2.661823      2.661826   1.000000   1.000000
   35        3.231972      3.231973  -0.037214  -0.037218
   36        3.391859      3.391860   0.000000   0.000000
   37        3.651371      3.651372   0.000000   0.000000
   38        3.861148      3.861150   0.000000   0.000000
   39        4.073179      4.073180   0.000000   0.000000
   40        4.554134      4.554135   0.000000   0.000000
   41        4.923036      4.923036   0.000000   0.000000
   42        5.176041      5.176043   0.000000   0.000000
   43        5.491316      5.491316   0.000000   0.000000
   44        5.854130      5.854130   0.000000   0.000000
   45        6.288963      6.288963   0.000000   0.000000
   46        6.634654      6.634655   0.000000   0.000000
   47        6.907525      6.907526   0.000000   0.000000
   48        7.354020      7.354020   0.000000   0.000000
   49        7.874676      7.874675   0.000000   0.000000
   50        7.947931      7.947932   0.000000   0.000000
   51        8.425771      8.425772   0.000000   0.000000
   52        8.711472      8.711474   0.000000   0.000000
   53        9.029379      9.029380   0.000000   0.000000
   54        9.571271      9.571271   0.000000   0.000000
   55       10.031316     10.031316   0.000000   0.000000
   56       10.234274     10.234273   0.000000   0.000000
   57       10.398381     10.398382   0.000000   0.000000
   58       10.810472     10.810474   0.000000   0.000000
   59       10.974120     10.974121   0.000000   0.000000
   60       11.402668     11.402670   0.000000   0.000000
   61       11.994630     11.994631   0.000000   0.000000
   62       12.282561     12.282562   0.000000   0.000000
   63       12.510311     12.510310   0.000000   0.000000
   64       12.887519     12.887525   0.000000   0.000000
 
 -0.4000000E+00  0.2000000E+00  0.3920475E-15  0.2666667E-01
    1      -31.912146    -31.912147   1.000000   1.000000
    2      -28.895934    -28.895934   1.000000   1.000000
    3      -28.774524    -28.774523   1.000000   1.000000
    4      -28.670442    -28.670442   1.000000   1.000000
    5      -28.645758    -28.645758   1.000000   1.000000
    6      -28.597705    -28.597703   1.000000   1.000000
    7      -28.566791    -28.566788   1.000000   1.000000
    8      -28.499139    -28.499139   1.000000   1.000000
    9      -28.422391    -28.422390   1.000000   1.000000
   10      -28.338851    -28.338853   1.000000   1.000000
   11      -28.217011    -28.217012   1.000000   1.000000
   12      -28.145562    -28.145563   1.000000   1.000000
   13      -27.897055    -27.897056   1.000000   1.000000
   14      -14.147583    -14.147583   1.000000   1.000000
   15      -14.082186    -14.082186   1.000000   1.000000
   16      -14.038225    -14.038225   1.000000   1.000000
   17       -5.133546     -5.133543   1.000000   1.000000
   18       -4.051088     -4.051088   1.000000   1.000000
   19       -3.415672     -3.415672   1.000000   1.000000
   20       -3.044245     -3.044243   1.000000   1.000000
   21       -2.815713     -2.815712   1.000000   1.000000
   22       -2.523046     -2.523045   1.000000   1.000000
   23       -2.403799     -2.403798   1.000000   1.000000
   24       -2.159038     -2.159037   1.000000   1.000000
   25       -1.992860     -1.992859   1.000000   1.000000
   26       -1.740911     -1.740910   1.000000   1.000000
   27       -1.362228     -1.362226   1.000000   1.000000
   28       -1.153984     -1.153982   1.000000   1.000000
   29       -0.817688     -0.817686   1.000000   1.000000
   30        0.035529      0.035530   1.000000   1.000000
   31        0.471040      0.471039   1.000000   1.000000
   32        2.049476      2.049478   1.000000   1.000000
   33        2.435952      2.435952   1.000000   1.000000
   34        2.578666      2.578666   1.000000   1.000000
   35        3.219331      3.219332  -0.054520  -0.054521
   36        3.456921      3.456924   0.000000   0.000000
   37        3.693261      3.693262   0.000000   0.000000
   38        3.917865      3.917865   0.000000   0.000000
   39        4.080117      4.080117   0.000000   0.000000
   40        4.437957      4.437958   0.000000   0.000000
   41        5.028371      5.028371   0.000000   0.000000
   42        5.254459      5.254460   0.000000   0.000000
   43        5.563502      5.563503   0.000000   0.000000
   44        5.924670      5.924670   0.000000   0.000000
   45        6.475466      6.475467   0.000000   0.000000
   46        6.946061      6.946061   0.000000   0.000000
   47        7.173650      7.173650   0.000000   0.000000
   48        7.491940      7.491940   0.000000   0.000000
   49        7.623345      7.623346   0.000000   0.000000
   50        8.055259      8.055259   0.000000   0.000000
   51        8.380754      8.380755   0.000000   0.000000
   52        8.576287      8.576289   0.000000   0.000000
   53        8.980383      8.980384   0.000000   0.000000
   54        9.625526      9.625525   0.000000   0.000000
   55        9.810749      9.810750   0.000000   0.000000
   56       10.100635     10.100635   0.000000   0.000000
   57       10.612832     10.612833   0.000000   0.000000
   58       10.940902     10.940902   0.000000   0.000000
   59       11.048588     11.048588   0.000000   0.000000
   60       11.434964     11.434965   0.000000   0.000000
   61       11.827513     11.827514   0.000000   0.000000
   62       12.296921     12.296920   0.000000   0.000000
   63       12.528565     12.528563   0.000000   0.000000
   64       12.888118     12.888128   0.000000   0.000000
 
 -0.2000000E+00  0.2000000E+00  0.3784950E-15  0.2666667E-01
    1      -31.912764    -31.912764   1.000000   1.000000
    2      -28.890539    -28.890540   1.000000   1.000000
    3      -28.771238    -28.771237   1.000000   1.000000
    4      -28.663921    -28.663921   1.000000   1.000000
    5      -28.638657    -28.638655   1.000000   1.000000
    6      -28.619243    -28.619242   1.000000   1.000000
    7      -28.567975    -28.567971   1.000000   1.000000
    8      -28.503194    -28.503194   1.000000   1.000000
    9      -28.412146    -28.412145   1.000000   1.000000
   10      -28.338136    -28.338138   1.000000   1.000000
   11      -28.219537    -28.219538   1.000000   1.000000
   12      -28.143733    -28.143733   1.000000   1.000000
   13      -27.897367    -27.897368   1.000000   1.000000
   14      -14.127133    -14.127133   1.000000   1.000000
   15      -14.085551    -14.085552   1.000000   1.000000
   16      -14.034369    -14.034369   1.000000   1.000000
   17       -5.774361     -5.774359   1.000000   1.000000
   18       -3.764475     -3.764473   1.000000   1.000000
   19       -3.365944     -3.365942   1.000000   1.000000
   20       -2.812983     -2.812983   1.000000   1.000000
   21       -2.608717     -2.608715   1.000000   1.000000
   22       -2.545271     -2.545270   1.000000   1.000000
   23       -2.390391     -2.390391   1.000000   1.000000
   24       -2.214591     -2.214590   1.000000   1.000000
   25       -1.911952     -1.911951   1.000000   1.000000
   26       -1.654759     -1.654758   1.000000   1.000000
   27       -1.357003     -1.357002   1.000000   1.000000
   28       -1.195200     -1.195199   1.000000   1.000000
   29       -0.665941     -0.665938   1.000000   1.000000
   30       -0.234655     -0.234655   1.000000   1.000000
   31        0.286888      0.286889   1.000000   1.000000
   32        1.749030      1.749032   1.000000   1.000000
   33        2.302062      2.302062   1.000000   1.000000
   34        2.616431      2.616434   1.000000   1.000000
   35        3.103502      3.103503   0.196132   0.196129
   36        3.492780      3.492781   0.000000   0.000000
   37        3.747837      3.747837   0.000000   0.000000
   38        3.942564      3.942565   0.000000   0.000000
   39        4.267403      4.267404   0.000000   0.000000
   40        4.558024      4.558025   0.000000   0.000000
   41        4.908412      4.908413   0.000000   0.000000
   42        5.429788      5.429788   0.000000   0.000000
   43        5.568329      5.568330   0.000000   0.000000
   44        5.957813      5.957813   0.000000   0.000000
   45        6.557922      6.557922   0.000000   0.000000
   46        6.875951      6.875952   0.000000   0.000000
   47        7.194316      7.194316   0.000000   0.000000
   48        7.392833      7.392833   0.000000   0.000000
   49        7.772899      7.772899   0.000000   0.000000
   50        8.249380      8.249382   0.000000   0.000000
   51        8.594374      8.594376   0.000000   0.000000
   52        8.840774      8.840775   0.000000   0.000000
   53        9.223587      9.223587   0.000000   0.000000
   54        9.511002      9.511002   0.000000   0.000000
   55        9.805723      9.805723   0.000000   0.000000
   56       10.215482     10.215482   0.000000   0.000000
   57       10.560830     10.560831   0.000000   0.000000