unknown system                          
           1
     3.467972    0.028229   -0.001802
    -0.008888    5.639349   -0.170420
    -0.202509   -0.545972    8.847156
   H    Nb   H    Sr
  21   1   2   1
Direct configuration=     1
   0.28294707  0.85846224  0.68018521
   0.23429353  0.91542491  0.60846117
   0.26006496  0.10302772  0.36962804
   0.26608220  0.97411706  0.38386788
   0.26000794  0.77071035  0.88266996
   0.75848311  0.34621460  0.37214555
   0.73770026  0.32396481  0.28830616
   0.75118832  0.71675310  0.54028689
   0.73672237  0.73435265  0.45804398
   0.23630053  0.39629111  0.54254172
   0.25799319  0.50163727  0.60054034
   0.24612482  0.63401022  0.27872872
   0.22022720  0.60714906  0.35912460
   0.29085723  0.66878866  0.08360322
   0.77487136  0.41189819  0.98994786
   0.74623365  0.23470051  0.60210584
   0.74581161  0.10243423  0.61026303
   0.89724118  0.97612030  0.14125084
   0.67782373  0.93714142  0.16613551
   0.23897693  0.32249603  0.13226258
   0.30211095  0.19257275  0.12651246
   0.75918430  0.73587427  0.97300896
   0.75812004  0.95316460  0.83050071
   0.74705047  0.56738110  0.77851751
   0.25960206  0.25278083  0.84173227
unknown system                          
           1
     3.465168    0.027965   -0.001601
    -0.009317    5.639010   -0.170371
    -0.201792   -0.545664    8.853154
   H    Nb   H    Sr
  21   1   2   1
Direct configuration=     2
   0.28294125  0.85822456  0.68037722
   0.23427350  0.91565474  0.60822537
   0.26005194  0.10262741  0.36973961
   0.26595327  0.97456803  0.38377911
   0.25995871  0.77135000  0.88276913
   0.75849728  0.34613200  0.37235029
   0.73779231  0.32409983  0.28811932
   0.75131007  0.71670636  0.54070173
   0.73674550  0.73448253  0.45764167
   0.23635124  0.39623953  0.54249516
   0.25808322  0.50181000  0.60065727
   0.24618445  0.63412635  0.27851058
   0.22035486  0.60711073  0.35932046
   0.29049684  0.66825875  0.08349438
   0.77473035  0.41166153  0.98992392
   0.74631802  0.23466437  0.60220407
   0.74590125  0.10261321  0.61025247
   0.89691925  0.97607322  0.14125289
   0.67780132  0.93726027  0.16597443
   0.23924907  0.32247767  0.13232847
   0.30190711  0.19247506  0.12659097
   0.75941110  0.73584620  0.97295132
   0.75809814  0.95294543  0.83046521
   0.74708737  0.56734305  0.77852759
   0.25960156  0.25271717  0.84171837
unknown system                          
           1
     3.466509    0.028092   -0.001697
    -0.009112    5.639172   -0.170394
    -0.202135   -0.545811    8.850286
   H    Nb   H    Sr
  21   1   2   1
Direct configuration=     3
   0.28294407  0.85833821  0.68028549
   0.23428304  0.91554485  0.60833802
   0.26005820  0.10281881  0.36968631
   0.26601492  0.97435241  0.38382152
   0.25998224  0.77104419  0.88272175
   0.75849053  0.34617150  0.37225247
   0.73774823  0.32403527  0.28820858
   0.75125187  0.71672873  0.54050354
   0.73673438  0.73442041  0.45783387
   0.23632697  0.39626419  0.54251740
   0.25804015  0.50172742  0.60060141
   0.24615588  0.63407081  0.27861479
   0.22029380  0.60712907  0.35922689
   0.29066929  0.66851210  0.08354637
   0.77479783  0.41177468  0.98993535
   0.74627767  0.23468165  0.60215714
   0.74585835  0.10252764  0.61025752
   0.89707328  0.97609574  0.14125191
   0.67781202  0.93720344  0.16605139
   0.23911887  0.32248645  0.13229700
   0.30200465  0.19252177  0.12655346
   0.75930258  0.73585961  0.97297886
   0.75810863  0.95305021  0.83048217
   0.74706972  0.56736124  0.77852277
   0.25960180  0.25274761  0.84172501
