 running on   16 total cores
 distrk:  each k-point on   16 cores,    1 groups
 distr:  one band on    1 cores,   16 groups
 using from now: INCAR     
 vasp.5.4.4.18Apr17-6-g9f103f2a35 (build Nov 01 2019 12:17:22) complex          
  
 POSCAR found type information on POSCAR  Sr Nb H 
 POSCAR found :  3 types and      17 ions

 ----------------------------------------------------------------------------- 
|                                                                             |
|           W    W    AA    RRRRR   N    N  II  N    N   GGGG   !!!           |
|           W    W   A  A   R    R  NN   N  II  NN   N  G    G  !!!           |
|           W    W  A    A  R    R  N N  N  II  N N  N  G       !!!           |
|           W WW W  AAAAAA  RRRRR   N  N N  II  N  N N  G  GGG   !            |
|           WW  WW  A    A  R   R   N   NN  II  N   NN  G    G                |
|           W    W  A    A  R    R  N    N  II  N    N   GGGG   !!!           |
|                                                                             |
|      For optimal performance we recommend to set                            |
|        NCORE= 4 - approx SQRT( number of cores)                             |
|      NCORE specifies how many cores store one orbital (NPAR=cpu/NCORE).     |
|      This setting can  greatly improve the performance of VASP for DFT.     |
|      The default,   NCORE=1            might be grossly inefficient         |
|      on modern multi-core architectures or massively parallel machines.     |
|      Do your own testing !!!!                                               |
|      Unfortunately you need to use the default for GW and RPA calculations. |
|      (for HF NCORE is supported but not extensively tested yet)             |
|                                                                             |
 ----------------------------------------------------------------------------- 

 LDA part: xc-table for Pade appr. of Perdew
 POSCAR, INCAR and KPOINTS ok, starting setup
 FFT: planning ...
 WAVECAR not read
 entering main loop
       N       E                     dE             d eps       ncg     rms          rms(c)
DAV:   1     0.165084052041E+03    0.16508E+03   -0.17167E+04  6144   0.101E+03
DAV:   2    -0.486502027789E+02   -0.21373E+03   -0.20432E+03  7024   0.270E+02
DAV:   3    -0.604825428491E+02   -0.11832E+02   -0.11774E+02 12016   0.562E+01
DAV:   4    -0.605909640853E+02   -0.10842E+00   -0.10841E+00  6448   0.444E+00
DAV:   5    -0.605940305833E+02   -0.30665E-02   -0.30663E-02 10656   0.689E-01    0.390E+01
RMM:   6    -0.630393154202E+02   -0.24453E+01   -0.60730E+00  6724   0.107E+01    0.190E+01
RMM:   7    -0.625943916202E+02    0.44492E+00   -0.26569E+00  6748   0.959E+00    0.870E+00
RMM:   8    -0.627324150228E+02   -0.13802E+00   -0.42390E-01  6776   0.544E+00    0.436E+00
RMM:   9    -0.627578560482E+02   -0.25441E-01   -0.93143E-02  6482   0.188E+00    0.197E+00
RMM:  10    -0.627661372162E+02   -0.82812E-02   -0.27753E-02  6365   0.136E+00    0.123E+00
RMM:  11    -0.627681876141E+02   -0.20504E-02   -0.74133E-03  5730   0.660E-01    0.574E-01
RMM:  12    -0.627685637867E+02   -0.37617E-03   -0.16912E-03  4917   0.380E-01
   1 F= -.62768564E+02 E0= -.62768564E+02  d E =-.627686E+02  mag=     0.0011
 curvature:   0.00 expect dE= 0.000E+00 dE for cont linesearch  0.000E+00
 trial: gam= 0.00000 g(F)=  0.251E-01 g(S)=  0.144E+00 ort = 0.000E+00 (trialstep = 0.100E+01)
 search vector abs. value=  0.169E+00
 bond charge predicted
       N       E                     dE             d eps       ncg     rms          rms(c)
DAV:   1    -0.631048422714E+02   -0.33665E+00   -0.49519E+00  9056   0.145E+01    0.575E+00
RMM:   2    -0.629389332827E+02    0.16591E+00   -0.59264E-01  6780   0.430E+00    0.125E+00
RMM:   3    -0.629057112991E+02    0.33222E-01   -0.47767E-02  6578   0.205E+00    0.112E+00
RMM:   4    -0.628997685708E+02    0.59427E-02   -0.14351E-02  6193   0.817E-01    0.102E+00
RMM:   5    -0.628988509621E+02    0.91761E-03   -0.73496E-03  6051   0.825E-01    0.454E-01
RMM:   6    -0.628989968256E+02   -0.14586E-03   -0.52761E-03  6013   0.344E-01
   2 F= -.62898997E+02 E0= -.62898997E+02  d E =-.130433E+00  mag=     0.0000
 trial-energy change:   -0.130433  1 .order   -0.132400   -0.169104   -0.095697
 step:   2.3036(harm=  2.3036)  dis= 0.02694  next Energy=   -62.963341 (dE=-0.195E+00)
 bond charge predicted
       N       E                     dE             d eps       ncg     rms          rms(c)
DAV:   1    -0.633064454740E+02   -0.40759E+00   -0.82737E+00  7376   0.187E+01    0.713E+00
RMM:   2    -0.630335210604E+02    0.27292E+00   -0.98408E-01  6724   0.552E+00    0.162E+00
RMM:   3    -0.629745008327E+02    0.59020E-01   -0.83256E-02  6543   0.273E+00    0.141E+00
RMM:   4    -0.629651135389E+02    0.93873E-02   -0.24438E-02  6377   0.102E+00    0.139E+00
RMM:   5    -0.629637947306E+02    0.13188E-02   -0.99857E-03  6308   0.101E+00    0.692E-01
RMM:   6    -0.629637270675E+02    0.67663E-04   -0.11113E-02  6889   0.488E-01    0.217E-01
RMM:   7    -0.629639324584E+02   -0.20539E-03   -0.21772E-03  5254   0.396E-01
   3 F= -.62963932E+02 E0= -.62963932E+02  d E =-.195369E+00  mag=     0.0000
 curvature:  -1.15 expect dE=-0.200E+00 dE for cont linesearch -0.533E-03
 trial: gam= 0.97533 g(F)=  0.168E+00 g(S)=  0.531E-02 ort = 0.885E-02 (trialstep = 0.606E+00)
 search vector abs. value=  0.352E+00
 bond charge predicted
       N       E                     dE             d eps       ncg     rms          rms(c)
DAV:   1    -0.631218298612E+02   -0.15810E+00   -0.38992E+00  7504   0.129E+01    0.323E+00
RMM:   2    -0.630382873337E+02    0.83543E-01   -0.35654E-01  6698   0.335E+00    0.106E+00
RMM:   3    -0.630214269520E+02    0.16860E-01   -0.25113E-02  6751   0.153E+00    0.796E-01
RMM:   4    -0.630189300953E+02    0.24969E-02   -0.11711E-02  6069   0.553E-01    0.669E-01
RMM:   5    -0.630192127307E+02   -0.28264E-03   -0.35732E-03  5500   0.577E-01
   4 F= -.63019213E+02 E0= -.63019213E+02  d E =-.552803E-01  mag=     0.0000
 trial-energy change:   -0.055280  1 .order   -0.058384   -0.110509   -0.006258
 step:   0.6422(harm=  0.6422)  dis= 0.02790  next Energy=   -63.022504 (dE=-0.586E-01)
 bond charge predicted
       N       E                     dE             d eps       ncg     rms          rms(c)
DAV:   1    -0.630195257768E+02   -0.59568E-03   -0.13314E-02 10128   0.764E-01    0.163E-01
RMM:   2    -0.630192528777E+02    0.27290E-03   -0.88967E-04  3376   0.192E-01
   5 F= -.63019253E+02 E0= -.63019253E+02  d E =-.553204E-01  mag=     0.0000
 curvature:  -0.62 expect dE=-0.658E-01 dE for cont linesearch -0.300E-03
 trial: gam= 0.78771 g(F)=  0.105E+00 g(S)=  0.153E-02 ort =-0.131E-01 (trialstep = 0.613E+00)
 search vector abs. value=  0.304E+00
 bond charge predicted
       N       E                     dE             d eps       ncg     rms          rms(c)
DAV:   1    -0.631480354560E+02   -0.12851E+00   -0.31536E+00  7680   0.116E+01    0.247E+00
RMM:   2    -0.630791008439E+02    0.68935E-01   -0.27760E-01  6704   0.281E+00    0.112E+00
RMM:   3    -0.630669350048E+02    0.12166E-01   -0.19848E-02  6813   0.120E+00    0.796E-01
RMM:   4    -0.630657231044E+02    0.12119E-02   -0.12517E-02  6011   0.485E-01    0.583E-01
RMM:   5    -0.630662806912E+02   -0.55759E-03   -0.24347E-03  5283   0.458E-01
   6 F= -.63066281E+02 E0= -.63066281E+02  d E =-.470278E-01  mag=     0.0000
 trial-energy change:   -0.047028  1 .order   -0.050022   -0.058855   -0.041190
 step:   2.0428(harm=  2.0428)  dis= 0.06240  next Energy=   -63.117299 (dE=-0.980E-01)
 bond charge predicted
       N       E                     dE             d eps       ncg     rms          rms(c)
DAV:   1    -0.635345633638E+02   -0.46884E+00   -0.17097E+01  7680   0.270E+01    0.587E+00
RMM:   2    -0.631633153825E+02    0.37125E+00   -0.15353E+00  6680   0.656E+00    0.273E+00
RMM:   3    -0.630957080735E+02    0.67607E-01   -0.10560E-01  6940   0.279E+00    0.189E+00
RMM:   4    -0.630888160815E+02    0.68920E-02   -0.63948E-02  7602   0.105E+00    0.142E+00
RMM:   5    -0.630918409784E+02   -0.30249E-02   -0.11575E-02  6884   0.888E-01    0.978E-01
RMM:   6    -0.630926106472E+02   -0.76967E-03   -0.14901E-02  7502   0.509E-01    0.241E-01
RMM:   7    -0.630928833729E+02   -0.27273E-03   -0.32807E-03  5689   0.361E-01
   7 F= -.63092883E+02 E0= -.63092883E+02  d E =-.736305E-01  mag=    -0.0000
 curvature:  -3.24 expect dE=-0.485E+00 dE for cont linesearch -0.489E-02
 trial: gam= 1.11213 g(F)=  0.146E+00 g(S)=  0.377E-02 ort =-0.214E-01 (trialstep = 0.571E+00)
 search vector abs. value=  0.478E+00
 bond charge predicted
       N       E                     dE             d eps       ncg     rms          rms(c)
DAV:   1    -0.631899239889E+02   -0.97313E-01   -0.55712E+00  7744   0.176E+01    0.251E+00
RMM:   2    -0.631419102832E+02    0.48014E-01   -0.43142E-01  6767   0.354E+00    0.897E-01
RMM:   3    -0.631300162273E+02    0.11894E-01   -0.24333E-02  6916   0.139E+00    0.647E-01
RMM:   4    -0.631290023196E+02    0.10139E-02   -0.11812E-02  6090   0.468E-01    0.484E-01
RMM:   5    -0.631294076001E+02   -0.40528E-03   -0.21662E-03  5252   0.434E-01
   8 F= -.63129408E+02 E0= -.63129408E+02  d E =-.365242E-01  mag=    -0.0000
 trial-energy change:   -0.036524  1 .order   -0.039672   -0.072095   -0.007248
 step:   0.6353(harm=  0.6353)  dis= 0.02623  next Energy=   -63.132960 (dE=-0.401E-01)
 bond charge predicted
       N       E                     dE             d eps       ncg     rms          rms(c)
DAV:   1    -0.631303603498E+02   -0.13580E-02   -0.66538E-02 10752   0.194E+00    0.265E-01
RMM:   2    -0.631297274741E+02    0.63288E-03   -0.47965E-03  5740   0.382E-01
   9 F= -.63129727E+02 E0= -.63129727E+02  d E =-.368441E-01  mag=     0.0000
 curvature:  -1.20 expect dE=-0.665E-01 dE for cont linesearch -0.179E-03
 trial: gam= 0.24633 g(F)=  0.504E-01 g(S)=  0.477E-02 ort =-0.842E-02 (trialstep = 0.584E+00)
 search vector abs. value=  0.801E-01
 bond charge predicted
       N       E                     dE             d eps       ncg     rms          rms(c)
DAV:   1    -0.631457467426E+02   -0.15386E-01   -0.11598E+00  7680   0.813E+00    0.538E-01
RMM:   2    -0.631494251979E+02   -0.36785E-02   -0.69429E-02  6306   0.143E+00    0.462E-01
RMM:   3    -0.631483178954E+02    0.11073E-02   -0.30997E-03  5158   0.713E-01    0.282E-01
RMM:   4    -0.631481736726E+02    0.14422E-03   -0.81545E-04  4416   0.196E-01
  10 F= -.63148174E+02 E0= -.63148174E+02  d E =-.184462E-01  mag=     0.0000
 trial-energy change:   -0.018446  1 .order   -0.018552   -0.031029   -0.006074
 step:   0.7264(harm=  0.7264)  dis= 0.02163  next Energy=   -63.149018 (dE=-0.193E-01)
 bond charge predicted
       N       E                     dE             d eps       ncg     rms          rms(c)
DAV:   1    -0.631486136427E+02   -0.29575E-03   -0.67165E-02 10624   0.199E+00    0.167E-01
RMM:   2    -0.631488068487E+02   -0.19321E-03   -0.38699E-03  5260   0.335E-01
  11 F= -.63148807E+02 E0= -.63148807E+02  d E =-.190794E-01  mag=     0.0000
 curvature:  -0.55 expect dE=-0.282E-01 dE for cont linesearch -0.219E-04
 trial: gam= 0.95335 g(F)=  0.460E-01 g(S)=  0.557E-02 ort =-0.179E-02 (trialstep = 0.406E+00)
 search vector abs. value=  0.121E+00
 bond charge predicted
       N       E                     dE             d eps       ncg     rms          rms(c)
DAV:   1    -0.631664970965E+02   -0.17883E-01   -0.66220E-01  6144   0.456E+00    0.445E-01
RMM:   2    -0.631681165029E+02   -0.16194E-02   -0.33221E-02  6410   0.960E-01    0.252E-01
RMM:   3    -0.631679779664E+02    0.13854E-03   -0.36550E-03  4840   0.813E-01
  12 F= -.63167978E+02 E0= -.63167978E+02  d E =-.191711E-01  mag=     0.0000
 ZBRENT: can't locate minimum, use default step
 trial-energy change:   -0.019171  1 .order   -0.019141   -0.020226   -0.018057
 step:   1.6225(harm=  3.7822)  dis= 0.07450  next Energy=   -63.243101 (dE=-0.943E-01)
 bond charge predicted
       N       E                     dE             d eps       ncg     rms          rms(c)
DAV:   1    -0.631962367748E+02   -0.28120E-01   -0.60027E+00  6144   0.136E+01    0.136E+00
RMM:   2    -0.632122002873E+02   -0.15964E-01   -0.30699E-01  6834   0.290E+00    0.749E-01
RMM:   3    -0.632105706666E+02    0.16296E-02   -0.31283E-02  6078   0.206E+00    0.403E-01
RMM:   4    -0.632102467097E+02    0.32396E-03   -0.41293E-03  5432   0.415E-01
  13 F= -.63210247E+02 E0= -.63210247E+02  d E =-.614399E-01  mag=     0.0000
 curvature:  -2.71 expect dE=-0.705E-01 dE for cont linesearch -0.152E-01
 ZBRENT: increasing intervall
 opt :   4.0563  next Energy=   -63.228590 (dE=-0.798E-01)
 bond charge predicted
       N       E                     dE             d eps       ncg     rms          rms(c)
DAV:   1    -0.631503428966E+02    0.60228E-01   -0.24538E+01  6144   0.273E+01    0.300E+00
RMM:   2    -0.632245323162E+02   -0.74189E-01   -0.13077E+00  6748   0.581E+00    0.161E+00
RMM:   3    -0.632205183008E+02    0.40140E-02   -0.14799E-01  6438   0.469E+00    0.831E-01
RMM:   4    -0.632196614276E+02    0.85687E-03   -0.17155E-02  6456   0.763E-01    0.278E-01
RMM:   5    -0.632196897735E+02   -0.28346E-04   -0.31932E-03  5162   0.533E-01
  14 F= -.63219690E+02 E0= -.63219690E+02  d E =-.708829E-01  mag=    -0.0000
 curvature:  -3.27 expect dE=-0.251E+00 dE for cont linesearch -0.644E-02
 trial: gam= 0.00000 g(F)=  0.654E-01 g(S)=  0.113E-01 ort =-0.154E-01 (trialstep = 0.114E+01)
 search vector abs. value=  0.768E-01
 bond charge predicted
       N       E                     dE             d eps       ncg     rms          rms(c)
DAV:   1    -0.632201515251E+02   -0.49010E-03   -0.37294E+00  8736   0.143E+01    0.100E+00
RMM:   2    -0.632284271144E+02   -0.82756E-02   -0.20181E-01  6198   0.226E+00    0.955E-01
RMM:   3    -0.632235759226E+02    0.48512E-02   -0.10858E-02  5764   0.130E+00    0.577E-01
RMM:   4    -0.632224879177E+02    0.10880E-02   -0.39884E-03  5610   0.320E-01    0.497E-01
RMM:   5    -0.632224334681E+02    0.54450E-04   -0.70266E-04  3994   0.361E-01
  15 F= -.63222433E+02 E0= -.63222433E+02  d E =-.274369E-02  mag=    -0.0000
 trial-energy change:   -0.002744  1 .order   -0.000453   -0.087190    0.086285
 step:   0.5708(harm=  0.5708)  dis= 0.00928  next Energy=   -63.241601 (dE=-0.219E-01)
 bond charge predicted
       N       E                     dE             d eps       ncg     rms          rms(c)
DAV:   1    -0.632429831445E+02   -0.20495E-01   -0.93349E-01  9280   0.715E+00    0.589E-01
RMM:   2    -0.632444117943E+02   -0.14286E-02   -0.47716E-02  6228   0.111E+00    0.579E-01
RMM:   3    -0.632432482575E+02    0.11635E-02   -0.26217E-03  5180   0.657E-01    0.243E-01
RMM:   4    -0.632429946749E+02    0.25358E-03   -0.92476E-04  4230   0.164E-01
  16 F= -.63242995E+02 E0= -.63242995E+02  d E =-.233049E-01  mag=     0.0000
 curvature:  -0.29 expect dE=-0.121E-01 dE for cont linesearch -0.984E-05
 trial: gam= 0.53121 g(F)=  0.382E-01 g(S)=  0.424E-02 ort = 0.163E-02 (trialstep = 0.102E+01)
 search vector abs. value=  0.658E-01
 bond charge predicted
       N       E                     dE             d eps       ncg     rms          rms(c)
DAV:   1    -0.632749555626E+02   -0.31707E-01   -0.15018E+00  6656   0.783E+00    0.109E+00
RMM:   2    -0.632707639501E+02    0.41916E-02   -0.82628E-02  6712   0.151E+00    0.440E-01
RMM:   3    -0.632680686294E+02    0.26953E-02   -0.49230E-03  5832   0.781E-01    0.254E-01
RMM:   4    -0.632674858928E+02    0.58274E-03   -0.21201E-03  5050   0.322E-01
  17 F= -.63267486E+02 E0= -.63267486E+02  d E =-.244912E-01  mag=     0.0000
 trial-energy change:   -0.024491  1 .order   -0.025141   -0.044256   -0.006025
 step:   1.1840(harm=  1.1840)  dis= 0.02239  next Energy=   -63.268610 (dE=-0.256E-01)
 bond charge predicted
       N       E                     dE             d eps       ncg     rms          rms(c)
DAV:   1    -0.632679245178E+02    0.14411E-03   -0.35003E-02  9216   0.128E+00    0.183E-01
RMM:   2    -0.632677867977E+02    0.13772E-03   -0.20175E-03  3892   0.244E-01
  18 F= -.63267787E+02 E0= -.63267787E+02  d E =-.247921E-01  mag=     0.0000
 curvature:  -0.90 expect dE=-0.287E-01 dE for cont linesearch -0.211E-04
 trial: gam= 0.88182 g(F)=  0.303E-01 g(S)=  0.162E-02 ort =-0.124E-02 (trialstep = 0.858E+00)
 search vector abs. value=  0.809E-01
 bond charge predicted
       N       E                     dE             d eps       ncg     rms          rms(c)
DAV:   1    -0.632792731491E+02   -0.11349E-01   -0.19497E+00  7680   0.105E+01    0.993E-01
RMM:   2    -0.632797761774E+02   -0.50303E-03   -0.11838E-01  6696   0.173E+00    0.493E-01
RMM:   3    -0.632765604499E+02    0.32157E-02   -0.58237E-03  5843   0.783E-01    0.303E-01
RMM:   4    -0.632762998099E+02    0.26064E-03   -0.17485E-03  4756   0.274E-01
  19 F= -.63276300E+02 E0= -.63276300E+02  d E =-.851301E-02  mag=     0.0000
 trial-energy change:   -0.008513  1 .order   -0.010605   -0.026447    0.005237
 step:   0.7163(harm=  0.7163)  dis= 0.01256  next Energy=   -63.278825 (dE=-0.110E-01)
 bond charge predicted
       N       E                     dE             d eps       ncg     rms          rms(c)
DAV:   1    -0.632772366500E+02   -0.67620E-03   -0.58677E-02 10656   0.181E+00    0.177E-01
RMM:   2    -0.632772262218E+02    0.10428E-04   -0.28812E-03  5018   0.290E-01
  20 F= -.63277226E+02 E0= -.63277226E+02  d E =-.943942E-02  mag=    -0.0000
 curvature:  -0.94 expect dE=-0.889E-02 dE for cont linesearch -0.731E-04
 trial: gam= 0.22639 g(F)=  0.765E-02 g(S)=  0.180E-02 ort =-0.251E-02 (trialstep = 0.830E+00)
 search vector abs. value=  0.125E-01
 bond charge predicted
       N       E                     dE             d eps       ncg     rms          rms(c)
DAV:   1    -0.632838080542E+02   -0.65714E-02   -0.21573E-01  7872   0.328E+00    0.352E-01
RMM:   2    -0.632835743312E+02    0.23372E-03   -0.10078E-02  6358   0.544E-01    0.182E-01
RMM:   3    -0.632833035821E+02    0.27075E-03   -0.50411E-04  3580   0.277E-01
  21 F= -.63283304E+02 E0= -.63283304E+02  d E =-.607736E-02  mag=     0.0000
 trial-energy change:   -0.006077  1 .order   -0.006406   -0.007374   -0.005439
 step:   3.1621(harm=  3.1621)  dis= 0.02138  next Energy=   -63.291276 (dE=-0.140E-01)
 bond charge predicted
       N       E                     dE             d eps       ncg     rms          rms(c)
DAV:   1    -0.632930917810E+02   -0.95174E-02   -0.16993E+00  7680   0.924E+00    0.972E-01
RMM:   2    -0.632908898061E+02    0.22020E-02   -0.87067E-02  6744   0.155E+00    0.387E-01
RMM:   3    -0.632881500786E+02    0.27397E-02   -0.46091E-03  5746   0.685E-01    0.208E-01
RMM:   4    -0.632878141456E+02    0.33593E-03   -0.23866E-03  5166   0.297E-01
  22 F= -.63287814E+02 E0= -.63287814E+02  d E =-.105879E-01  mag=     0.0000
 curvature:  -2.22 expect dE=-0.114E+00 dE for cont linesearch -0.252E-03
 trial: gam= 5.49440 g(F)=  0.480E-01 g(S)=  0.355E-02 ort =-0.119E-02 (trialstep = 0.390E-01)
 search vector abs. value=  0.415E+00
 bond charge predicted
       N       E                     dE             d eps       ncg     rms          rms(c)
DAV:   1    -0.632895405455E+02   -0.13905E-02   -0.11292E-02  9216   0.686E-01    0.116E-01
RMM:   2    -0.632894059776E+02    0.13457E-03   -0.51372E-04  3298   0.134E-01
  23 F= -.63289406E+02 E0= -.63289406E+02  d E =-.159183E-02  mag=     0.0000
 ZBRENT: can't locate minimum, use default step
 trial-energy change:   -0.001592  1 .order   -0.001653   -0.001754   -0.001552
 step:   0.1558(harm=  0.3381)  dis= 0.00636  next Energy=   -63.295428 (dE=-0.761E-02)
 bond charge predicted
       N       E                     dE             d eps       ncg     rms          rms(c)
DAV:   1    -0.632944051274E+02   -0.48646E-02   -0.10497E-01  6560   0.190E+00    0.297E-01
RMM:   2    -0.632936481588E+02    0.75697E-03   -0.47659E-03  5912   0.403E-01
  24 F= -.63293648E+02 E0= -.63293648E+02  d E =-.583401E-02  mag=     0.0000
 curvature:  -0.98 expect dE=-0.406E-01 dE for cont linesearch -0.309E-02
 trial: gam=-0.08249 g(F)=  0.383E-01 g(S)=  0.317E-02 ort = 0.362E-01 (trialstep = 0.623E-01)
 search vector abs. value=  0.383E-01
 reached required accuracy - stopping structural energy minimisation
