       N       E                     dE             d eps       ncg     rms          rms(c)
DAV:   1     0.922316591308E+02    0.92232E+02   -0.90753E+03  9256   0.642E+02
DAV:   2    -0.155099901353E+02   -0.10774E+03   -0.10500E+03 10404   0.248E+02
DAV:   3    -0.242136696349E+02   -0.87037E+01   -0.85068E+01 13308   0.499E+01
DAV:   4    -0.246922364195E+02   -0.47857E+00   -0.47233E+00 11780   0.923E+00
DAV:   5    -0.247047931289E+02   -0.12557E-01   -0.12526E-01 13136   0.146E+00    0.339E+01
DAV:   6    -0.238739958235E+02    0.83080E+00   -0.52329E+01 11848   0.224E+01    0.109E+01
DAV:   7    -0.224224696632E+02    0.14515E+01   -0.47236E+01 13192   0.230E+01    0.147E+01
DAV:   8    -0.212791369042E+02    0.11433E+01   -0.67728E+00 11764   0.824E+00    0.212E+00
DAV:   9    -0.212639642102E+02    0.15173E-01   -0.16569E-01  9192   0.209E+00    0.168E+00
DAV:  10    -0.212693928050E+02   -0.54286E-02   -0.68368E-02 11140   0.142E+00    0.448E-01
DAV:  11    -0.212693838734E+02    0.89316E-05   -0.99815E-03  9552   0.451E-01    0.236E-01
DAV:  12    -0.212701432646E+02   -0.75939E-03   -0.14800E-03 10144   0.183E-01    0.134E-01
DAV:  13    -0.212706076299E+02   -0.46437E-03   -0.48433E-04  7884   0.109E-01    0.484E-02
DAV:  14    -0.212706821489E+02   -0.74519E-04   -0.77084E-05  6032   0.523E-02
   1 F= -.21270682E+02 E0= -.21270816E+02  d E =-.212707E+02
       N       E                     dE             d eps       ncg     rms          rms(c)
DAV:   1    -0.231271647568E+02   -0.18566E+01   -0.31461E+02  7880   0.160E+02    0.143E+01
DAV:   2    -0.245341815566E+02   -0.14070E+01   -0.31622E+01  8676   0.372E+01    0.908E+00
DAV:   3    -0.243211382565E+02    0.21304E+00   -0.25085E+00 12976   0.778E+00    0.504E+00
DAV:   4    -0.242910602412E+02    0.30078E-01   -0.13776E+00 11672   0.605E+00    0.343E+00
DAV:   5    -0.242463500016E+02    0.44710E-01   -0.51233E-01 14456   0.266E+00    0.118E+00
DAV:   6    -0.242477237709E+02   -0.13738E-02   -0.28053E-02 13184   0.879E-01    0.622E-01
DAV:   7    -0.242493663102E+02   -0.16425E-02   -0.36818E-03 11068   0.398E-01    0.104E-01
DAV:   8    -0.242493640025E+02    0.23077E-05   -0.41956E-04  7484   0.132E-01
   2 F= -.24249364E+02 E0= -.24249643E+02  d E =-.297868E+01
       N       E                     dE             d eps       ncg     rms          rms(c)
DAV:   1    -0.245658333569E+02   -0.31647E+00   -0.61724E+01  9264   0.725E+01    0.532E+00
DAV:   2    -0.248519144344E+02   -0.28608E+00   -0.65746E+00  8892   0.166E+01    0.247E+00
DAV:   3    -0.248039576793E+02    0.47957E-01   -0.52567E-01 14000   0.354E+00    0.133E+00
DAV:   4    -0.247899554116E+02    0.14002E-01   -0.12832E-01 12448   0.205E+00    0.866E-01
DAV:   5    -0.247883367159E+02    0.16187E-02   -0.27194E-02 15036   0.661E-01    0.521E-01
DAV:   6    -0.247893336164E+02   -0.99690E-03   -0.28796E-03 13808   0.310E-01    0.249E-01
DAV:   7    -0.247897217990E+02   -0.38818E-03   -0.65890E-04 11608   0.145E-01    0.447E-02
DAV:   8    -0.247897212937E+02    0.50529E-06   -0.56083E-05  5988   0.583E-02
   3 F= -.24789721E+02 E0= -.24789822E+02  d E =-.351904E+01
       N       E                     dE             d eps       ncg     rms          rms(c)
DAV:   1    -0.237466746389E+02    0.10430E+01   -0.24895E+02  9232   0.146E+02    0.133E+01
DAV:   2    -0.250218021071E+02   -0.12751E+01   -0.24218E+01  8160   0.317E+01    0.435E+00
DAV:   3    -0.248960685127E+02    0.12573E+00   -0.12529E+00 14160   0.640E+00    0.202E+00
DAV:   4    -0.248736545083E+02    0.22414E-01   -0.24664E-01 13700   0.335E+00    0.141E+00
DAV:   5    -0.248737203657E+02   -0.65857E-04   -0.60832E-02 15344   0.104E+00    0.884E-01
DAV:   6    -0.248779411006E+02   -0.42207E-02   -0.15056E-02 13452   0.811E-01    0.359E-01
DAV:   7    -0.248783411043E+02   -0.40000E-03   -0.26258E-03 11288   0.272E-01    0.878E-02
DAV:   8    -0.248783766472E+02   -0.35543E-04   -0.13070E-04  6652   0.930E-02
   4 F= -.24878377E+02 E0= -.24878214E+02  d E =-.360769E+01
       N       E                     dE             d eps       ncg     rms          rms(c)
DAV:   1    -0.248385861042E+02    0.39755E-01   -0.46104E+01  9264   0.642E+01    0.478E+00
DAV:   2    -0.250512971857E+02   -0.21271E+00   -0.50306E+00  8920   0.156E+01    0.211E+00
DAV:   3    -0.250046600104E+02    0.46637E-01   -0.48374E-01 11632   0.336E+00    0.152E+00
DAV:   4    -0.249937060451E+02    0.10954E-01   -0.68235E-02 14024   0.167E+00    0.837E-01
DAV:   5    -0.249943410840E+02   -0.63504E-03   -0.78178E-03 15032   0.401E-01    0.579E-01
DAV:   6    -0.249949766830E+02   -0.63560E-03   -0.21974E-03 14192   0.272E-01    0.116E-01
DAV:   7    -0.249950196578E+02   -0.42975E-04   -0.13415E-04  6168   0.711E-02
   5 F= -.24995020E+02 E0= -.24995041E+02  d E =-.372434E+01
       N       E                     dE             d eps       ncg     rms          rms(c)
DAV:   1    -0.281419164105E+02   -0.31469E+01   -0.11493E+02  7720   0.896E+01    0.132E+01
DAV:   2    -0.267482916058E+02    0.13936E+01   -0.18456E+01 10800   0.305E+01    0.556E+00
DAV:   3    -0.263467361393E+02    0.40156E+00   -0.25256E+00 15240   0.869E+00    0.248E+00
DAV:   4    -0.262550574200E+02    0.91679E-01   -0.60853E-01 14120   0.553E+00    0.172E+00
DAV:   5    -0.262575238382E+02   -0.24664E-02   -0.86609E-02 15424   0.128E+00    0.998E-01
DAV:   6    -0.262655424249E+02   -0.80186E-02   -0.18005E-02 14432   0.850E-01    0.583E-01
DAV:   7    -0.262687613901E+02   -0.32190E-02   -0.63762E-03 14884   0.338E-01    0.100E-01
DAV:   8    -0.262687677469E+02   -0.63568E-05   -0.39810E-04  8476   0.153E-01
   6 F= -.26268768E+02 E0= -.26267985E+02  d E =-.127375E+01
       N       E                     dE             d eps       ncg     rms          rms(c)
DAV:   1    -0.281619380330E+02   -0.18932E+01   -0.91781E+01  8208   0.828E+01    0.131E+01
DAV:   2    -0.270015880268E+02    0.11604E+01   -0.13502E+01 10800   0.277E+01    0.436E+00
DAV:   3    -0.267027539738E+02    0.29883E+00   -0.17093E+00 15064   0.777E+00    0.208E+00
DAV:   4    -0.266387056123E+02    0.64048E-01   -0.41053E-01 14136   0.487E+00    0.159E+00
DAV:   5    -0.266431895447E+02   -0.44839E-02   -0.46263E-02 15352   0.102E+00    0.965E-01
DAV:   6    -0.266505400832E+02   -0.73505E-02   -0.14299E-02 14224   0.776E-01    0.472E-01
DAV:   7    -0.266526616820E+02   -0.21216E-02   -0.44899E-03 15356   0.309E-01    0.867E-02
DAV:   8    -0.266526593219E+02    0.23600E-05   -0.35640E-04  8384   0.143E-01
   7 F= -.26652659E+02 E0= -.26651546E+02  d E =-.165764E+01
       N       E                     dE             d eps       ncg     rms          rms(c)
DAV:   1    -0.274414666452E+02   -0.78880E+00   -0.12875E+02  9264   0.111E+02    0.806E+00
DAV:   2    -0.274640460550E+02   -0.22579E-01   -0.13695E+01  9196   0.248E+01    0.347E+00
DAV:   3    -0.273147909517E+02    0.14926E+00   -0.82248E-01 13576   0.582E+00    0.183E+00
DAV:   4    -0.272823913930E+02    0.32400E-01   -0.15803E-01 14008   0.295E+00    0.134E+00
DAV:   5    -0.272833318480E+02   -0.94046E-03   -0.30566E-02 15104   0.877E-01    0.623E-01
DAV:   6    -0.272840304230E+02   -0.69857E-03   -0.10469E-02 14132   0.751E-01    0.211E-01
DAV:   7    -0.272839811537E+02    0.49269E-04   -0.12981E-03 11400   0.246E-01    0.645E-02
DAV:   8    -0.272839855555E+02   -0.44018E-05   -0.10790E-04  6160   0.763E-02
   8 F= -.27283986E+02 E0= -.27283145E+02  d E =-.631326E+00
       N       E                     dE             d eps       ncg     rms          rms(c)
DAV:   1    -0.273195025282E+02   -0.35521E-01   -0.10366E+01  9264   0.326E+01    0.256E+00
DAV:   2    -0.273245139761E+02   -0.50114E-02   -0.12929E+00  9504   0.764E+00    0.959E-01
DAV:   3    -0.273127060595E+02    0.11808E-01   -0.83613E-02 13000   0.188E+00    0.608E-01
DAV:   4    -0.273098760577E+02    0.28300E-02   -0.12720E-02 14080   0.813E-01    0.402E-01
DAV:   5    -0.273098975758E+02   -0.21518E-04   -0.19319E-03 14792   0.231E-01    0.191E-01
DAV:   6    -0.273099985901E+02   -0.10101E-03   -0.53790E-04 11464   0.168E-01    0.493E-02
DAV:   7    -0.273100090078E+02   -0.10418E-04   -0.44794E-05  5884   0.537E-02
   9 F= -.27310009E+02 E0= -.27309252E+02  d E =-.657350E+00
       N       E                     dE             d eps       ncg     rms          rms(c)
DAV:   1    -0.276274623027E+02   -0.31746E+00   -0.68231E+01  9264   0.829E+01    0.524E+00
DAV:   2    -0.278209919874E+02   -0.19353E+00   -0.62189E+00  8992   0.166E+01    0.211E+00
DAV:   3    -0.277935192813E+02    0.27473E-01   -0.24466E-01 12464   0.361E+00    0.111E+00
DAV:   4    -0.277904398058E+02    0.30795E-02   -0.16663E-02 11648   0.958E-01    0.491E-01
DAV:   5    -0.277903598822E+02    0.79924E-04   -0.34103E-03 11328   0.431E-01    0.137E-01
DAV:   6    -0.277903432927E+02    0.16590E-04   -0.84814E-04  9928   0.191E-01
  10 F= -.27790343E+02 E0= -.27789619E+02  d E =-.480334E+00
       N       E                     dE             d eps       ncg     rms          rms(c)
DAV:   1    -0.277950360931E+02   -0.46762E-02   -0.83620E+00  9264   0.292E+01    0.187E+00
DAV:   2    -0.278222938268E+02   -0.27258E-01   -0.81203E-01  9032   0.599E+00    0.693E-01
DAV:   3    -0.278186991445E+02    0.35947E-02   -0.29418E-02 12208   0.127E+00    0.349E-01
DAV:   4    -0.278182851312E+02    0.41401E-03   -0.27700E-03 12156   0.388E-01    0.158E-01
DAV:   5    -0.278182514916E+02    0.33640E-04   -0.62519E-04 10816   0.177E-01
  11 F= -.27818251E+02 E0= -.27817423E+02  d E =-.508242E+00
       N       E                     dE             d eps       ncg     rms          rms(c)
DAV:   1    -0.284132651185E+02   -0.59498E+00   -0.44210E+01  9264   0.627E+01    0.486E+00
DAV:   2    -0.283429226176E+02    0.70343E-01   -0.43775E+00 10552   0.140E+01    0.200E+00
DAV:   3    -0.283049401124E+02    0.37983E-01   -0.26122E-01 13416   0.333E+00    0.130E+00
DAV:   4    -0.282956920337E+02    0.92481E-02   -0.40001E-02 12992   0.151E+00    0.855E-01
DAV:   5    -0.282952744783E+02    0.41756E-03   -0.10010E-02 13912   0.599E-01    0.354E-01
DAV:   6    -0.282955609382E+02   -0.28646E-03   -0.20850E-03 12684   0.316E-01    0.958E-02
DAV:   7    -0.282955756359E+02   -0.14698E-04   -0.13651E-04  6372   0.117E-01
  12 F= -.28295576E+02 E0= -.28294724E+02  d E =-.477324E+00
       N       E                     dE             d eps       ncg     rms          rms(c)
DAV:   1    -0.289926478792E+02   -0.69709E+00   -0.12492E+02  9264   0.104E+02    0.901E+00
DAV:   2    -0.288581134562E+02    0.13453E+00   -0.11103E+01 10420   0.233E+01    0.324E+00
DAV:   3    -0.287340497239E+02    0.12406E+00   -0.71101E-01 14112   0.520E+00    0.189E+00
DAV:   4    -0.287113522687E+02    0.22697E-01   -0.93341E-02 11888   0.237E+00    0.136E+00
DAV:   5    -0.287120633790E+02   -0.71111E-03   -0.23034E-02 14856   0.858E-01    0.608E-01
DAV:   6    -0.287125947673E+02   -0.53139E-03   -0.66491E-03 11976   0.607E-01    0.168E-01
DAV:   7    -0.287126443465E+02   -0.49579E-04   -0.71249E-04 11296   0.220E-01
  13 F= -.28712644E+02 E0= -.28712089E+02  d E =-.894393E+00
       N       E                     dE             d eps       ncg     rms          rms(c)
DAV:   1    -0.292383130395E+02   -0.52572E+00   -0.40060E+01  9264   0.640E+01    0.484E+00
DAV:   2    -0.293079243076E+02   -0.69611E-01   -0.50821E+00  9536   0.151E+01    0.189E+00
DAV:   3    -0.292597189363E+02    0.48205E-01   -0.25904E-01 11400   0.341E+00    0.965E-01
DAV:   4    -0.292477501184E+02    0.11969E-01   -0.60293E-02 14008   0.175E+00    0.852E-01
DAV:   5    -0.292485271011E+02   -0.77698E-03   -0.49691E-03 11008   0.403E-01    0.461E-01
DAV:   6    -0.292488801670E+02   -0.35307E-03   -0.37530E-03 15232   0.443E-01    0.953E-02
DAV:   7    -0.292489104535E+02   -0.30286E-04   -0.22046E-04  7196   0.104E-01
  14 F= -.29248910E+02 E0= -.29248527E+02  d E =-.536266E+00
       N       E                     dE             d eps       ncg     rms          rms(c)
DAV:   1    -0.296575682886E+02   -0.40869E+00   -0.11995E+02  9284   0.108E+02    0.907E+00
DAV:   2    -0.298282253308E+02   -0.17066E+00   -0.13618E+01  9408   0.250E+01    0.354E+00
DAV:   3    -0.296670572276E+02    0.16117E+00   -0.74407E-01 12632   0.569E+00    0.152E+00
DAV:   4    -0.296345874089E+02    0.32470E-01   -0.16846E-01 13924   0.294E+00    0.139E+00
DAV:   5    -0.296373228606E+02   -0.27355E-02   -0.13880E-02 10324   0.717E-01    0.761E-01
DAV:   6    -0.296386676241E+02   -0.13448E-02   -0.94733E-03 15128   0.649E-01    0.141E-01
DAV:   7    -0.296387185008E+02   -0.50877E-04   -0.50901E-04  9476   0.155E-01
  15 F= -.29638719E+02 E0= -.29638493E+02  d E =-.926074E+00
       N       E                     dE             d eps       ncg     rms          rms(c)
DAV:   1    -0.296567716584E+02   -0.18104E-01   -0.53423E+00  9280   0.234E+01    0.178E+00
DAV:   2    -0.296587599081E+02   -0.19882E-02   -0.62433E-01  9676   0.565E+00    0.818E-01
DAV:   3    -0.296509023290E+02    0.78576E-02   -0.38388E-02 12136   0.130E+00    0.447E-01
DAV:   4    -0.296494500796E+02    0.14522E-02   -0.71414E-03 13904   0.562E-01    0.349E-01
DAV:   5    -0.296495572827E+02   -0.10720E-03   -0.65351E-04 10484   0.147E-01    0.192E-01
DAV:   6    -0.296495719274E+02   -0.14645E-04   -0.59637E-04 13824   0.164E-01
  16 F= -.29649572E+02 E0= -.29649361E+02  d E =-.936928E+00
       N       E                     dE             d eps       ncg     rms          rms(c)
DAV:   1    -0.302205445757E+02   -0.57099E+00   -0.34479E+01  8712   0.523E+01    0.433E+00
DAV:   2    -0.301846416947E+02    0.35903E-01   -0.25980E+00  9420   0.122E+01    0.233E+00
DAV:   3    -0.301257283801E+02    0.58913E-01   -0.18476E-01 12760   0.276E+00    0.893E-01
DAV:   4    -0.301164645476E+02    0.92638E-02   -0.40129E-02 12744   0.143E+00    0.628E-01
DAV:   5    -0.301167757172E+02   -0.31117E-03   -0.44944E-03 11972   0.450E-01    0.296E-01
DAV:   6    -0.301168559985E+02   -0.80281E-04   -0.14541E-03 13152   0.288E-01    0.780E-02
DAV:   7    -0.301168437697E+02    0.12229E-04   -0.10773E-04  6120   0.873E-02
  17 F= -.30116844E+02 E0= -.30116506E+02  d E =-.467272E+00
       N       E                     dE             d eps       ncg     rms          rms(c)
DAV:   1    -0.312452960389E+02   -0.11284E+01   -0.21782E+02  9264   0.129E+02    0.109E+01
DAV:   2    -0.309795781663E+02    0.26572E+00   -0.14671E+01  9140   0.281E+01    0.535E+00
DAV:   3    -0.305729524749E+02    0.40663E+00   -0.13495E+00 13892   0.776E+00    0.191E+00
DAV:   4    -0.305363939671E+02    0.36559E-01   -0.19495E-01 11508   0.298E+00    0.156E+00
DAV:   5    -0.305387805558E+02   -0.23866E-02   -0.26809E-02 12196   0.119E+00    0.530E-01
DAV:   6    -0.305387726983E+02    0.78574E-05   -0.79042E-03 12056   0.660E-01    0.212E-01
DAV:   7    -0.305386884101E+02    0.84288E-04   -0.77783E-04 10848   0.222E-01
  18 F= -.30538688E+02 E0= -.30538770E+02  d E =-.889116E+00
       N       E                     dE             d eps       ncg     rms          rms(c)
DAV:   1    -0.306472241758E+02   -0.10845E+00   -0.18213E+01  9208   0.380E+01    0.319E+00
DAV:   2    -0.306038420128E+02    0.43382E-01   -0.12975E+00  9644   0.883E+00    0.158E+00
DAV:   3    -0.305662266547E+02    0.37615E-01   -0.12534E-01 13192   0.215E+00    0.807E-01
DAV:   4    -0.305621244875E+02    0.41022E-02   -0.19552E-02 12840   0.965E-01    0.602E-01
DAV:   5    -0.305622333093E+02   -0.10882E-03   -0.17430E-03 11536   0.288E-01    0.303E-01
DAV:   6    -0.305621523618E+02    0.80948E-04   -0.12703E-03 13060   0.251E-01    0.555E-02
DAV:   7    -0.305621539489E+02   -0.15871E-05   -0.64394E-05  5836   0.684E-02
  19 F= -.30562154E+02 E0= -.30562166E+02  d E =-.912582E+00
       N       E                     dE             d eps       ncg     rms          rms(c)
DAV:   1    -0.309338809204E+02   -0.37173E+00   -0.28583E+01  9264   0.543E+01    0.281E+00
DAV:   2    -0.310354907901E+02   -0.10161E+00   -0.26547E+00  8700   0.114E+01    0.161E+00
DAV:   3    -0.309921211417E+02    0.43370E-01   -0.12872E-01 12424   0.258E+00    0.698E-01
DAV:   4    -0.309858907824E+02    0.62304E-02   -0.27679E-02 12312   0.116E+00    0.434E-01
DAV:   5    -0.309858682186E+02    0.22564E-04   -0.23537E-03 10472   0.393E-01    0.180E-01
DAV:   6    -0.309858762024E+02   -0.79838E-05   -0.59813E-04 11448   0.178E-01
  20 F= -.30985876E+02 E0= -.30985946E+02  d E =-.423722E+00
       N       E                     dE             d eps       ncg     rms          rms(c)
DAV:   1    -0.310766223674E+02   -0.90754E-01   -0.68247E+01  9264   0.832E+01    0.453E+00
DAV:   2    -0.313153326758E+02   -0.23871E+00   -0.61394E+00  8660   0.175E+01    0.242E+00
DAV:   3    -0.312077766386E+02    0.10756E+00   -0.35065E-01 12624   0.442E+00    0.103E+00
DAV:   4    -0.311978833001E+02    0.98933E-02   -0.56891E-02 11768   0.164E+00    0.676E-01
DAV:   5    -0.311976386638E+02    0.24464E-03   -0.51485E-03 11176   0.595E-01    0.269E-01
DAV:   6    -0.311976729699E+02   -0.34306E-04   -0.13782E-03 13300   0.281E-01    0.784E-02
DAV:   7    -0.311976591269E+02    0.13843E-04   -0.10043E-04  6052   0.103E-01
  21 F= -.31197659E+02 E0= -.31197791E+02  d E =-.635505E+00
       N       E                     dE             d eps       ncg     rms          rms(c)
DAV:   1    -0.312025850270E+02   -0.49121E-02   -0.36670E+00  9268   0.195E+01    0.103E+00
DAV:   2    -0.312167244199E+02   -0.14139E-01   -0.36160E-01  8580   0.421E+00    0.596E-01
DAV:   3    -0.312110293899E+02    0.56950E-02   -0.17267E-02 11056   0.921E-01    0.279E-01
DAV:   4    -0.312102547131E+02    0.77468E-03   -0.42383E-03 13348   0.437E-01    0.159E-01
DAV:   5    -0.312102512225E+02    0.34905E-05   -0.27206E-04  7652   0.123E-01
  22 F= -.31210251E+02 E0= -.31210361E+02  d E =-.648097E+00
       N       E                     dE             d eps       ncg     rms          rms(c)
DAV:   1    -0.313263494987E+02   -0.11609E+00   -0.40737E+00  9264   0.215E+01    0.870E-01
DAV:   2    -0.313594289493E+02   -0.33079E-01   -0.42821E-01  8020   0.434E+00    0.498E-01
DAV:   3    -0.313585428824E+02    0.88607E-03   -0.10226E-02 11900   0.757E-01    0.292E-01
DAV:   4    -0.313580055067E+02    0.53738E-03   -0.18542E-03 11672   0.326E-01    0.927E-02
DAV:   5    -0.313580190532E+02   -0.13546E-04   -0.11355E-04  6580   0.863E-02
  23 F= -.31358019E+02 E0= -.31358149E+02  d E =-.147768E+00
       N       E                     dE             d eps       ncg     rms          rms(c)
DAV:   1    -0.313262588739E+02    0.31747E-01   -0.26044E+01  9264   0.539E+01    0.223E+00
DAV:   2    -0.315424514439E+02   -0.21619E+00   -0.27318E+00  7844   0.109E+01    0.117E+00
DAV:   3    -0.315367538415E+02    0.56976E-02   -0.62512E-02 11960   0.189E+00    0.677E-01
DAV:   4    -0.315333936158E+02    0.33602E-02   -0.10930E-02 11604   0.777E-01    0.231E-01
DAV:   5    -0.315334771838E+02   -0.83568E-04   -0.87985E-04 11140   0.216E-01
  24 F= -.31533477E+02 E0= -.31533511E+02  d E =-.323226E+00
       N       E                     dE             d eps       ncg     rms          rms(c)
DAV:   1    -0.315314567822E+02    0.19368E-02   -0.93904E-01  9264   0.103E+01    0.416E-01
DAV:   2    -0.315392529502E+02   -0.77962E-02   -0.99232E-02  8228   0.209E+00    0.216E-01
DAV:   3    -0.315390395021E+02    0.21345E-03   -0.22206E-03 12096   0.356E-01    0.116E-01
DAV:   4    -0.315389248882E+02    0.11461E-03   -0.35091E-04  7640   0.157E-01    0.400E-02
DAV:   5    -0.315389309933E+02   -0.61051E-05   -0.54413E-05  6052   0.794E-02
  25 F= -.31538931E+02 E0= -.31538930E+02  d E =-.328680E+00
       N       E                     dE             d eps       ncg     rms          rms(c)
DAV:   1    -0.316325827334E+02   -0.93658E-01   -0.24230E+00  7720   0.126E+01    0.147E+00
DAV:   2    -0.316276206502E+02    0.49621E-02   -0.17977E-01 10888   0.377E+00    0.601E-01
DAV:   3    -0.316244199050E+02    0.32007E-02   -0.12639E-02 12168   0.700E-01    0.323E-01
DAV:   4    -0.316237021752E+02    0.71773E-03   -0.43536E-03 14088   0.480E-01    0.264E-01
DAV:   5    -0.316238336240E+02   -0.13145E-03   -0.27502E-04  8016   0.103E-01    0.141E-01
DAV:   6    -0.316239014552E+02   -0.67831E-04   -0.27232E-04 10364   0.121E-01
  26 F= -.31623901E+02 E0= -.31623856E+02  d E =-.849705E-01
       N       E                     dE             d eps       ncg     rms          rms(c)
DAV:   1    -0.317929566543E+02   -0.16912E+00   -0.21438E+01  7720   0.376E+01    0.477E+00
DAV:   2    -0.317479885077E+02    0.44968E-01   -0.15504E+00 10904   0.111E+01    0.169E+00
DAV:   3    -0.317217537104E+02    0.26235E-01   -0.10293E-01 14512   0.198E+00    0.891E-01
DAV:   4    -0.317169571410E+02    0.47966E-02   -0.26656E-02 14280   0.123E+00    0.741E-01
DAV:   5    -0.317179311028E+02   -0.97396E-03   -0.19904E-03 10056   0.268E-01    0.398E-01
DAV:   6    -0.317185672541E+02   -0.63615E-03   -0.23427E-03 14096   0.316E-01    0.829E-02
DAV:   7    -0.317185744485E+02   -0.71944E-05   -0.84533E-05  6020   0.729E-02
  27 F= -.31718574E+02 E0= -.31718409E+02  d E =-.179643E+00
       N       E                     dE             d eps       ncg     rms          rms(c)
DAV:   1    -0.317605234047E+02   -0.41956E-01   -0.22798E+00  9272   0.154E+01    0.598E-01
DAV:   2    -0.317742632296E+02   -0.13740E-01   -0.18505E-01  8908   0.310E+00    0.337E-01
DAV:   3    -0.317740057479E+02    0.25748E-03   -0.48665E-03 12436   0.562E-01    0.203E-01
DAV:   4    -0.317738164992E+02    0.18925E-03   -0.79682E-04 11152   0.236E-01    0.447E-02
DAV:   5    -0.317738219233E+02   -0.54241E-05   -0.58715E-05  6152   0.674E-02
  28 F= -.31773822E+02 E0= -.31773659E+02  d E =-.552475E-01
       N       E                     dE             d eps       ncg     rms          rms(c)
DAV:   1    -0.317395555176E+02    0.34261E-01   -0.15866E+01  9264   0.404E+01    0.162E+00
DAV:   2    -0.318354045837E+02   -0.95849E-01   -0.12838E+00  8936   0.816E+00    0.902E-01
DAV:   3    -0.318336066783E+02    0.17979E-02   -0.32856E-02 12212   0.146E+00    0.545E-01
DAV:   4    -0.318323636517E+02    0.12430E-02   -0.55165E-03 12324   0.609E-01    0.118E-01
DAV:   5    -0.318324004220E+02   -0.36770E-04   -0.38230E-04  8956   0.161E-01
  29 F= -.31832400E+02 E0= -.31832247E+02  d E =-.113826E+00
       N       E                     dE             d eps       ncg     rms          rms(c)
DAV:   1    -0.318801316082E+02   -0.47768E-01   -0.68060E-01  7892   0.727E+00    0.146E+00
DAV:   2    -0.318668496610E+02    0.13282E-01   -0.11032E-01 10900   0.285E+00    0.465E-01
DAV:   3    -0.318636428052E+02    0.32069E-02   -0.10166E-02 11756   0.671E-01    0.262E-01
DAV:   4    -0.318626417760E+02    0.10010E-02   -0.33732E-03 14304   0.404E-01    0.280E-01
DAV:   5    -0.318627524442E+02   -0.11067E-03   -0.24632E-04  7764   0.897E-02    0.129E-01
DAV:   6    -0.318627308182E+02    0.21626E-04   -0.46922E-04 11576   0.141E-01
  30 F= -.31862731E+02 E0= -.31862622E+02  d E =-.303304E-01
       N       E                     dE             d eps       ncg     rms          rms(c)
DAV:   1    -0.320692887132E+02   -0.20654E+00   -0.60748E+00  7784   0.217E+01    0.415E+00
DAV:   2    -0.319508770342E+02    0.11841E+00   -0.10357E+00 11120   0.862E+00    0.144E+00
DAV:   3    -0.319211952114E+02    0.29682E-01   -0.10114E-01 12120   0.206E+00    0.809E-01
DAV:   4    -0.319119421052E+02    0.92531E-02   -0.28205E-02 14272   0.116E+00    0.869E-01
DAV:   5    -0.319129588260E+02   -0.10167E-02   -0.24767E-03 11204   0.256E-01    0.369E-01
DAV:   6    -0.319127363605E+02    0.22247E-03   -0.45903E-03 14752   0.429E-01    0.101E-01
DAV:   7    -0.319127474476E+02   -0.11087E-04   -0.15758E-04  7704   0.821E-02
  31 F= -.31912747E+02 E0= -.31912785E+02  d E =-.803470E-01
       N       E                     dE             d eps       ncg     rms          rms(c)
DAV:   1    -0.319357316357E+02   -0.22995E-01   -0.74541E-01  7784   0.756E+00    0.144E+00
DAV:   2    -0.319210765182E+02    0.14655E-01   -0.12342E-01 10904   0.296E+00    0.500E-01
DAV:   3    -0.319174911677E+02    0.35854E-02   -0.11842E-02 11888   0.718E-01    0.266E-01
DAV:   4    -0.319163117810E+02    0.11794E-02   -0.38037E-03 14276   0.428E-01    0.288E-01
DAV:   5    -0.319164335399E+02   -0.12176E-03   -0.28993E-04  7996   0.950E-02    0.133E-01
DAV:   6    -0.319164070932E+02    0.26447E-04   -0.52440E-04 12044   0.148E-01
  32 F= -.31916407E+02 E0= -.31916494E+02  d E =-.840067E-01
       N       E                     dE             d eps       ncg     rms          rms(c)
DAV:   1    -0.319363169171E+02   -0.19883E-01   -0.19285E+00  9264   0.142E+01    0.842E-01
DAV:   2    -0.319453994816E+02   -0.90826E-02   -0.20366E-01  8496   0.289E+00    0.437E-01
DAV:   3    -0.319432900126E+02    0.21095E-02   -0.72523E-03 12216   0.698E-01    0.199E-01
DAV:   4    -0.319427501111E+02    0.53990E-03   -0.14675E-03 12544   0.307E-01    0.534E-02
DAV:   5    -0.319427533152E+02   -0.32041E-05   -0.86152E-05  6128   0.772E-02
  33 F= -.31942753E+02 E0= -.31942867E+02  d E =-.263462E-01
       N       E                     dE             d eps       ncg     rms          rms(c)
DAV:   1    -0.319448554643E+02   -0.21054E-02   -0.13326E+00  9264   0.118E+01    0.696E-01
DAV:   2    -0.319510387901E+02   -0.61833E-02   -0.14031E-01  8548   0.241E+00    0.364E-01
DAV:   3    -0.319495808035E+02    0.14580E-02   -0.50753E-03 12216   0.585E-01    0.166E-01
DAV:   4    -0.319492167768E+02    0.36403E-03   -0.10008E-03 12316   0.253E-01    0.457E-02
DAV:   5    -0.319492196507E+02   -0.28739E-05   -0.60686E-05  6096   0.642E-02
  34 F= -.31949220E+02 E0= -.31949344E+02  d E =-.328126E-01
       N       E                     dE             d eps       ncg     rms          rms(c)
DAV:   1    -0.319795502199E+02   -0.30333E-01   -0.13056E+00  7720   0.901E+00    0.968E-01
DAV:   2    -0.319716352799E+02    0.79149E-02   -0.73396E-02 11224   0.233E+00    0.382E-01
DAV:   3    -0.319683834993E+02    0.32518E-02   -0.70096E-03 11364   0.584E-01    0.222E-01
DAV:   4    -0.319677022420E+02    0.68126E-03   -0.25088E-03 13624   0.391E-01    0.133E-01
DAV:   5    -0.319677161538E+02   -0.13912E-04   -0.14424E-04  6512   0.874E-02
  35 F= -.31967716E+02 E0= -.31967851E+02  d E =-.184965E-01
       N       E                     dE             d eps       ncg     rms          rms(c)
DAV:   1    -0.320268264068E+02   -0.59124E-01   -0.51900E+00  7720   0.180E+01    0.199E+00
DAV:   2    -0.319952217715E+02    0.31605E-01   -0.29052E-01 11144   0.466E+00    0.752E-01
DAV:   3    -0.319821944248E+02    0.13027E-01   -0.27464E-02 11368   0.117E+00    0.430E-01
DAV:   4    -0.319795208870E+02    0.26735E-02   -0.10139E-02 13796   0.788E-01    0.269E-01
DAV:   5    -0.319795834691E+02   -0.62582E-04   -0.67573E-04  9996   0.177E-01
  36 F= -.31979583E+02 E0= -.31979765E+02  d E =-.303638E-01
       N       E                     dE             d eps       ncg     rms          rms(c)
DAV:   1    -0.319934928636E+02   -0.13972E-01   -0.19532E+00  7720   0.123E+01    0.825E-01
DAV:   2    -0.319960510984E+02   -0.25582E-02   -0.13817E-01  9672   0.307E+00    0.454E-01
DAV:   3    -0.319940113119E+02    0.20398E-02   -0.80349E-03 12416   0.610E-01    0.204E-01
DAV:   4    -0.319936001765E+02    0.41114E-03   -0.10571E-03 11284   0.240E-01    0.106E-01
DAV:   5    -0.319935695927E+02    0.30584E-04   -0.12021E-04  6184   0.966E-02
  37 F= -.31993570E+02 E0= -.31993813E+02  d E =-.139861E-01
       N       E                     dE             d eps       ncg     rms          rms(c)
DAV:   1    -0.319981174906E+02   -0.45173E-02   -0.21066E+00  7720   0.128E+01    0.850E-01
DAV:   2    -0.320010205812E+02   -0.29031E-02   -0.14811E-01  9696   0.317E+00    0.471E-01
DAV:   3    -0.319988797204E+02    0.21409E-02   -0.85360E-03 12524   0.625E-01    0.211E-01
DAV:   4    -0.319984576082E+02    0.42211E-03   -0.11115E-03 11212   0.246E-01    0.111E-01
DAV:   5    -0.319984254574E+02    0.32151E-04   -0.12966E-04  6208   0.101E-01
  38 F= -.31998425E+02 E0= -.31998709E+02  d E =-.188420E-01
       N       E                     dE             d eps       ncg     rms          rms(c)
DAV:   1    -0.320112177178E+02   -0.12760E-01   -0.28713E+00  8456   0.166E+01    0.135E+00
DAV:   2    -0.320136502157E+02   -0.24325E-02   -0.28226E-01  9820   0.430E+00    0.531E-01
DAV:   3    -0.320108685189E+02    0.27817E-02   -0.13489E-02 12260   0.838E-01    0.305E-01
DAV:   4    -0.320098779895E+02    0.99053E-03   -0.38138E-03 13976   0.435E-01    0.240E-01
DAV:   5    -0.320099251121E+02   -0.47123E-04   -0.29843E-04  8264   0.117E-01
  39 F= -.32009925E+02 E0= -.32010079E+02  d E =-.114997E-01
       N       E                     dE             d eps       ncg     rms          rms(c)
DAV:   1    -0.320098484744E+02    0.29515E-04   -0.27437E-01  8856   0.510E+00    0.421E-01
DAV:   2    -0.320099669433E+02   -0.11847E-03   -0.25727E-02  9816   0.127E+00    0.166E-01
DAV:   3    -0.320097021385E+02    0.26480E-03   -0.12997E-03 13064   0.255E-01    0.924E-02
DAV:   4    -0.320096152542E+02    0.86884E-04   -0.28797E-04  8140   0.131E-01
  40 F= -.32009615E+02 E0= -.32009727E+02  d E =-.111898E-01
       N       E                     dE             d eps       ncg     rms          rms(c)
DAV:   1    -0.320229362323E+02   -0.13234E-01   -0.19911E+00  9264   0.128E+01    0.118E+00
DAV:   2    -0.320182348390E+02    0.47014E-02   -0.18205E-01  9888   0.338E+00    0.501E-01
DAV:   3    -0.320163598039E+02    0.18750E-02   -0.11021E-02 14016   0.700E-01    0.270E-01
DAV:   4    -0.320157888297E+02    0.57097E-03   -0.20979E-03 14116   0.313E-01    0.250E-01
DAV:   5    -0.320158548821E+02   -0.66052E-04   -0.28830E-04  8632   0.952E-02
  41 F= -.32015855E+02 E0= -.32015892E+02  d E =-.623963E-02
       N       E                     dE             d eps       ncg     rms          rms(c)
DAV:   1    -0.320170549881E+02   -0.12662E-02   -0.58645E-01  9264   0.695E+00    0.646E-01
DAV:   2    -0.320156708192E+02    0.13842E-02   -0.53396E-02  9852   0.183E+00    0.277E-01
DAV:   3    -0.320151381503E+02    0.53267E-03   -0.32062E-03 14004   0.378E-01    0.144E-01
DAV:   4    -0.320149784317E+02    0.15972E-03   -0.58936E-04 12016   0.171E-01    0.131E-01
DAV:   5    -0.320149954879E+02   -0.17056E-04   -0.91311E-05  6644   0.565E-02
  42 F= -.32014995E+02 E0= -.32014999E+02  d E =-.538023E-02
       N       E                     dE             d eps       ncg     rms          rms(c)
DAV:   1    -0.320168042532E+02   -0.18258E-02   -0.26187E-01  9264   0.463E+00    0.436E-01
DAV:   2    -0.320162376883E+02    0.56656E-03   -0.23900E-02  9928   0.121E+00    0.181E-01
DAV:   3    -0.320159917591E+02    0.24593E-03   -0.14267E-03 13856   0.254E-01    0.941E-02
DAV:   4    -0.320159040654E+02    0.87694E-04   -0.25657E-04  9184   0.119E-01
  43 F= -.32015904E+02 E0= -.32015930E+02  d E =-.628881E-02
       N       E                     dE             d eps       ncg     rms          rms(c)
DAV:   1    -0.320296997078E+02   -0.13708E-01   -0.12558E+00  7720   0.798E+00    0.667E-01
DAV:   2    -0.320284060561E+02    0.12937E-02   -0.44546E-02 11360   0.178E+00    0.282E-01
DAV:   3    -0.320273745393E+02    0.10315E-02   -0.27862E-03 12072   0.348E-01    0.147E-01
DAV:   4    -0.320271832254E+02    0.19131E-03   -0.82101E-04 11056   0.212E-01    0.587E-02
DAV:   5    -0.320271872772E+02   -0.40518E-05   -0.50524E-05  5940   0.599E-02
  44 F= -.32027187E+02 E0= -.32027169E+02  d E =-.112832E-01
       N       E                     dE             d eps       ncg     rms          rms(c)
DAV:   1    -0.320430120971E+02   -0.15829E-01   -0.40421E+00  7720   0.144E+01    0.124E+00
DAV:   2    -0.320387171924E+02    0.42949E-02   -0.14464E-01 11392   0.320E+00    0.520E-01
DAV:   3    -0.320353301855E+02    0.33870E-02   -0.88184E-03 11968   0.628E-01    0.265E-01
DAV:   4    -0.320346978450E+02    0.63234E-03   -0.26852E-03 12064   0.382E-01    0.992E-02
DAV:   5    -0.320347057942E+02   -0.79492E-05   -0.15923E-04  6916   0.980E-02
  45 F= -.32034706E+02 E0= -.32034649E+02  d E =-.188017E-01
       N       E                     dE             d eps       ncg     rms          rms(c)
DAV:   1    -0.320401009444E+02   -0.54031E-02   -0.67747E-01  9264   0.736E+00    0.353E-01
DAV:   2    -0.320425046950E+02   -0.24038E-02   -0.39911E-02  9256   0.140E+00    0.168E-01
DAV:   3    -0.320423259060E+02    0.17879E-03   -0.13445E-03 12520   0.279E-01    0.951E-02
DAV:   4    -0.320422586177E+02    0.67288E-04   -0.21043E-04  6860   0.126E-01
  46 F= -.32042259E+02 E0= -.32042142E+02  d E =-.755282E-02
       N       E                     dE             d eps       ncg     rms          rms(c)
DAV:   1    -0.320372262212E+02    0.50997E-02   -0.60682E+00  8992   0.221E+01    0.110E+00
DAV:   2    -0.320596770005E+02   -0.22451E-01   -0.36772E-01  9252   0.433E+00    0.524E-01
DAV:   3    -0.320580160722E+02    0.16609E-02   -0.12133E-02 12004   0.834E-01    0.293E-01
DAV:   4    -0.320574356888E+02    0.58038E-03   -0.26529E-03 13192   0.393E-01    0.864E-02
DAV:   5    -0.320574488722E+02   -0.13183E-04   -0.19954E-04  7712   0.110E-01
  47 F= -.32057449E+02 E0= -.32057213E+02  d E =-.227431E-01
       N       E                     dE             d eps       ncg     rms          rms(c)
DAV:   1    -0.319852519578E+02    0.72184E-01   -0.24151E+01  9256   0.440E+01    0.230E+00
DAV:   2    -0.320701214505E+02   -0.84869E-01   -0.14167E+00  9260   0.839E+00    0.105E+00
DAV:   3    -0.320632734554E+02    0.68480E-02   -0.47142E-02 12124   0.164E+00    0.567E-01
DAV:   4    -0.320611447870E+02    0.21287E-02   -0.10171E-02 13236   0.753E-01    0.179E-01
DAV:   5    -0.320611981065E+02   -0.53319E-04   -0.78063E-04  9652   0.216E-01
  48 F= -.32061198E+02 E0= -.32060889E+02  d E =-.264923E-01
       N       E                     dE             d eps       ncg     rms          rms(c)
DAV:   1    -0.321112122745E+02   -0.50067E-01   -0.92427E+00  8872   0.306E+01    0.275E+00
DAV:   2    -0.321213177890E+02   -0.10106E-01   -0.97393E-01 10312   0.776E+00    0.119E+00
DAV:   3    -0.321090930193E+02    0.12225E-01   -0.55890E-02 13968   0.154E+00    0.682E-01
DAV:   4    -0.321066610867E+02    0.24319E-02   -0.11943E-02 13904   0.768E-01    0.593E-01
DAV:   5    -0.321071273853E+02   -0.46630E-03   -0.13624E-03 11016   0.219E-01    0.237E-01
DAV:   6    -0.321072266331E+02   -0.99248E-04   -0.94023E-04 14508   0.190E-01
  49 F= -.32107227E+02 E0= -.32106943E+02  d E =-.460285E-01
       N       E                     dE             d eps       ncg     rms          rms(c)
DAV:   1    -0.321104278415E+02   -0.33005E-02   -0.39868E-01  9280   0.630E+00    0.607E-01
DAV:   2    -0.321107443199E+02   -0.31648E-03   -0.39557E-02 10152   0.153E+00    0.242E-01
DAV:   3    -0.321102062005E+02    0.53812E-03   -0.24749E-03 14480   0.316E-01    0.117E-01
DAV:   4    -0.321101086571E+02    0.97543E-04   -0.43707E-04 11140   0.157E-01
  50 F= -.32110109E+02 E0= -.32109796E+02  d E =-.489106E-01
       N       E                     dE             d eps       ncg     rms          rms(c)
DAV:   1    -0.321177149957E+02   -0.75088E-02   -0.44400E+00  7728   0.208E+01    0.121E+00
DAV:   2    -0.321453839005E+02   -0.27669E-01   -0.42669E-01  9256   0.505E+00    0.666E-01
DAV:   3    -0.321429276625E+02    0.24562E-02   -0.13580E-02 11880   0.899E-01    0.351E-01
DAV:   4    -0.321421896391E+02    0.73802E-03   -0.41736E-03 12424   0.491E-01    0.769E-02
DAV:   5    -0.321422018527E+02   -0.12214E-04   -0.43174E-04  8876   0.164E-01
  51 F= -.32142202E+02 E0= -.32141871E+02  d E =-.320932E-01
       N       E                     dE             d eps       ncg     rms          rms(c)
DAV:   1    -0.321408793371E+02    0.13103E-02   -0.92902E-01  7872   0.949E+00    0.555E-01
DAV:   2    -0.321466067404E+02   -0.57274E-02   -0.88587E-02  9256   0.228E+00    0.305E-01
DAV:   3    -0.321460919251E+02    0.51482E-03   -0.28672E-03 12056   0.413E-01    0.159E-01
DAV:   4    -0.321459412054E+02    0.15072E-03   -0.83530E-04 10600   0.221E-01    0.340E-02
DAV:   5    -0.321459445991E+02   -0.33937E-05   -0.96595E-05  6192   0.816E-02
  52 F= -.32145945E+02 E0= -.32145609E+02  d E =-.358359E-01
       N       E                     dE             d eps       ncg     rms          rms(c)
DAV:   1    -0.321731981557E+02   -0.27257E-01   -0.21835E+00  9264   0.145E+01    0.134E+00
DAV:   2    -0.321722215199E+02    0.97664E-03   -0.23256E-01 10512   0.369E+00    0.471E-01
DAV:   3    -0.321701549063E+02    0.20666E-02   -0.12003E-02 13944   0.757E-01    0.249E-01
DAV:   4    -0.321695836031E+02    0.57130E-03   -0.24609E-03 14100   0.342E-01    0.234E-01
DAV:   5    -0.321696676903E+02   -0.84087E-04   -0.20546E-04  8240   0.891E-02
  53 F= -.32169668E+02 E0= -.32169376E+02  d E =-.237231E-01
       N       E                     dE             d eps       ncg     rms          rms(c)
DAV:   1    -0.322327777056E+02   -0.63194E-01   -0.19463E+01  9216   0.433E+01    0.442E+00
DAV:   2    -0.322228520341E+02    0.99257E-02   -0.20713E+00 10596   0.111E+01    0.135E+00
DAV:   3    -0.322046338905E+02    0.18218E-01   -0.10810E-01 13908   0.227E+00    0.740E-01
DAV:   4    -0.321998416091E+02    0.47923E-02   -0.22349E-02 14164   0.108E+00    0.690E-01
DAV:   5    -0.322005615200E+02   -0.71991E-03   -0.19636E-03 10992   0.278E-01    0.363E-01
DAV:   6    -0.322009754012E+02   -0.41388E-03   -0.14518E-03 15208   0.225E-01    0.754E-02
DAV:   7    -0.322009747226E+02    0.67863E-06   -0.60922E-05  5912   0.677E-02
  54 F= -.32200975E+02 E0= -.32200851E+02  d E =-.550301E-01
       N       E                     dE             d eps       ncg     rms          rms(c)
DAV:   1    -0.322154452921E+02   -0.14470E-01   -0.46199E-01  7824   0.590E+00    0.607E-01
DAV:   2    -0.322143416796E+02    0.11036E-02   -0.40161E-02 10880   0.175E+00    0.198E-01
DAV:   3    -0.322139228516E+02    0.41883E-03   -0.19985E-03 11052   0.337E-01    0.125E-01
DAV:   4    -0.322137806125E+02    0.14224E-03   -0.69984E-04 13208   0.175E-01    0.103E-01
DAV:   5    -0.322137986420E+02   -0.18029E-04   -0.39451E-05  5712   0.422E-02
  55 F= -.32213799E+02 E0= -.32213685E+02  d E =-.128239E-01
       N       E                     dE             d eps       ncg     rms          rms(c)
DAV:   1    -0.322728473450E+02   -0.59067E-01   -0.41340E+00  7720   0.177E+01    0.191E+00
DAV:   2    -0.322588864036E+02    0.13961E-01   -0.38568E-01 10936   0.539E+00    0.625E-01
DAV:   3    -0.322547009510E+02    0.41855E-02   -0.23615E-02 11320   0.116E+00    0.378E-01
DAV:   4    -0.322533688689E+02    0.13321E-02   -0.68543E-03 14100   0.566E-01    0.317E-01
DAV:   5    -0.322535091993E+02   -0.14033E-03   -0.40754E-04  9668   0.125E-01    0.183E-01
DAV:   6    -0.322535873106E+02   -0.78111E-04   -0.23140E-04  8936   0.109E-01
  56 F= -.32253587E+02 E0= -.32253350E+02  d E =-.526126E-01
       N       E                     dE             d eps       ncg     rms          rms(c)
DAV:   1    -0.324080060157E+02   -0.15450E+00   -0.16391E+01  7720   0.354E+01    0.401E+00
DAV:   2    -0.323492456145E+02    0.58760E-01   -0.14251E+00 10880   0.105E+01    0.116E+00
DAV:   3    -0.323332948174E+02    0.15951E-01   -0.74869E-02 10740   0.201E+00    0.749E-01
DAV:   4    -0.323289597472E+02    0.43351E-02   -0.24655E-02 14460   0.100E+00    0.633E-01
DAV:   5    -0.323295394173E+02   -0.57967E-03   -0.16436E-03 10188   0.257E-01    0.289E-01
DAV:   6    -0.323296959135E+02   -0.15650E-03   -0.12170E-03 15068   0.235E-01    0.732E-02
DAV:   7    -0.323296854930E+02    0.10420E-04   -0.57436E-05  5776   0.705E-02
  57 F= -.32329685E+02 E0= -.32329316E+02  d E =-.128711E+00
       N       E                     dE             d eps       ncg     rms          rms(c)
DAV:   1    -0.324871138858E+02   -0.15742E+00   -0.65048E+01  8600   0.710E+01    0.889E+00
DAV:   2    -0.323226923967E+02    0.16442E+00   -0.46678E+00 10872   0.184E+01    0.216E+00
DAV:   3    -0.322526941639E+02    0.69998E-01   -0.30191E-01 11984   0.378E+00    0.143E+00
DAV:   4    -0.322420265673E+02    0.10668E-01   -0.71947E-02 14684   0.176E+00    0.126E+00
DAV:   5    -0.322443462685E+02   -0.23197E-02   -0.67190E-03 11844   0.545E-01    0.352E-01
DAV:   6    -0.322446284530E+02   -0.28218E-03   -0.21226E-03 14984   0.289E-01    0.130E-01
DAV:   7    -0.322446057786E+02    0.22674E-04   -0.18658E-04  7520   0.964E-02
  58 F= -.32244606E+02 E0= -.32244779E+02  d E =-.436311E-01
       N       E                     dE             d eps       ncg     rms          rms(c)
DAV:   1    -0.325017451630E+02   -0.25712E+00   -0.37323E+01  7720   0.548E+01    0.559E+00
DAV:   2    -0.324002348461E+02    0.10151E+00   -0.35819E+00 10868   0.162E+01    0.172E+00
DAV:   3    -0.323594428413E+02    0.40792E-01   -0.19630E-01 11168   0.348E+00    0.140E+00
DAV:   4    -0.323460639946E+02    0.13379E-01   -0.57500E-02 14192   0.150E+00    0.114E+00
DAV:   5    -0.323468696714E+02   -0.80568E-03   -0.42033E-03 10632   0.414E-01    0.668E-01
DAV:   6    -0.323472867942E+02   -0.41712E-03   -0.25119E-03 14436   0.303E-01    0.119E-01
DAV:   7    -0.323472706063E+02    0.16188E-04   -0.11586E-04  6316   0.791E-02
  59 F= -.32347271E+02 E0= -.32347149E+02  d E =-.146296E+00
       N       E                     dE             d eps       ncg     rms          rms(c)
DAV:   1    -0.325325809541E+02   -0.18529E+00   -0.55822E+00  9264   0.251E+01    0.251E+00
DAV:   2    -0.325281184839E+02    0.44625E-02   -0.69860E-01  9960   0.662E+00    0.891E-01
DAV:   3    -0.325222235433E+02    0.58949E-02   -0.36591E-02 13952   0.131E+00    0.618E-01
DAV:   4    -0.325210899869E+02    0.11336E-02   -0.64609E-03 14104   0.505E-01    0.547E-01
DAV:   5    -0.325214744642E+02   -0.38448E-03   -0.82607E-04 11056   0.182E-01    0.184E-01
DAV:   6    -0.325215351227E+02   -0.60658E-04   -0.53665E-04 12564   0.123E-01
  60 F= -.32521535E+02 E0= -.32521711E+02  d E =-.174265E+00
