Automatically generated mesh
     578
Reciprocal lattice
    0.00000000000000    0.00000000000000    0.00000000000000             1
    0.06666666666667    0.00000000000000    0.00000000000000             2
    0.13333333333333    0.00000000000000    0.00000000000000             2
    0.20000000000000    0.00000000000000    0.00000000000000             2
    0.26666666666667    0.00000000000000    0.00000000000000             2
    0.33333333333333    0.00000000000000    0.00000000000000             2
    0.40000000000000    0.00000000000000    0.00000000000000             2
    0.46666666666667    0.00000000000000    0.00000000000000             2
    0.00000000000000    0.09090909090909    0.00000000000000             2
    0.06666666666667    0.09090909090909    0.00000000000000             2
    0.13333333333333    0.09090909090909    0.00000000000000             2
    0.20000000000000    0.09090909090909    0.00000000000000             2
    0.26666666666667    0.09090909090909    0.00000000000000             2
    0.33333333333333    0.09090909090909    0.00000000000000             2
    0.40000000000000    0.09090909090909    0.00000000000000             2
    0.46666666666667    0.09090909090909    0.00000000000000             2
   -0.46666666666667    0.09090909090909    0.00000000000000             2
   -0.40000000000000    0.09090909090909    0.00000000000000             2
   -0.33333333333333    0.09090909090909    0.00000000000000             2
   -0.26666666666667    0.09090909090909    0.00000000000000             2
   -0.20000000000000    0.09090909090909    0.00000000000000             2
   -0.13333333333333    0.09090909090909    0.00000000000000             2
   -0.06666666666667    0.09090909090909    0.00000000000000             2
    0.00000000000000    0.18181818181818    0.00000000000000             2
    0.06666666666667    0.18181818181818    0.00000000000000             2
    0.13333333333333    0.18181818181818    0.00000000000000             2
    0.20000000000000    0.18181818181818    0.00000000000000             2
    0.26666666666667    0.18181818181818    0.00000000000000             2
    0.33333333333333    0.18181818181818    0.00000000000000             2
    0.40000000000000    0.18181818181818    0.00000000000000             2
    0.46666666666667    0.18181818181818    0.00000000000000             2
   -0.46666666666667    0.18181818181818    0.00000000000000             2
   -0.40000000000000    0.18181818181818    0.00000000000000             2
   -0.33333333333333    0.18181818181818    0.00000000000000             2
   -0.26666666666667    0.18181818181818    0.00000000000000             2
   -0.20000000000000    0.18181818181818    0.00000000000000             2
   -0.13333333333333    0.18181818181818    0.00000000000000             2
   -0.06666666666667    0.18181818181818    0.00000000000000             2
    0.00000000000000    0.27272727272727    0.00000000000000             2
    0.06666666666667    0.27272727272727    0.00000000000000             2
    0.13333333333333    0.27272727272727    0.00000000000000             2
    0.20000000000000    0.27272727272727    0.00000000000000             2
    0.26666666666667    0.27272727272727    0.00000000000000             2
    0.33333333333333    0.27272727272727    0.00000000000000             2
    0.40000000000000    0.27272727272727    0.00000000000000             2
    0.46666666666667    0.27272727272727    0.00000000000000             2
   -0.46666666666667    0.27272727272727    0.00000000000000             2
   -0.40000000000000    0.27272727272727    0.00000000000000             2
   -0.33333333333333    0.27272727272727    0.00000000000000             2
   -0.26666666666667    0.27272727272727    0.00000000000000             2
   -0.20000000000000    0.27272727272727    0.00000000000000             2
   -0.13333333333333    0.27272727272727    0.00000000000000             2
   -0.06666666666667    0.27272727272727    0.00000000000000             2
    0.00000000000000    0.36363636363636    0.00000000000000             2
    0.06666666666667    0.36363636363636    0.00000000000000             2
    0.13333333333333    0.36363636363636    0.00000000000000             2
    0.20000000000000    0.36363636363636    0.00000000000000             2
    0.26666666666667    0.36363636363636    0.00000000000000             2
    0.33333333333333    0.36363636363636    0.00000000000000             2
    0.40000000000000    0.36363636363636    0.00000000000000             2
    0.46666666666667    0.36363636363636    0.00000000000000             2
   -0.46666666666667    0.36363636363636    0.00000000000000             2
   -0.40000000000000    0.36363636363636    0.00000000000000             2
   -0.33333333333333    0.36363636363636    0.00000000000000             2
   -0.26666666666667    0.36363636363636    0.00000000000000             2
   -0.20000000000000    0.36363636363636    0.00000000000000             2
   -0.13333333333333    0.36363636363636    0.00000000000000             2
   -0.06666666666667    0.36363636363636    0.00000000000000             2
    0.00000000000000    0.45454545454546    0.00000000000000             2
    0.06666666666667    0.45454545454545    0.00000000000000             2
    0.13333333333333    0.45454545454545    0.00000000000000             2
    0.20000000000000    0.45454545454546    0.00000000000000             2
    0.26666666666667    0.45454545454546    0.00000000000000             2
    0.33333333333333    0.45454545454546    0.00000000000000             2
    0.40000000000000    0.45454545454545    0.00000000000000             2
    0.46666666666667    0.45454545454545    0.00000000000000             2
   -0.46666666666667    0.45454545454546    0.00000000000000             2
   -0.40000000000000    0.45454545454545    0.00000000000000             2
   -0.33333333333333    0.45454545454545    0.00000000000000             2
   -0.26666666666667    0.45454545454546    0.00000000000000             2
   -0.20000000000000    0.45454545454545    0.00000000000000             2
   -0.13333333333333    0.45454545454546    0.00000000000000             2
   -0.06666666666667    0.45454545454545    0.00000000000000             2
    0.00000000000000    0.00000000000000    0.14285714285714             2
    0.06666666666667    0.00000000000000    0.14285714285714             2
    0.13333333333333    0.00000000000000    0.14285714285714             2
    0.20000000000000    0.00000000000000    0.14285714285714             2
    0.26666666666667    0.00000000000000    0.14285714285714             2
    0.33333333333333    0.00000000000000    0.14285714285714             2
    0.40000000000000    0.00000000000000    0.14285714285714             2
    0.46666666666667    0.00000000000000    0.14285714285714             2
   -0.46666666666667    0.00000000000000    0.14285714285714             2
   -0.40000000000000    0.00000000000000    0.14285714285714             2
   -0.33333333333333    0.00000000000000    0.14285714285714             2
   -0.26666666666667    0.00000000000000    0.14285714285714             2
   -0.20000000000000    0.00000000000000    0.14285714285714             2
   -0.13333333333333    0.00000000000000    0.14285714285714             2
   -0.06666666666667    0.00000000000000    0.14285714285714             2
    0.00000000000000    0.09090909090909    0.14285714285714             2
    0.06666666666667    0.09090909090909    0.14285714285714             2
    0.13333333333333    0.09090909090909    0.14285714285714             2
    0.20000000000000    0.09090909090909    0.14285714285714             2
    0.26666666666667    0.09090909090909    0.14285714285714             2
    0.33333333333333    0.09090909090909    0.14285714285714             2
    0.40000000000000    0.09090909090909    0.14285714285714             2
    0.46666666666667    0.09090909090909    0.14285714285714             2
   -0.46666666666667    0.09090909090909    0.14285714285714             2
   -0.40000000000000    0.09090909090909    0.14285714285714             2
   -0.33333333333333    0.09090909090909    0.14285714285714             2
   -0.26666666666667    0.09090909090909    0.14285714285714             2
   -0.20000000000000    0.09090909090909    0.14285714285714             2
   -0.13333333333333    0.09090909090909    0.14285714285714             2
   -0.06666666666667    0.09090909090909    0.14285714285714             2
    0.00000000000000    0.18181818181818    0.14285714285714             2
    0.06666666666667    0.18181818181818    0.14285714285714             2
    0.13333333333333    0.18181818181818    0.14285714285714             2
    0.20000000000000    0.18181818181818    0.14285714285714             2
    0.26666666666667    0.18181818181818    0.14285714285714             2
    0.33333333333333    0.18181818181818    0.14285714285714             2
    0.40000000000000    0.18181818181818    0.14285714285714             2
    0.46666666666667    0.18181818181818    0.14285714285714             2
   -0.46666666666667    0.18181818181818    0.14285714285714             2
   -0.40000000000000    0.18181818181818    0.14285714285714             2
   -0.33333333333333    0.18181818181818    0.14285714285714             2
   -0.26666666666667    0.18181818181818    0.14285714285714             2
   -0.20000000000000    0.18181818181818    0.14285714285714             2
   -0.13333333333333    0.18181818181818    0.14285714285714             2
   -0.06666666666667    0.18181818181818    0.14285714285714             2
    0.00000000000000    0.27272727272727    0.14285714285714             2
    0.06666666666667    0.27272727272727    0.14285714285714             2
    0.13333333333333    0.27272727272727    0.14285714285714             2
    0.20000000000000    0.27272727272727    0.14285714285714             2
    0.26666666666667    0.27272727272727    0.14285714285714             2
    0.33333333333333    0.27272727272727    0.14285714285714             2
    0.40000000000000    0.27272727272727    0.14285714285714             2
    0.46666666666667    0.27272727272727    0.14285714285714             2
   -0.46666666666667    0.27272727272727    0.14285714285714             2
   -0.40000000000000    0.27272727272727    0.14285714285714             2
   -0.33333333333333    0.27272727272727    0.14285714285714             2
   -0.26666666666667    0.27272727272727    0.14285714285714             2
   -0.20000000000000    0.27272727272727    0.14285714285714             2
   -0.13333333333333    0.27272727272727    0.14285714285714             2
   -0.06666666666667    0.27272727272727    0.14285714285714             2
    0.00000000000000    0.36363636363636    0.14285714285714             2
    0.06666666666667    0.36363636363636    0.14285714285714             2
    0.13333333333333    0.36363636363636    0.14285714285714             2
    0.20000000000000    0.36363636363636    0.14285714285714             2
    0.26666666666667    0.36363636363636    0.14285714285714             2
    0.33333333333333    0.36363636363636    0.14285714285714             2
    0.40000000000000    0.36363636363636    0.14285714285714             2
    0.46666666666667    0.36363636363636    0.14285714285714             2
   -0.46666666666667    0.36363636363636    0.14285714285714             2
   -0.40000000000000    0.36363636363636    0.14285714285714             2
   -0.33333333333333    0.36363636363636    0.14285714285714             2
   -0.26666666666667    0.36363636363636    0.14285714285714             2
   -0.20000000000000    0.36363636363636    0.14285714285714             2
   -0.13333333333333    0.36363636363636    0.14285714285714             2
   -0.06666666666667    0.36363636363636    0.14285714285714             2
    0.00000000000000    0.45454545454545    0.14285714285714             2
    0.06666666666667    0.45454545454545    0.14285714285714             2
    0.13333333333333    0.45454545454546    0.14285714285714             2
    0.20000000000000    0.45454545454545    0.14285714285714             2
    0.26666666666667    0.45454545454546    0.14285714285714             2
    0.33333333333333    0.45454545454545    0.14285714285714             2
    0.40000000000000    0.45454545454545    0.14285714285714             2
    0.46666666666667    0.45454545454545    0.14285714285714             2
   -0.46666666666667    0.45454545454545    0.14285714285714             2
   -0.40000000000000    0.45454545454545    0.14285714285714             2
   -0.33333333333333    0.45454545454546    0.14285714285714             2
   -0.26666666666667    0.45454545454545    0.14285714285714             2
   -0.20000000000000    0.45454545454545    0.14285714285714             2
   -0.13333333333333    0.45454545454545    0.14285714285714             2
   -0.06666666666667    0.45454545454545    0.14285714285714             2
    0.00000000000000   -0.45454545454545    0.14285714285714             2
    0.06666666666667   -0.45454545454545    0.14285714285714             2
    0.13333333333333   -0.45454545454545    0.14285714285714             2
    0.20000000000000   -0.45454545454545    0.14285714285714             2
    0.26666666666667   -0.45454545454545    0.14285714285714             2
    0.33333333333333   -0.45454545454545    0.14285714285714             2
    0.40000000000000   -0.45454545454545    0.14285714285714             2
    0.46666666666667   -0.45454545454545    0.14285714285714             2
   -0.46666666666667   -0.45454545454545    0.14285714285714             2
   -0.40000000000000   -0.45454545454545    0.14285714285714             2
   -0.33333333333333   -0.45454545454545    0.14285714285714             2
   -0.26666666666667   -0.45454545454545    0.14285714285714             2
   -0.20000000000000   -0.45454545454545    0.14285714285714             2
   -0.13333333333333   -0.45454545454545    0.14285714285714             2
   -0.06666666666667   -0.45454545454545    0.14285714285714             2
    0.00000000000000   -0.36363636363636    0.14285714285714             2
    0.06666666666667   -0.36363636363636    0.14285714285714             2
    0.13333333333333   -0.36363636363636    0.14285714285714             2
    0.20000000000000   -0.36363636363636    0.14285714285714             2
    0.26666666666667   -0.36363636363636    0.14285714285714             2
    0.33333333333333   -0.36363636363636    0.14285714285714             2
    0.40000000000000   -0.36363636363636    0.14285714285714             2
    0.46666666666667   -0.36363636363636    0.14285714285714             2
   -0.46666666666667   -0.36363636363636    0.14285714285714             2
   -0.40000000000000   -0.36363636363636    0.14285714285714             2
   -0.33333333333333   -0.36363636363636    0.14285714285714             2
   -0.26666666666667   -0.36363636363636    0.14285714285714             2
   -0.20000000000000   -0.36363636363636    0.14285714285714             2
   -0.13333333333333   -0.36363636363636    0.14285714285714             2
   -0.06666666666667   -0.36363636363636    0.14285714285714             2
    0.00000000000000   -0.27272727272727    0.14285714285714             2
    0.06666666666667   -0.27272727272727    0.14285714285714             2
    0.13333333333333   -0.27272727272727    0.14285714285714             2
    0.20000000000000   -0.27272727272727    0.14285714285714             2
    0.26666666666667   -0.27272727272727    0.14285714285714             2
    0.33333333333333   -0.27272727272727    0.14285714285714             2
    0.40000000000000   -0.27272727272727    0.14285714285714             2
    0.46666666666667   -0.27272727272727    0.14285714285714             2
   -0.46666666666667   -0.27272727272727    0.14285714285714             2
   -0.40000000000000   -0.27272727272727    0.14285714285714             2
   -0.33333333333333   -0.27272727272727    0.14285714285714             2
   -0.26666666666667   -0.27272727272727    0.14285714285714             2
   -0.20000000000000   -0.27272727272727    0.14285714285714             2
   -0.13333333333333   -0.27272727272727    0.14285714285714             2
   -0.06666666666667   -0.27272727272727    0.14285714285714             2
    0.00000000000000   -0.18181818181818    0.14285714285714             2
    0.06666666666667   -0.18181818181818    0.14285714285714             2
    0.13333333333333   -0.18181818181818    0.14285714285714             2
    0.20000000000000   -0.18181818181818    0.14285714285714             2
    0.26666666666667   -0.18181818181818    0.14285714285714             2
    0.33333333333333   -0.18181818181818    0.14285714285714             2
    0.40000000000000   -0.18181818181818    0.14285714285714             2
    0.46666666666667   -0.18181818181818    0.14285714285714             2
   -0.46666666666667   -0.18181818181818    0.14285714285714             2
   -0.40000000000000   -0.18181818181818    0.14285714285714             2
   -0.33333333333333   -0.18181818181818    0.14285714285714             2
   -0.26666666666667   -0.18181818181818    0.14285714285714             2
   -0.20000000000000   -0.18181818181818    0.14285714285714             2
   -0.13333333333333   -0.18181818181818    0.14285714285714             2
   -0.06666666666667   -0.18181818181818    0.14285714285714             2
    0.00000000000000   -0.09090909090909    0.14285714285714             2
    0.06666666666667   -0.09090909090909    0.14285714285714             2
    0.13333333333333   -0.09090909090909    0.14285714285714             2
    0.20000000000000   -0.09090909090909    0.14285714285714             2
    0.26666666666667   -0.09090909090909    0.14285714285714             2
    0.33333333333333   -0.09090909090909    0.14285714285714             2
    0.40000000000000   -0.09090909090909    0.14285714285714             2
    0.46666666666667   -0.09090909090909    0.14285714285714             2
   -0.46666666666667   -0.09090909090909    0.14285714285714             2
   -0.40000000000000   -0.09090909090909    0.14285714285714             2
   -0.33333333333333   -0.09090909090909    0.14285714285714             2
   -0.26666666666667   -0.09090909090909    0.14285714285714             2
   -0.20000000000000   -0.09090909090909    0.14285714285714             2
   -0.13333333333333   -0.09090909090909    0.14285714285714             2
   -0.06666666666667   -0.09090909090909    0.14285714285714             2
    0.00000000000000    0.00000000000000    0.28571428571429             2
    0.06666666666667    0.00000000000000    0.28571428571429             2
    0.13333333333333    0.00000000000000    0.28571428571429             2
    0.20000000000000    0.00000000000000    0.28571428571429             2
    0.26666666666667    0.00000000000000    0.28571428571429             2
    0.33333333333333    0.00000000000000    0.28571428571429             2
    0.40000000000000    0.00000000000000    0.28571428571429             2
    0.46666666666667    0.00000000000000    0.28571428571429             2
   -0.46666666666667    0.00000000000000    0.28571428571429             2
   -0.40000000000000    0.00000000000000    0.28571428571429             2
   -0.33333333333333    0.00000000000000    0.28571428571429             2
   -0.26666666666667    0.00000000000000    0.28571428571429             2
   -0.20000000000000    0.00000000000000    0.28571428571429             2
   -0.13333333333333    0.00000000000000    0.28571428571429             2
   -0.06666666666667    0.00000000000000    0.28571428571429             2
    0.00000000000000    0.09090909090909    0.28571428571429             2
    0.06666666666667    0.09090909090909    0.28571428571429             2
    0.13333333333333    0.09090909090909    0.28571428571429             2
    0.20000000000000    0.09090909090909    0.28571428571429             2
    0.26666666666667    0.09090909090909    0.28571428571429             2
    0.33333333333333    0.09090909090909    0.28571428571429             2
    0.40000000000000    0.09090909090909    0.28571428571429             2
    0.46666666666667    0.09090909090909    0.28571428571429             2
   -0.46666666666667    0.09090909090909    0.28571428571429             2
   -0.40000000000000    0.09090909090909    0.28571428571429             2
   -0.33333333333333    0.09090909090909    0.28571428571429             2
   -0.26666666666667    0.09090909090909    0.28571428571429             2
   -0.20000000000000    0.09090909090909    0.28571428571429             2
   -0.13333333333333    0.09090909090909    0.28571428571429             2
   -0.06666666666667    0.09090909090909    0.28571428571429             2
    0.00000000000000    0.18181818181818    0.28571428571429             2
    0.06666666666667    0.18181818181818    0.28571428571429             2
    0.13333333333333    0.18181818181818    0.28571428571429             2
    0.20000000000000    0.18181818181818    0.28571428571429             2
    0.26666666666667    0.18181818181818    0.28571428571429             2
    0.33333333333333    0.18181818181818    0.28571428571429             2
    0.40000000000000    0.18181818181818    0.28571428571429             2
    0.46666666666667    0.18181818181818    0.28571428571429             2
   -0.46666666666667    0.18181818181818    0.28571428571429             2
   -0.40000000000000    0.18181818181818    0.28571428571429             2
   -0.33333333333333    0.18181818181818    0.28571428571429             2
   -0.26666666666667    0.18181818181818    0.28571428571429             2
   -0.20000000000000    0.18181818181818    0.28571428571429             2
   -0.13333333333333    0.18181818181818    0.28571428571429             2
   -0.06666666666667    0.18181818181818    0.28571428571429             2
    0.00000000000000    0.27272727272727    0.28571428571429             2
    0.06666666666667    0.27272727272727    0.28571428571429             2
    0.13333333333333    0.27272727272727    0.28571428571429             2
    0.20000000000000    0.27272727272727    0.28571428571429             2
    0.26666666666667    0.27272727272727    0.28571428571429             2
    0.33333333333333    0.27272727272727    0.28571428571429             2
    0.40000000000000    0.27272727272727    0.28571428571429             2
    0.46666666666667    0.27272727272727    0.28571428571429             2
   -0.46666666666667    0.27272727272727    0.28571428571429             2
   -0.40000000000000    0.27272727272727    0.28571428571429             2
   -0.33333333333333    0.27272727272727    0.28571428571429             2
   -0.26666666666667    0.27272727272727    0.28571428571429             2
   -0.20000000000000    0.27272727272727    0.28571428571429             2
   -0.13333333333333    0.27272727272727    0.28571428571429             2
   -0.06666666666667    0.27272727272727    0.28571428571429             2
    0.00000000000000    0.36363636363636    0.28571428571429             2
    0.06666666666667    0.36363636363636    0.28571428571429             2
    0.13333333333333    0.36363636363636    0.28571428571429             2
    0.20000000000000    0.36363636363636    0.28571428571429             2
    0.26666666666667    0.36363636363636    0.28571428571429             2
    0.33333333333333    0.36363636363636    0.28571428571429             2
    0.40000000000000    0.36363636363636    0.28571428571429             2
    0.46666666666667    0.36363636363636    0.28571428571429             2
   -0.46666666666667    0.36363636363636    0.28571428571429             2
   -0.40000000000000    0.36363636363636    0.28571428571429             2
   -0.33333333333333    0.36363636363636    0.28571428571429             2
   -0.26666666666667    0.36363636363636    0.28571428571429             2
   -0.20000000000000    0.36363636363636    0.28571428571429             2
   -0.13333333333333    0.36363636363636    0.28571428571429             2
   -0.06666666666667    0.36363636363636    0.28571428571429             2
    0.00000000000000    0.45454545454546    0.28571428571429             2
    0.06666666666667    0.45454545454546    0.28571428571429             2
    0.13333333333333    0.45454545454546    0.28571428571429             2
    0.20000000000000    0.45454545454546    0.28571428571429             2
    0.26666666666667    0.45454545454546    0.28571428571429             2
    0.33333333333333    0.45454545454545    0.28571428571429             2
    0.40000000000000    0.45454545454546    0.28571428571429             2
    0.46666666666667    0.45454545454545    0.28571428571429             2
   -0.46666666666667    0.45454545454546    0.28571428571429             2
   -0.40000000000000    0.45454545454545    0.28571428571429             2
   -0.33333333333333    0.45454545454546    0.28571428571429             2
   -0.26666666666667    0.45454545454545    0.28571428571429             2
   -0.20000000000000    0.45454545454545    0.28571428571429             2
   -0.13333333333333    0.45454545454545    0.28571428571429             2
   -0.06666666666667    0.45454545454545    0.28571428571429             2
    0.00000000000000   -0.45454545454545    0.28571428571429             2
    0.06666666666667   -0.45454545454545    0.28571428571429             2
    0.13333333333333   -0.45454545454545    0.28571428571429             2
    0.20000000000000   -0.45454545454545    0.28571428571429             2
    0.26666666666667   -0.45454545454545    0.28571428571429             2
    0.33333333333333   -0.45454545454545    0.28571428571429             2
    0.40000000000000   -0.45454545454545    0.28571428571429             2
    0.46666666666667   -0.45454545454545    0.28571428571429             2
   -0.46666666666667   -0.45454545454545    0.28571428571429             2
   -0.40000000000000   -0.45454545454545    0.28571428571429             2
   -0.33333333333333   -0.45454545454545    0.28571428571429             2
   -0.26666666666667   -0.45454545454545    0.28571428571429             2
   -0.20000000000000   -0.45454545454545    0.28571428571429             2
   -0.13333333333333   -0.45454545454545    0.28571428571429             2
   -0.06666666666667   -0.45454545454545    0.28571428571429             2
    0.00000000000000   -0.36363636363636    0.28571428571429             2
    0.06666666666667   -0.36363636363636    0.28571428571429             2
    0.13333333333333   -0.36363636363636    0.28571428571429             2
    0.20000000000000   -0.36363636363636    0.28571428571429             2
    0.26666666666667   -0.36363636363636    0.28571428571429             2
    0.33333333333333   -0.36363636363636    0.28571428571429             2
    0.40000000000000   -0.36363636363636    0.28571428571429             2
    0.46666666666667   -0.36363636363636    0.28571428571429             2
   -0.46666666666667   -0.36363636363636    0.28571428571429             2
   -0.40000000000000   -0.36363636363636    0.28571428571429             2
   -0.33333333333333   -0.36363636363636    0.28571428571429             2
   -0.26666666666667   -0.36363636363636    0.28571428571429             2
   -0.20000000000000   -0.36363636363636    0.28571428571429             2
   -0.13333333333333   -0.36363636363636    0.28571428571429             2
   -0.06666666666667   -0.36363636363636    0.28571428571429             2
    0.00000000000000   -0.27272727272727    0.28571428571429             2
    0.06666666666667   -0.27272727272727    0.28571428571429             2
    0.13333333333333   -0.27272727272727    0.28571428571429             2
    0.20000000000000   -0.27272727272727    0.28571428571429             2
    0.26666666666667   -0.27272727272727    0.28571428571429             2
    0.33333333333333   -0.27272727272727    0.28571428571429             2
    0.40000000000000   -0.27272727272727    0.28571428571429             2
    0.46666666666667   -0.27272727272727    0.28571428571429             2
   -0.46666666666667   -0.27272727272727    0.28571428571429             2
   -0.40000000000000   -0.27272727272727    0.28571428571429             2
   -0.33333333333333   -0.27272727272727    0.28571428571429             2
   -0.26666666666667   -0.27272727272727    0.28571428571429             2
   -0.20000000000000   -0.27272727272727    0.28571428571429             2
   -0.13333333333333   -0.27272727272727    0.28571428571429             2
   -0.06666666666667   -0.27272727272727    0.28571428571429             2
    0.00000000000000   -0.18181818181818    0.28571428571429             2
    0.06666666666667   -0.18181818181818    0.28571428571429             2
    0.13333333333333   -0.18181818181818    0.28571428571429             2
    0.20000000000000   -0.18181818181818    0.28571428571429             2
    0.26666666666667   -0.18181818181818    0.28571428571429             2
    0.33333333333333   -0.18181818181818    0.28571428571429             2
    0.40000000000000   -0.18181818181818    0.28571428571429             2
    0.46666666666667   -0.18181818181818    0.28571428571429             2
   -0.46666666666667   -0.18181818181818    0.28571428571429             2
   -0.40000000000000   -0.18181818181818    0.28571428571429             2
   -0.33333333333333   -0.18181818181818    0.28571428571429             2
   -0.26666666666667   -0.18181818181818    0.28571428571429             2
   -0.20000000000000   -0.18181818181818    0.28571428571429             2
   -0.13333333333333   -0.18181818181818    0.28571428571429             2
   -0.06666666666667   -0.18181818181818    0.28571428571429             2
    0.00000000000000   -0.09090909090909    0.28571428571429             2