 running on   16 total cores
 distrk:  each k-point on   16 cores,    1 groups
 distr:  one band on    1 cores,   16 groups
 using from now: INCAR     
 vasp.5.4.4.18Apr17-6-g9f103f2a35 (build Nov 01 2019 12:17:22) complex          
  
 POSCAR found type information on POSCAR  Sr Nb H 
 POSCAR found :  3 types and      18 ions

 ----------------------------------------------------------------------------- 
|                                                                             |
|           W    W    AA    RRRRR   N    N  II  N    N   GGGG   !!!           |
|           W    W   A  A   R    R  NN   N  II  NN   N  G    G  !!!           |
|           W    W  A    A  R    R  N N  N  II  N N  N  G       !!!           |
|           W WW W  AAAAAA  RRRRR   N  N N  II  N  N N  G  GGG   !            |
|           WW  WW  A    A  R   R   N   NN  II  N   NN  G    G                |
|           W    W  A    A  R    R  N    N  II  N    N   GGGG   !!!           |
|                                                                             |
|      For optimal performance we recommend to set                            |
|        NCORE= 4 - approx SQRT( number of cores)                             |
|      NCORE specifies how many cores store one orbital (NPAR=cpu/NCORE).     |
|      This setting can  greatly improve the performance of VASP for DFT.     |
|      The default,   NCORE=1            might be grossly inefficient         |
|      on modern multi-core architectures or massively parallel machines.     |
|      Do your own testing !!!!                                               |
|      Unfortunately you need to use the default for GW and RPA calculations. |
|      (for HF NCORE is supported but not extensively tested yet)             |
|                                                                             |
 ----------------------------------------------------------------------------- 

 LDA part: xc-table for Pade appr. of Perdew
 POSCAR, INCAR and KPOINTS ok, starting setup
 FFT: planning ...
 WAVECAR not read
 entering main loop
       N       E                     dE             d eps       ncg     rms          rms(c)
DAV:   1     0.170604877697E+03    0.17060E+03   -0.16092E+04  8064   0.681E+02
DAV:   2    -0.509825406222E+02   -0.22159E+03   -0.20778E+03  8432   0.201E+02
DAV:   3    -0.633382367457E+02   -0.12356E+02   -0.12226E+02 13856   0.467E+01
DAV:   4    -0.634800435909E+02   -0.14181E+00   -0.14164E+00  9600   0.352E+00
DAV:   5    -0.634828014505E+02   -0.27579E-02   -0.27576E-02 12288   0.463E-01    0.373E+01
RMM:   6    -0.659088874616E+02   -0.24261E+01   -0.39072E+00  8407   0.598E+00    0.186E+01
RMM:   7    -0.650997599774E+02    0.80913E+00   -0.15658E+00  8499   0.540E+00    0.765E+00
RMM:   8    -0.652631624079E+02   -0.16340E+00   -0.33631E-01  8168   0.312E+00    0.434E+00
RMM:   9    -0.652839720288E+02   -0.20810E-01   -0.53412E-02  8279   0.135E+00    0.183E+00
RMM:  10    -0.652933732174E+02   -0.94012E-02   -0.20698E-02  8073   0.778E-01    0.104E+00
RMM:  11    -0.652961366708E+02   -0.27635E-02   -0.47023E-03  7594   0.444E-01    0.399E-01
RMM:  12    -0.652971680988E+02   -0.10314E-02   -0.13482E-03  6947   0.223E-01    0.142E-01
RMM:  13    -0.652974552179E+02   -0.28712E-03   -0.45457E-04  5780   0.124E-01
   1 F= -.65297455E+02 E0= -.65297455E+02  d E =-.652975E+02  mag=     0.9987
 curvature:   0.00 expect dE= 0.000E+00 dE for cont linesearch  0.000E+00
 trial: gam= 0.00000 g(F)=  0.317E-01 g(S)=  0.140E+00 ort = 0.000E+00 (trialstep = 0.100E+01)
 search vector abs. value=  0.172E+00
 bond charge predicted
       N       E                     dE             d eps       ncg     rms          rms(c)
DAV:   1    -0.656419303371E+02   -0.34476E+00   -0.55444E+00 11600   0.122E+01    0.531E+00
RMM:   2    -0.654706683894E+02    0.17126E+00   -0.42687E-01  8340   0.258E+00    0.149E+00
RMM:   3    -0.654388683080E+02    0.31800E-01   -0.41309E-02  8736   0.119E+00    0.956E-01
RMM:   4    -0.654344402601E+02    0.44280E-02   -0.21216E-02  8970   0.531E-01    0.949E-01
RMM:   5    -0.654351142122E+02   -0.67395E-03   -0.68076E-03  8049   0.355E-01
   2 F= -.65435114E+02 E0= -.65435114E+02  d E =-.137659E+00  mag=     1.0000
 ZBRENT: can't locate minimum, use default step
 trial-energy change:   -0.137659  1 .order   -0.151570   -0.171523   -0.131616
 step:   4.0000(harm=  4.2980)  dis= 0.08292  next Energy=   -65.666059 (dE=-0.369E+00)
 bond charge predicted
       N       E                     dE             d eps       ncg     rms          rms(c)
DAV:   1    -0.672044967501E+02   -0.17701E+01   -0.49132E+01  8592   0.363E+01    0.156E+01
RMM:   2    -0.658868823523E+02    0.13176E+01   -0.46731E+00  8336   0.820E+00    0.427E+00
RMM:   3    -0.655460170724E+02    0.34087E+00   -0.38617E-01  8469   0.411E+00    0.337E+00
RMM:   4    -0.655044261209E+02    0.41591E-01   -0.12443E-01  9040   0.151E+00    0.334E+00
RMM:   5    -0.654996673270E+02    0.47588E-02   -0.37747E-02  9353   0.872E-01    0.241E+00
RMM:   6    -0.655010987364E+02   -0.14314E-02   -0.56435E-02  9626   0.740E-01    0.365E-01
RMM:   7    -0.655031108973E+02   -0.20122E-02   -0.20178E-02  9456   0.539E-01    0.200E-01
RMM:   8    -0.655041986388E+02   -0.10877E-02   -0.72216E-03  8243   0.222E-01    0.214E-01
RMM:   9    -0.655043703036E+02   -0.17166E-03   -0.13397E-03  6808   0.143E-01
   3 F= -.65504370E+02 E0= -.65504370E+02  d E =-.206915E+00  mag=     1.0000
 curvature:  -2.13 expect dE=-0.821E+00 dE for cont linesearch -0.385E-01
 ZBRENT: interpolating
 opt :   3.1087  next Energy=   -65.529163 (dE=-0.232E+00)
 bond charge predicted
       N       E                     dE             d eps       ncg     rms          rms(c)
DAV:   1    -0.656949615756E+02   -0.19076E+00   -0.42248E+00 10480   0.103E+01    0.427E+00
RMM:   2    -0.655621806220E+02    0.13278E+00   -0.30878E-01  8263   0.219E+00    0.137E+00
RMM:   3    -0.655390287005E+02    0.23152E-01   -0.32143E-02  8819   0.103E+00    0.687E-01
RMM:   4    -0.655347035511E+02    0.43251E-02   -0.20065E-02  8825   0.458E-01    0.608E-01
RMM:   5    -0.655350161388E+02   -0.31259E-03   -0.40745E-03  7763   0.327E-01
   4 F= -.65535016E+02 E0= -.65535016E+02  d E =-.237561E+00  mag=     1.0000
 curvature:  -1.37 expect dE=-0.283E+00 dE for cont linesearch -0.541E-02
 trial: gam= 1.35369 g(F)=  0.196E+00 g(S)=  0.100E-01 ort =-0.260E-01 (trialstep = 0.542E+00)
 search vector abs. value=  0.450E+00
 bond charge predicted
       N       E                     dE             d eps       ncg     rms          rms(c)
DAV:   1    -0.657314116765E+02   -0.19671E+00   -0.32153E+00 10992   0.871E+00    0.382E+00
RMM:   2    -0.656243475543E+02    0.10706E+00   -0.32711E-01  8303   0.226E+00    0.116E+00
RMM:   3    -0.656047860399E+02    0.19562E-01   -0.27324E-02  8372   0.117E+00    0.690E-01
RMM:   4    -0.656011137143E+02    0.36723E-02   -0.61883E-03  7980   0.408E-01    0.675E-01
RMM:   5    -0.656005401556E+02    0.57356E-03   -0.16905E-03  7015   0.268E-01
   5 F= -.65600540E+02 E0= -.65600540E+02  d E =-.655240E-01  mag=     1.0000
 trial-energy change:   -0.065524  1 .order   -0.066136   -0.092647   -0.039625
 step:   0.9466(harm=  0.9466)  dis= 0.02284  next Energy=   -65.615959 (dE=-0.809E-01)
 bond charge predicted
       N       E                     dE             d eps       ncg     rms          rms(c)
DAV:   1    -0.656697927650E+02   -0.68679E-01   -0.16719E+00  8464   0.632E+00    0.288E+00
RMM:   2    -0.656095746086E+02    0.60218E-01   -0.15832E-01  8212   0.164E+00    0.848E-01
RMM:   3    -0.655994497037E+02    0.10125E-01   -0.14909E-02  8350   0.863E-01    0.519E-01
RMM:   4    -0.655977916448E+02    0.16581E-02   -0.53238E-03  7790   0.336E-01    0.545E-01
RMM:   5    -0.655978971246E+02   -0.10548E-03   -0.21492E-03  6940   0.231E-01
   6 F= -.65597897E+02 E0= -.65597897E+02  d E =-.628810E-01  mag=     1.0000
 curvature:  -1.25 expect dE=-0.197E+00 dE for cont linesearch -0.425E-02
 trial: gam= 0.00000 g(F)=  0.148E+00 g(S)=  0.104E-01 ort =-0.392E-01 (trialstep = 0.623E+00)
 search vector abs. value=  0.158E+00
 bond charge predicted
       N       E                     dE             d eps       ncg     rms          rms(c)
DAV:   1    -0.656384991284E+02   -0.40707E-01   -0.13774E+00  8400   0.535E+00    0.760E-01
RMM:   2    -0.656449359518E+02   -0.64368E-02   -0.10506E-01  8073   0.120E+00    0.518E-01
RMM:   3    -0.656430472627E+02    0.18887E-02   -0.63747E-03  7947   0.812E-01    0.210E-01
RMM:   4    -0.656430330516E+02    0.14211E-04   -0.11199E-03  6688   0.140E-01
   7 F= -.65643033E+02 E0= -.65643033E+02  d E =-.451359E-01  mag=     1.0000
 trial-energy change:   -0.045136  1 .order   -0.044188   -0.098636    0.010260
 step:   0.5640(harm=  0.5640)  dis= 0.01498  next Energy=   -65.642568 (dE=-0.447E-01)
 bond charge predicted
       N       E                     dE             d eps       ncg     rms          rms(c)
DAV:   1    -0.656435078256E+02   -0.46056E-03   -0.12603E-02 10752   0.512E-01    0.923E-02
RMM:   2    -0.656435478320E+02   -0.40006E-04   -0.71594E-04  4256   0.101E-01
   8 F= -.65643548E+02 E0= -.65643548E+02  d E =-.456507E-01  mag=     1.0000
 curvature:  -0.28 expect dE=-0.231E-01 dE for cont linesearch -0.199E-06
 trial: gam= 0.51607 g(F)=  0.754E-01 g(S)=  0.666E-02 ort = 0.334E-03 (trialstep = 0.611E+00)
 search vector abs. value=  0.125E+00
 bond charge predicted
       N       E                     dE             d eps       ncg     rms          rms(c)
DAV:   1    -0.656857364345E+02   -0.42229E-01   -0.96209E-01  9408   0.481E+00    0.102E+00
RMM:   2    -0.656866226629E+02   -0.88623E-03   -0.46768E-02  8071   0.782E-01    0.907E-01
RMM:   3    -0.656854280912E+02    0.11946E-02   -0.32325E-03  7494   0.491E-01    0.202E-01
RMM:   4    -0.656853682731E+02    0.59818E-04   -0.72083E-04  6122   0.120E-01
   9 F= -.65685368E+02 E0= -.65685368E+02  d E =-.418204E-01  mag=     1.0000
 trial-energy change:   -0.041820  1 .order   -0.042278   -0.050253   -0.034304
 step:   1.9250(harm=  1.9250)  dis= 0.04746  next Energy=   -65.722717 (dE=-0.792E-01)
 bond charge predicted
       N       E                     dE             d eps       ncg     rms          rms(c)
DAV:   1    -0.657201231842E+02   -0.34695E-01   -0.44464E+00  9536   0.104E+01    0.230E+00
RMM:   2    -0.657239850209E+02   -0.38618E-02   -0.22300E-01  8070   0.170E+00    0.210E+00
RMM:   3    -0.657184467653E+02    0.55383E-02   -0.16181E-02  8095   0.111E+00    0.446E-01
RMM:   4    -0.657181344431E+02    0.31232E-03   -0.43575E-03  7849   0.241E-01
  10 F= -.65718134E+02 E0= -.65718134E+02  d E =-.745866E-01  mag=     1.0000
 curvature:  -1.46 expect dE=-0.141E+00 dE for cont linesearch -0.211E-03
 trial: gam= 1.10773 g(F)=  0.806E-01 g(S)=  0.158E-01 ort =-0.425E-02 (trialstep = 0.454E+00)
 search vector abs. value=  0.240E+00
 bond charge predicted
       N       E                     dE             d eps       ncg     rms          rms(c)
DAV:   1    -0.657466483498E+02   -0.28202E-01   -0.93811E-01 10416   0.403E+00    0.659E-01
RMM:   2    -0.657456902136E+02    0.95814E-03   -0.48186E-02  8317   0.831E-01    0.461E-01
RMM:   3    -0.657449875031E+02    0.70271E-03   -0.39664E-03  7390   0.619E-01
  11 F= -.65744988E+02 E0= -.65744988E+02  d E =-.268531E-01  mag=     1.0000
 trial-energy change:   -0.026853  1 .order   -0.027606   -0.041612   -0.013601
 step:   0.6743(harm=  0.6743)  dis= 0.02061  next Energy=   -65.749043 (dE=-0.309E-01)
 bond charge predicted
       N       E                     dE             d eps       ncg     rms          rms(c)
DAV:   1    -0.657485252399E+02   -0.28350E-02   -0.21656E-01  9376   0.196E+00    0.410E-01
RMM:   2    -0.657479114873E+02    0.61375E-03   -0.10582E-02  8016   0.404E-01    0.282E-01
RMM:   3    -0.657476857582E+02    0.22573E-03   -0.94769E-04  5458   0.313E-01
  12 F= -.65747686E+02 E0= -.65747686E+02  d E =-.295513E-01  mag=     1.0000
 curvature:  -0.88 expect dE=-0.357E-01 dE for cont linesearch -0.103E-04
 trial: gam= 0.27413 g(F)=  0.180E-01 g(S)=  0.224E-01 ort = 0.167E-02 (trialstep = 0.498E+00)
 search vector abs. value=  0.594E-01
 bond charge predicted
       N       E                     dE             d eps       ncg     rms          rms(c)
DAV:   1    -0.657735741786E+02   -0.25663E-01   -0.30929E-01  9232   0.264E+00    0.969E-01
RMM:   2    -0.657667582056E+02    0.68160E-02   -0.24789E-02  8359   0.638E-01    0.338E-01
RMM:   3    -0.657654210638E+02    0.13371E-02   -0.16440E-03  6875   0.328E-01    0.236E-01
RMM:   4    -0.657651971777E+02    0.22389E-03   -0.81262E-04  5704   0.131E-01
  13 F= -.65765197E+02 E0= -.65765197E+02  d E =-.175114E-01  mag=     1.0000
 ZBRENT: can't locate minimum, use default step
 trial-energy change:   -0.017511  1 .order   -0.018977   -0.020353   -0.017601
 step:   1.9919(harm=  3.6838)  dis= 0.02618  next Energy=   -65.822963 (dE=-0.753E-01)
 bond charge predicted
       N       E                     dE             d eps       ncg     rms          rms(c)
DAV:   1    -0.658653628643E+02   -0.99942E-01   -0.27616E+00  8160   0.786E+00    0.306E+00
RMM:   2    -0.658073304347E+02    0.58032E-01   -0.21617E-01  8350   0.191E+00    0.959E-01
RMM:   3    -0.657956084399E+02    0.11722E-01   -0.18597E-02  8364   0.984E-01    0.522E-01
RMM:   4    -0.657933681414E+02    0.22403E-02   -0.78022E-03  8014   0.379E-01    0.552E-01
RMM:   5    -0.657935940472E+02   -0.22591E-03   -0.31986E-03  7246   0.269E-01
  14 F= -.65793594E+02 E0= -.65793594E+02  d E =-.459083E-01  mag=     1.0000
 curvature:  -1.92 expect dE=-0.153E+00 dE for cont linesearch -0.599E-02
 trial: gam= 0.00000 g(F)=  0.716E-01 g(S)=  0.793E-02 ort = 0.136E-01 (trialstep = 0.595E+00)
 search vector abs. value=  0.795E-01
 bond charge predicted
       N       E                     dE             d eps       ncg     rms          rms(c)
DAV:   1    -0.658109926515E+02   -0.17625E-01   -0.91930E-01 10784   0.486E+00    0.747E-01
RMM:   2    -0.658127358815E+02   -0.17432E-02   -0.68754E-02  8385   0.927E-01    0.440E-01
RMM:   3    -0.658113730158E+02    0.13629E-02   -0.35988E-03  7350   0.479E-01    0.283E-01
RMM:   4    -0.658113260731E+02    0.46943E-04   -0.95190E-04  6554   0.150E-01
  15 F= -.65811326E+02 E0= -.65811326E+02  d E =-.177320E-01  mag=     1.0000
 trial-energy change:   -0.017732  1 .order   -0.018417   -0.047293    0.010458
 step:   0.4869(harm=  0.4869)  dis= 0.01163  next Energy=   -65.812958 (dE=-0.194E-01)
 bond charge predicted
       N       E                     dE             d eps       ncg     rms          rms(c)
DAV:   1    -0.658124905811E+02   -0.11176E-02   -0.33289E-02 11008   0.934E-01    0.229E-01
RMM:   2    -0.658126550306E+02   -0.16445E-03   -0.29661E-03  5972   0.192E-01
  16 F= -.65812655E+02 E0= -.65812655E+02  d E =-.190610E-01  mag=     1.0000
 curvature:  -0.24 expect dE=-0.464E-02 dE for cont linesearch -0.114E-04
 trial: gam= 0.26397 g(F)=  0.147E-01 g(S)=  0.440E-02 ort =-0.193E-02 (trialstep = 0.573E+00)
 search vector abs. value=  0.236E-01
 bond charge predicted
       N       E                     dE             d eps       ncg     rms          rms(c)
DAV:   1    -0.658231522671E+02   -0.10662E-01   -0.32398E-01  9552   0.316E+00    0.572E-01
RMM:   2    -0.658216785885E+02    0.14737E-02   -0.19980E-02  8485   0.509E-01    0.228E-01
RMM:   3    -0.658210929742E+02    0.58561E-03   -0.77623E-04  6009   0.198E-01
  17 F= -.65821093E+02 E0= -.65821093E+02  d E =-.843794E-02  mag=     1.0000
 trial-energy change:   -0.008438  1 .order   -0.009193   -0.010636   -0.007750
 step:   2.1117(harm=  2.1117)  dis= 0.02325  next Energy=   -65.832254 (dE=-0.196E-01)
 bond charge predicted
       N       E                     dE             d eps       ncg     rms          rms(c)
DAV:   1    -0.658414009840E+02   -0.19722E-01   -0.23540E+00  9472   0.846E+00    0.163E+00
RMM:   2    -0.658280662189E+02    0.13335E-01   -0.15190E-01  8528   0.140E+00    0.630E-01
RMM:   3    -0.658233701076E+02    0.46961E-02   -0.86805E-03  8350   0.546E-01    0.366E-01
RMM:   4    -0.658227465111E+02    0.62360E-03   -0.44064E-03  7334   0.254E-01
  18 F= -.65822747E+02 E0= -.65822747E+02  d E =-.100915E-01  mag=     1.0000
 curvature:  -1.34 expect dE=-0.106E+00 dE for cont linesearch -0.168E-02
 trial: gam= 0.00000 g(F)=  0.679E-01 g(S)=  0.114E-01 ort =-0.544E-02 (trialstep = 0.262E+00)
 search vector abs. value=  0.793E-01
 bond charge predicted
       N       E                     dE             d eps       ncg     rms          rms(c)
DAV:   1    -0.658372076941E+02   -0.13838E-01   -0.22851E-01 11488   0.264E+00    0.294E-01
RMM:   2    -0.658375891634E+02   -0.38147E-03   -0.14810E-02  8281   0.448E-01    0.229E-01
RMM:   3    -0.658373698027E+02    0.21936E-03   -0.79555E-04  4999   0.243E-01
  19 F= -.65837370E+02 E0= -.65837370E+02  d E =-.146233E-01  mag=     1.0000
 trial-energy change:   -0.014623  1 .order   -0.015016   -0.020782   -0.009250
 step:   0.4720(harm=  0.4720)  dis= 0.00793  next Energy=   -65.841472 (dE=-0.187E-01)
 bond charge predicted
       N       E                     dE             d eps       ncg     rms          rms(c)
DAV:   1    -0.658412408708E+02   -0.36517E-02   -0.14714E-01  9888   0.212E+00    0.270E-01
RMM:   2    -0.658413087164E+02   -0.67846E-04   -0.93559E-03  7836   0.355E-01    0.199E-01
RMM:   3    -0.658411483611E+02    0.16036E-03   -0.57382E-04  4373   0.197E-01
  20 F= -.65841148E+02 E0= -.65841148E+02  d E =-.184018E-01  mag=     1.0000
 curvature:  -0.24 expect dE=-0.266E-02 dE for cont linesearch -0.204E-04
 trial: gam= 0.10916 g(F)=  0.946E-02 g(S)=  0.182E-02 ort = 0.262E-02 (trialstep = 0.304E+00)
 search vector abs. value=  0.128E-01
 reached required accuracy - stopping structural energy minimisation
