       N       E                     dE             d eps       ncg     rms          rms(c)
DAV:   1    -0.247389663075E+02   -0.24739E+02   -0.63115E+03 11824   0.402E+02
DAV:   2    -0.813272828352E+02   -0.56588E+02   -0.55172E+02 14652   0.103E+02
DAV:   3    -0.835879255617E+02   -0.22606E+01   -0.22526E+01 14604   0.199E+01
DAV:   4    -0.835940543700E+02   -0.61288E-02   -0.61279E-02 14224   0.122E+00
DAV:   5    -0.835940777409E+02   -0.23371E-04   -0.23370E-04 14232   0.680E-02    0.146E+01
DAV:   6    -0.808519221365E+02    0.27422E+01   -0.78384E-01 13112   0.413E+00    0.835E+00
DAV:   7    -0.795281292593E+02    0.13238E+01   -0.22771E+00 13096   0.703E+00    0.805E-01
DAV:   8    -0.795624164723E+02   -0.34287E-01   -0.17274E-01 12788   0.190E+00    0.454E-01
DAV:   9    -0.795610412447E+02    0.13752E-02   -0.10880E-02 14732   0.489E-01    0.684E-02
DAV:  10    -0.795612265076E+02   -0.18526E-03   -0.78118E-04 13328   0.135E-01    0.338E-02
DAV:  11    -0.795613275744E+02   -0.10107E-03   -0.14281E-04 13296   0.552E-02    0.130E-02
DAV:  12    -0.795613271994E+02    0.37500E-06   -0.47155E-06  7036   0.123E-02
   1 F= -.79561327E+02 E0= -.79561052E+02  d E =-.795613E+02
       N       E                     dE             d eps       ncg     rms          rms(c)
DAV:   1    -0.795399229918E+02    0.21405E-01   -0.11931E+00 13596   0.567E+00    0.514E-01
DAV:   2    -0.795430588283E+02   -0.31358E-02   -0.68199E-02 13336   0.130E+00    0.393E-01
DAV:   3    -0.795406735741E+02    0.23853E-02   -0.33550E-03 14292   0.474E-01    0.645E-02
DAV:   4    -0.795410096401E+02   -0.33607E-03   -0.33532E-03 13884   0.247E-01    0.289E-02
DAV:   5    -0.795409884340E+02    0.21206E-04   -0.50648E-05  7644   0.576E-02
   2 F= -.79540988E+02 E0= -.79540763E+02  d E =0.203388E-01
       N       E                     dE             d eps       ncg     rms          rms(c)
DAV:   1    -0.795733996082E+02   -0.32390E-01   -0.45635E-01 13652   0.346E+00    0.317E-01
DAV:   2    -0.795745630941E+02   -0.11635E-02   -0.25445E-02 13344   0.794E-01    0.242E-01
DAV:   3    -0.795736453099E+02    0.91778E-03   -0.13089E-03 14232   0.307E-01    0.342E-02
DAV:   4    -0.795737832508E+02   -0.13794E-03   -0.13564E-03 13404   0.156E-01    0.193E-02
DAV:   5    -0.795737730821E+02    0.10169E-04   -0.13543E-05  6840   0.333E-02
   3 F= -.79573773E+02 E0= -.79573517E+02  d E =-.124459E-01
       N       E                     dE             d eps       ncg     rms          rms(c)
DAV:   1    -0.795909549090E+02   -0.17172E-01   -0.11997E-01 12760   0.157E+00    0.131E-01
DAV:   2    -0.795913114580E+02   -0.35655E-03   -0.19914E-03 14288   0.210E-01    0.865E-02
DAV:   3    -0.795914619259E+02   -0.15047E-03   -0.19851E-04 12028   0.762E-02    0.103E-02
DAV:   4    -0.795914652746E+02   -0.33487E-05   -0.46942E-05  6948   0.312E-02
   4 F= -.79591465E+02 E0= -.79591164E+02  d E =-.176922E-01
       N       E                     dE             d eps       ncg     rms          rms(c)
DAV:   1    -0.796309908284E+02   -0.39529E-01   -0.10967E+00 12776   0.476E+00    0.401E-01
DAV:   2    -0.796343361210E+02   -0.33453E-02   -0.18742E-02 14296   0.644E-01    0.264E-01
DAV:   3    -0.796357286365E+02   -0.13925E-02   -0.18908E-03 13696   0.237E-01    0.319E-02
DAV:   4    -0.796357621750E+02   -0.33538E-04   -0.44653E-04 13188   0.950E-02
   5 F= -.79635762E+02 E0= -.79635330E+02  d E =-.619891E-01
       N       E                     dE             d eps       ncg     rms          rms(c)
DAV:   1    -0.796600827993E+02   -0.24354E-01   -0.44872E+00 12788   0.976E+00    0.828E-01
DAV:   2    -0.796746102799E+02   -0.14527E-01   -0.85981E-02 14328   0.135E+00    0.546E-01
DAV:   3    -0.796801972868E+02   -0.55870E-02   -0.80686E-03 13596   0.505E-01    0.640E-02
DAV:   4    -0.796803713998E+02   -0.17411E-03   -0.21005E-03 13816   0.203E-01    0.551E-02
DAV:   5    -0.796803343337E+02    0.37066E-04   -0.79926E-05 11328   0.575E-02
   6 F= -.79680334E+02 E0= -.79679692E+02  d E =-.106561E+00
       N       E                     dE             d eps       ncg     rms          rms(c)
DAV:   1    -0.796916316987E+02   -0.11260E-01   -0.12996E-01 12900   0.173E+00    0.148E-01
DAV:   2    -0.796919947112E+02   -0.36301E-03   -0.39296E-03 13900   0.303E-01    0.105E-01
DAV:   3    -0.796919765439E+02    0.18167E-04   -0.21374E-04 13772   0.113E-01
   7 F= -.79691977E+02 E0= -.79691304E+02  d E =-.116422E-01
       N       E                     dE             d eps       ncg     rms          rms(c)
DAV:   1    -0.796952538989E+02   -0.32592E-02   -0.12971E-01 12848   0.174E+00    0.146E-01
DAV:   2    -0.796956751294E+02   -0.42123E-03   -0.40603E-03 13848   0.307E-01    0.104E-01
DAV:   3    -0.796956799876E+02   -0.48582E-05   -0.18356E-04 13160   0.106E-01
   8 F= -.79695680E+02 E0= -.79694982E+02  d E =-.153457E-01
       N       E                     dE             d eps       ncg     rms          rms(c)
DAV:   1    -0.797006985733E+02   -0.50234E-02   -0.39974E-02 12592   0.922E-01    0.732E-02
DAV:   2    -0.797008190042E+02   -0.12043E-03   -0.96724E-04 13904   0.140E-01    0.495E-02
DAV:   3    -0.797008489771E+02   -0.29973E-04   -0.69648E-05  9140   0.421E-02
   9 F= -.79700849E+02 E0= -.79700137E+02  d E =-.516899E-02
       N       E                     dE             d eps       ncg     rms          rms(c)
DAV:   1    -0.797132654823E+02   -0.12446E-01   -0.35483E-01 12504   0.274E+00    0.212E-01
DAV:   2    -0.797142671984E+02   -0.10017E-02   -0.88060E-03 13932   0.422E-01    0.144E-01
DAV:   3    -0.797144667027E+02   -0.19950E-03   -0.63016E-04 13624   0.121E-01    0.223E-02
DAV:   4    -0.797144669002E+02   -0.19752E-06   -0.10596E-04  9668   0.446E-02
  10 F= -.79714467E+02 E0= -.79713725E+02  d E =-.187869E-01
       N       E                     dE             d eps       ncg     rms          rms(c)
DAV:   1    -0.797280670393E+02   -0.13600E-01   -0.14166E+00 12424   0.548E+00    0.426E-01
DAV:   2    -0.797319849172E+02   -0.39179E-02   -0.36184E-02 13892   0.851E-01    0.291E-01
DAV:   3    -0.797326677555E+02   -0.68284E-03   -0.25899E-03 13580   0.251E-01    0.454E-02
DAV:   4    -0.797326715123E+02   -0.37568E-05   -0.49405E-04 13448   0.950E-02
  11 F= -.79732672E+02 E0= -.79731919E+02  d E =-.369915E-01
       N       E                     dE             d eps       ncg     rms          rms(c)
DAV:   1    -0.797055833689E+02    0.27084E-01   -0.56265E+00 12288   0.109E+01    0.863E-01
DAV:   2    -0.797216061255E+02   -0.16023E-01   -0.15438E-01 13788   0.173E+00    0.592E-01
DAV:   3    -0.797237986952E+02   -0.21926E-02   -0.10181E-02 13660   0.529E-01    0.868E-02
DAV:   4    -0.797239151699E+02   -0.11647E-03   -0.25380E-03 13656   0.207E-01    0.640E-02
DAV:   5    -0.797238666770E+02    0.48493E-04   -0.17171E-04 11876   0.659E-02
  12 F= -.79723867E+02 E0= -.79723200E+02  d E =-.281867E-01
       N       E                     dE             d eps       ncg     rms          rms(c)
DAV:   1    -0.797285516803E+02   -0.46365E-02   -0.25587E+00 12284   0.746E+00    0.587E-01
DAV:   2    -0.797364790721E+02   -0.79274E-02   -0.79027E-02 13896   0.123E+00    0.403E-01
DAV:   3    -0.797375006713E+02   -0.10216E-02   -0.45730E-03 13520   0.352E-01    0.576E-02
DAV:   4    -0.797375794469E+02   -0.78776E-04   -0.11734E-03 13668   0.142E-01    0.426E-02
DAV:   5    -0.797375602176E+02    0.19229E-04   -0.71046E-05  9312   0.421E-02
  13 F= -.79737560E+02 E0= -.79736826E+02  d E =-.418802E-01
       N       E                     dE             d eps       ncg     rms          rms(c)
DAV:   1    -0.797483184381E+02   -0.10739E-01   -0.25854E-01 12356   0.245E+00    0.203E-01
DAV:   2    -0.797488641905E+02   -0.54575E-03   -0.87769E-03 13740   0.444E-01    0.150E-01
DAV:   3    -0.797486410698E+02    0.22312E-03   -0.42160E-04 14628   0.157E-01    0.211E-02
DAV:   4    -0.797486786791E+02   -0.37609E-04   -0.32192E-04 10788   0.783E-02
  14 F= -.79748679E+02 E0= -.79747942E+02  d E =-.111185E-01
       N       E                     dE             d eps       ncg     rms          rms(c)
DAV:   1    -0.797493547257E+02   -0.71366E-03   -0.27745E-02 12508   0.805E-01    0.670E-02
DAV:   2    -0.797494370895E+02   -0.82364E-04   -0.10600E-03 13724   0.154E-01    0.500E-02
DAV:   3    -0.797494197614E+02    0.17328E-04   -0.35121E-05  8460   0.467E-02
  15 F= -.79749420E+02 E0= -.79748682E+02  d E =-.118595E-01
       N       E                     dE             d eps       ncg     rms          rms(c)
DAV:   1    -0.797582255396E+02   -0.87885E-02   -0.91847E-02 12196   0.142E+00    0.121E-01
DAV:   2    -0.797583404419E+02   -0.11490E-03   -0.22397E-03 13868   0.215E-01    0.806E-02
DAV:   3    -0.797583076843E+02    0.32758E-04   -0.18356E-04 11560   0.645E-02
  16 F= -.79758308E+02 E0= -.79757560E+02  d E =-.888792E-02
       N       E                     dE             d eps       ncg     rms          rms(c)
DAV:   1    -0.797783768964E+02   -0.20036E-01   -0.82507E-01 12176   0.425E+00    0.360E-01
DAV:   2    -0.797794258216E+02   -0.10489E-02   -0.20457E-02 13844   0.647E-01    0.241E-01
DAV:   3    -0.797791084208E+02    0.31740E-03   -0.17035E-03 13552   0.195E-01    0.332E-02
DAV:   4    -0.797791103901E+02   -0.19693E-05   -0.26382E-04 12984   0.717E-02
  17 F= -.79779110E+02 E0= -.79778334E+02  d E =-.296906E-01
       N       E                     dE             d eps       ncg     rms          rms(c)
DAV:   1    -0.797906876082E+02   -0.11579E-01   -0.32847E+00 12156   0.845E+00    0.718E-01
DAV:   2    -0.797946705357E+02   -0.39829E-02   -0.83057E-02 13792   0.130E+00    0.484E-01
DAV:   3    -0.797931890882E+02    0.14814E-02   -0.71033E-03 13620   0.407E-01    0.695E-02
DAV:   4    -0.797931927469E+02   -0.36587E-05   -0.12365E-03 13404   0.153E-01    0.454E-02
DAV:   5    -0.797931706434E+02    0.22103E-04   -0.93925E-05 10116   0.489E-02
  18 F= -.79793171E+02 E0= -.79792354E+02  d E =-.437509E-01
       N       E                     dE             d eps       ncg     rms          rms(c)
DAV:   1    -0.797968702713E+02   -0.36775E-02   -0.57607E-01 12288   0.367E+00    0.299E-01
DAV:   2    -0.797979881368E+02   -0.11179E-02   -0.19645E-02 13764   0.664E-01    0.227E-01
DAV:   3    -0.797974028270E+02    0.58531E-03   -0.97975E-04 14540   0.236E-01    0.268E-02
DAV:   4    -0.797974895277E+02   -0.86701E-04   -0.80979E-04 13228   0.121E-01
  19 F= -.79797490E+02 E0= -.79796671E+02  d E =-.431888E-02
       N       E                     dE             d eps       ncg     rms          rms(c)
DAV:   1    -0.797992534906E+02   -0.18507E-02   -0.71555E-02 12172   0.130E+00    0.106E-01
DAV:   2    -0.797993419261E+02   -0.88435E-04   -0.22207E-03 13756   0.224E-01    0.795E-02
DAV:   3    -0.797992553887E+02    0.86537E-04   -0.13980E-04 12984   0.902E-02
  20 F= -.79799255E+02 E0= -.79798438E+02  d E =-.608475E-02
       N       E                     dE             d eps       ncg     rms          rms(c)
DAV:   1    -0.798086118927E+02   -0.92700E-02   -0.23316E-01 11840   0.232E+00    0.179E-01
DAV:   2    -0.798090466342E+02   -0.43474E-03   -0.83058E-03 13524   0.395E-01    0.127E-01
DAV:   3    -0.798088926506E+02    0.15398E-03   -0.55685E-04 13732   0.106E-01    0.172E-02
DAV:   4    -0.798088904329E+02    0.22177E-05   -0.80930E-05  7584   0.403E-02
  21 F= -.79808890E+02 E0= -.79808083E+02  d E =-.963504E-02
       N       E                     dE             d eps       ncg     rms          rms(c)
DAV:   1    -0.798174783155E+02   -0.85857E-02   -0.14097E+00 11852   0.570E+00    0.434E-01
DAV:   2    -0.798204384744E+02   -0.29602E-02   -0.51471E-02 13532   0.982E-01    0.311E-01
DAV:   3    -0.798195830136E+02    0.85546E-03   -0.31732E-03 13796   0.254E-01    0.398E-02
DAV:   4    -0.798195844138E+02   -0.14001E-05   -0.47994E-04 13340   0.968E-02
  22 F= -.79819584E+02 E0= -.79818819E+02  d E =-.203290E-01
       N       E                     dE             d eps       ncg     rms          rms(c)
DAV:   1    -0.798252305528E+02   -0.56475E-02   -0.51393E-01 12012   0.345E+00    0.263E-01
DAV:   2    -0.798257891046E+02   -0.55855E-03   -0.13477E-02 13760   0.541E-01    0.193E-01
DAV:   3    -0.798254089423E+02    0.38016E-03   -0.10604E-03 14072   0.187E-01    0.222E-02
DAV:   4    -0.798254312395E+02   -0.22297E-04   -0.37776E-04 12388   0.868E-02
  23 F= -.79825431E+02 E0= -.79824689E+02  d E =-.584683E-02
       N       E                     dE             d eps       ncg     rms          rms(c)
DAV:   1    -0.798254818704E+02   -0.72928E-04   -0.44698E-03 12060   0.322E-01    0.250E-02
DAV:   2    -0.798254791463E+02    0.27241E-05   -0.85412E-05 10180   0.446E-02
  24 F= -.79825479E+02 E0= -.79824735E+02  d E =-.589473E-02
       N       E                     dE             d eps       ncg     rms          rms(c)
DAV:   1    -0.798306042700E+02   -0.51224E-02   -0.10855E-01 11884   0.156E+00    0.117E-01
DAV:   2    -0.798306658932E+02   -0.61623E-04   -0.21178E-03 13752   0.211E-01    0.837E-02
DAV:   3    -0.798306069277E+02    0.58965E-04   -0.24987E-04 13020   0.688E-02
  25 F= -.79830607E+02 E0= -.79829865E+02  d E =-.512778E-02
       N       E                     dE             d eps       ncg     rms          rms(c)
DAV:   1    -0.798449322002E+02   -0.14266E-01   -0.96647E-01 11888   0.468E+00    0.341E-01
DAV:   2    -0.798456291688E+02   -0.69697E-03   -0.18532E-02 13820   0.624E-01    0.245E-01
DAV:   3    -0.798451817883E+02    0.44738E-03   -0.19439E-03 13600   0.191E-01    0.401E-02
DAV:   4    -0.798451515374E+02    0.30251E-04   -0.24419E-04 13144   0.694E-02
  26 F= -.79845152E+02 E0= -.79844417E+02  d E =-.196724E-01
       N       E                     dE             d eps       ncg     rms          rms(c)
DAV:   1    -0.798688755780E+02   -0.23694E-01   -0.38584E+00 11876   0.934E+00    0.687E-01
DAV:   2    -0.798714812111E+02   -0.26056E-02   -0.74777E-02 13848   0.125E+00    0.490E-01
DAV:   3    -0.798695775411E+02    0.19037E-02   -0.77499E-03 13636   0.386E-01    0.782E-02
DAV:   4    -0.798694683958E+02    0.10915E-03   -0.10260E-03 13340   0.143E-01    0.413E-02
DAV:   5    -0.798694391599E+02    0.29236E-04   -0.95332E-05  9316   0.487E-02
  27 F= -.79869439E+02 E0= -.79868720E+02  d E =-.439600E-01
       N       E                     dE             d eps       ncg     rms          rms(c)
DAV:   1    -0.798793547608E+02   -0.98864E-02   -0.15321E+01 11864   0.186E+01    0.138E+00
DAV:   2    -0.798907674155E+02   -0.11413E-01   -0.31649E-01 13888   0.257E+00    0.977E-01
DAV:   3    -0.798826963985E+02    0.80710E-02   -0.27535E-02 13700   0.750E-01    0.125E-01
DAV:   4    -0.798826535393E+02    0.42859E-04   -0.42601E-03 13368   0.292E-01    0.784E-02
DAV:   5    -0.798825750643E+02    0.78475E-04   -0.30795E-04 14488   0.892E-02
  28 F= -.79882575E+02 E0= -.79881889E+02  d E =-.570959E-01
       N       E                     dE             d eps       ncg     rms          rms(c)
DAV:   1    -0.798849178103E+02   -0.22643E-02   -0.22410E+00 11848   0.713E+00    0.516E-01
DAV:   2    -0.798864221885E+02   -0.15044E-02   -0.43567E-02 13872   0.958E-01    0.372E-01
DAV:   3    -0.798852220106E+02    0.12002E-02   -0.44303E-03 13624   0.304E-01    0.605E-02
DAV:   4    -0.798851687297E+02    0.53281E-04   -0.70565E-04 13296   0.119E-01
  29 F= -.79885169E+02 E0= -.79884470E+02  d E =-.596896E-01
       N       E                     dE             d eps       ncg     rms          rms(c)
DAV:   1    -0.798939402891E+02   -0.87183E-02   -0.16315E-01 11868   0.193E+00    0.141E-01
DAV:   2    -0.798939817358E+02   -0.41447E-04   -0.27941E-03 13888   0.245E-01    0.993E-02
DAV:   3    -0.798938845731E+02    0.97163E-04   -0.36781E-04 13436   0.872E-02
  30 F= -.79893885E+02 E0= -.79893184E+02  d E =-.871584E-02
       N       E                     dE             d eps       ncg     rms          rms(c)
DAV:   1    -0.799131149382E+02   -0.19133E-01   -0.14800E+00 11884   0.581E+00    0.419E-01
DAV:   2    -0.799141386783E+02   -0.10237E-02   -0.27891E-02 13868   0.769E-01    0.301E-01
DAV:   3    -0.799134069140E+02    0.73176E-03   -0.27863E-03 13552   0.241E-01    0.471E-02
DAV:   4    -0.799133757292E+02    0.31185E-04   -0.43568E-04 13284   0.950E-02
  31 F= -.79913376E+02 E0= -.79912670E+02  d E =-.282070E-01
       N       E                     dE             d eps       ncg     rms          rms(c)
DAV:   1    -0.799254012599E+02   -0.11994E-01   -0.59354E+00 11864   0.116E+01    0.848E-01
DAV:   2    -0.799292805964E+02   -0.38793E-02   -0.11308E-01 13852   0.155E+00    0.609E-01
DAV:   3    -0.799261033436E+02    0.31773E-02   -0.11140E-02 13560   0.490E-01    0.902E-02
DAV:   4    -0.799260124491E+02    0.90895E-04   -0.18441E-03 13364   0.196E-01    0.499E-02
DAV:   5    -0.799259660953E+02    0.46354E-04   -0.10006E-04 10364   0.545E-02
  32 F= -.79925966E+02 E0= -.79925250E+02  d E =-.407974E-01
       N       E                     dE             d eps       ncg     rms          rms(c)
DAV:   1    -0.799361639373E+02   -0.10151E-01   -0.81616E-01 11912   0.430E+00    0.322E-01
DAV:   2    -0.799365600181E+02   -0.39608E-03   -0.14673E-02 13856   0.563E-01    0.227E-01
DAV:   3    -0.799361482720E+02    0.41175E-03   -0.16919E-03 13696   0.192E-01    0.386E-02
DAV:   4    -0.799361274612E+02    0.20811E-04   -0.29127E-04 13076   0.780E-02
  33 F= -.79936127E+02 E0= -.79935411E+02  d E =-.101614E-01
       N       E                     dE             d eps       ncg     rms          rms(c)
DAV:   1    -0.799461924325E+02   -0.10044E-01   -0.39474E+00 11884   0.947E+00    0.705E-01
DAV:   2    -0.799482130374E+02   -0.20206E-02   -0.71036E-02 13808   0.124E+00    0.494E-01
DAV:   3    -0.799462398517E+02    0.19732E-02   -0.76105E-03 13860   0.400E-01    0.743E-02
DAV:   4    -0.799461823007E+02    0.57551E-04   -0.12352E-03 13340   0.160E-01    0.412E-02
DAV:   5    -0.799461522260E+02    0.30075E-04   -0.65111E-05  9064   0.446E-02
  34 F= -.79946152E+02 E0= -.79945437E+02  d E =-.201861E-01
       N       E                     dE             d eps       ncg     rms          rms(c)
DAV:   1    -0.799507530637E+02   -0.45708E-02   -0.18614E-01 12012   0.207E+00    0.149E-01
DAV:   2    -0.799508955919E+02   -0.14253E-03   -0.34687E-03 13756   0.277E-01    0.106E-01
DAV:   3    -0.799508005718E+02    0.95020E-04   -0.26410E-04 14216   0.906E-02
  35 F= -.79950801E+02 E0= -.79950087E+02  d E =-.464835E-02
       N       E                     dE             d eps       ncg     rms          rms(c)
DAV:   1    -0.799532120842E+02   -0.23165E-02   -0.65184E-01 11972   0.388E+00    0.275E-01
DAV:   2    -0.799537888999E+02   -0.57682E-03   -0.12403E-02 13748   0.523E-01    0.196E-01
DAV:   3    -0.799534693800E+02    0.31952E-03   -0.81103E-04 14440   0.162E-01    0.196E-02
DAV:   4    -0.799534968377E+02   -0.27458E-04   -0.30845E-04 11552   0.778E-02
  36 F= -.79953497E+02 E0= -.79952785E+02  d E =-.734461E-02
       N       E                     dE             d eps       ncg     rms          rms(c)
DAV:   1    -0.799561881626E+02   -0.27188E-02   -0.88830E-02 12048   0.143E+00    0.987E-02
DAV:   2    -0.799562540628E+02   -0.65900E-04   -0.13446E-03 13936   0.170E-01    0.679E-02
DAV:   3    -0.799562338623E+02    0.20200E-04   -0.11550E-04 11024   0.495E-02
  37 F= -.79956234E+02 E0= -.79955522E+02  d E =-.273702E-02
       N       E                     dE             d eps       ncg     rms          rms(c)
DAV:   1    -0.799625077312E+02   -0.62537E-02   -0.79828E-01 11980   0.428E+00    0.296E-01
DAV:   2    -0.799629675968E+02   -0.45987E-03   -0.11685E-02 13896   0.504E-01    0.203E-01
DAV:   3    -0.799627272917E+02    0.24031E-03   -0.11539E-03 13936   0.154E-01    0.290E-02
DAV:   4    -0.799627204040E+02    0.68877E-05   -0.17184E-04 11036   0.595E-02
  38 F= -.79962720E+02 E0= -.79962007E+02  d E =-.922357E-02
       N       E                     dE             d eps       ncg     rms          rms(c)
DAV:   1    -0.799662567440E+02   -0.35295E-02   -0.32133E+00 11968   0.859E+00    0.601E-01
DAV:   2    -0.799680348965E+02   -0.17782E-02   -0.48198E-02 13824   0.102E+00    0.410E-01
DAV:   3    -0.799669587799E+02    0.10761E-02   -0.45840E-03 14064   0.313E-01    0.545E-02
DAV:   4    -0.799669507847E+02    0.79951E-05   -0.76192E-04 13392   0.125E-01
  39 F= -.79966951E+02 E0= -.79966235E+02  d E =-.134539E-01
       N       E                     dE             d eps       ncg     rms          rms(c)
DAV:   1    -0.799792189137E+02   -0.12260E-01   -0.68493E-01 12164   0.400E+00    0.277E-01
DAV:   2    -0.799798158146E+02   -0.59690E-03   -0.12712E-02 13848   0.532E-01    0.201E-01
DAV:   3    -0.799794636222E+02    0.35219E-03   -0.87009E-04 14360   0.196E-01    0.177E-02
DAV:   4    -0.799795084989E+02   -0.44877E-04   -0.49010E-04 11792   0.969E-02
  40 F= -.79979508E+02 E0= -.79978794E+02  d E =-.125577E-01
       N       E                     dE             d eps       ncg     rms          rms(c)
DAV:   1    -0.799810570499E+02   -0.15934E-02   -0.16843E-01 12192   0.198E+00    0.136E-01
DAV:   2    -0.799812329557E+02   -0.17591E-03   -0.32272E-03 13812   0.267E-01    0.983E-02
DAV:   3    -0.799811561215E+02    0.76834E-04   -0.18029E-04 12920   0.885E-02
  41 F= -.79981156E+02 E0= -.79980442E+02  d E =-.142053E-01
       N       E                     dE             d eps       ncg     rms          rms(c)
DAV:   1    -0.799875855529E+02   -0.63526E-02   -0.10089E-01 12144   0.154E+00    0.101E-01
DAV:   2    -0.799877222889E+02   -0.13674E-03   -0.20797E-03 13932   0.206E-01    0.707E-02
DAV:   3    -0.799876966688E+02    0.25620E-04   -0.11187E-04 11020   0.552E-02
  42 F= -.79987697E+02 E0= -.79986989E+02  d E =-.654055E-02
       N       E                     dE             d eps       ncg     rms          rms(c)
DAV:   1    -0.800008016994E+02   -0.13079E-01   -0.91141E-01 12024   0.464E+00    0.301E-01
DAV:   2    -0.800019681331E+02   -0.11664E-02   -0.18752E-02 13916   0.618E-01    0.211E-01
DAV:   3    -0.800016961839E+02    0.27195E-03   -0.10866E-03 14168   0.163E-01    0.225E-02
DAV:   4    -0.800017143111E+02   -0.18127E-04   -0.24395E-04 10604   0.704E-02
  43 F= -.80001714E+02 E0= -.80001025E+02  d E =-.205582E-01
       N       E                     dE             d eps       ncg     rms          rms(c)
DAV:   1    -0.800002306122E+02    0.14656E-02   -0.36591E+00 12036   0.929E+00    0.611E-01
DAV:   2    -0.800048082374E+02   -0.45776E-02   -0.76692E-02 13864   0.125E+00    0.428E-01
DAV:   3    -0.800035902002E+02    0.12180E-02   -0.45017E-03 14308   0.336E-01    0.460E-02
DAV:   4    -0.800036698534E+02   -0.79653E-04   -0.10820E-03 13480   0.147E-01    0.356E-02
DAV:   5    -0.800036438795E+02    0.25974E-04   -0.36958E-05  7648   0.382E-02
  44 F= -.80003644E+02 E0= -.80002991E+02  d E =-.224878E-01
       N       E                     dE             d eps       ncg     rms          rms(c)
DAV:   1    -0.800065285298E+02   -0.28587E-02   -0.79071E-01 12000   0.432E+00    0.283E-01
DAV:   2    -0.800074593469E+02   -0.93082E-03   -0.16258E-02 13840   0.573E-01    0.197E-01
DAV:   3    -0.800071867073E+02    0.27264E-03   -0.98961E-04 14296   0.157E-01    0.216E-02
DAV:   4    -0.800072018565E+02   -0.15149E-04   -0.23567E-04 10404   0.686E-02
  45 F= -.80007202E+02 E0= -.80006533E+02  d E =-.260457E-01
       N       E                     dE             d eps       ncg     rms          rms(c)
DAV:   1    -0.800110871142E+02   -0.39004E-02   -0.45106E-02 12020   0.103E+00    0.690E-02
DAV:   2    -0.800111243296E+02   -0.37215E-04   -0.86337E-04 13784   0.135E-01
  46 F= -.80011124E+02 E0= -.80010457E+02  d E =-.392247E-02
       N       E                     dE             d eps       ncg     rms          rms(c)
DAV:   1    -0.800191222400E+02   -0.80351E-02   -0.40311E-01 12140   0.309E+00    0.208E-01
DAV:   2    -0.800195312676E+02   -0.40903E-03   -0.74818E-03 13868   0.396E-01    0.145E-01
DAV:   3    -0.800194055562E+02    0.12571E-03   -0.55209E-04 14276   0.129E-01    0.159E-02
DAV:   4    -0.800194174254E+02   -0.11869E-04   -0.17914E-04  9220   0.603E-02
  47 F= -.80019417E+02 E0= -.80018757E+02  d E =-.122156E-01
       N       E                     dE             d eps       ncg     rms          rms(c)
DAV:   1    -0.800178816289E+02    0.15239E-02   -0.16362E+00 12088   0.622E+00    0.420E-01
DAV:   2    -0.800197870809E+02   -0.19055E-02   -0.33756E-02 13744   0.840E-01    0.295E-01
DAV:   3    -0.800191793359E+02    0.60775E-03   -0.21967E-03 14412   0.263E-01    0.309E-02
DAV:   4    -0.800192436974E+02   -0.64362E-04   -0.78229E-04 13356   0.125E-01
  48 F= -.80019244E+02 E0= -.80018596E+02  d E =-.120418E-01
       N       E                     dE             d eps       ncg     rms          rms(c)
DAV:   1    -0.800292730228E+02   -0.10094E-01   -0.48576E-02 12988   0.110E+00    0.101E-01
DAV:   2    -0.800293375068E+02   -0.64484E-04   -0.23168E-03 13384   0.222E-01    0.716E-02
DAV:   3    -0.800292493941E+02    0.88113E-04   -0.14698E-04 11880   0.861E-02
  49 F= -.80029249E+02 E0= -.80028592E+02  d E =-.100057E-01
       N       E                     dE             d eps       ncg     rms          rms(c)
DAV:   1    -0.800335218554E+02   -0.41843E-02   -0.80394E-02 13032   0.142E+00    0.124E-01
DAV:   2    -0.800337229255E+02   -0.20107E-03   -0.42890E-03 13376   0.300E-01    0.905E-02
DAV:   3    -0.800335953975E+02    0.12753E-03   -0.19203E-04 13200   0.979E-02    0.112E-02
DAV:   4    -0.800336087337E+02   -0.13336E-04   -0.12835E-04  7144   0.501E-02
  50 F= -.80033609E+02 E0= -.80032939E+02  d E =-.143650E-01
       N       E                     dE             d eps       ncg     rms          rms(c)
DAV:   1    -0.800401250360E+02   -0.65296E-02   -0.38338E-02 12232   0.874E-01    0.689E-02
DAV:   2    -0.800402969096E+02   -0.17187E-03   -0.23843E-03 13288   0.191E-01    0.497E-02
DAV:   3    -0.800402725776E+02    0.24332E-04   -0.92124E-05 10116   0.403E-02
  51 F= -.80040273E+02 E0= -.80039590E+02  d E =-.666384E-02
       N       E                     dE             d eps       ncg     rms          rms(c)
DAV:   1    -0.800478839691E+02   -0.75871E-02   -0.33760E-01 12204   0.260E+00    0.197E-01
DAV:   2    -0.800494525244E+02   -0.15686E-02   -0.21057E-02 13308   0.570E-01    0.145E-01
DAV:   3    -0.800492423370E+02    0.21019E-03   -0.75104E-04 13528   0.117E-01    0.218E-02
DAV:   4    -0.800492668359E+02   -0.24499E-04   -0.15071E-04 10472   0.511E-02
  52 F= -.80049267E+02 E0= -.80048548E+02  d E =-.156581E-01
       N       E                     dE             d eps       ncg     rms          rms(c)
DAV:   1    -0.800525871194E+02   -0.33448E-02   -0.25478E-02 12160   0.792E-01    0.622E-02
DAV:   2    -0.800526202737E+02   -0.33154E-04   -0.89247E-04 13572   0.142E-01
  53 F= -.80052620E+02 E0= -.80051901E+02  d E =-.335344E-02
       N       E                     dE             d eps       ncg     rms          rms(c)
DAV:   1    -0.800549041857E+02   -0.23171E-02   -0.11323E-01 12156   0.167E+00    0.136E-01
DAV:   2    -0.800549673319E+02   -0.63146E-04   -0.32708E-03 13664   0.274E-01    0.101E-01
DAV:   3    -0.800548210319E+02    0.14630E-03   -0.26553E-04 14324   0.121E-01    0.773E-03
DAV:   4    -0.800548346079E+02   -0.13576E-04   -0.15721E-04  8188   0.560E-02
  54 F= -.80054835E+02 E0= -.80054114E+02  d E =-.556777E-02
       N       E                     dE             d eps       ncg     rms          rms(c)
DAV:   1    -0.800559008137E+02   -0.10798E-02   -0.24794E-03 12224   0.242E-01    0.188E-02
DAV:   2    -0.800559033427E+02   -0.25290E-05   -0.53515E-05  6956   0.338E-02
  55 F= -.80055903E+02 E0= -.80055183E+02  d E =-.106873E-02
       N       E                     dE             d eps       ncg     rms          rms(c)
DAV:   1    -0.800590451866E+02   -0.31444E-02   -0.21748E-02 12004   0.720E-01    0.525E-02
DAV:   2    -0.800590561566E+02   -0.10970E-04   -0.40943E-04 13560   0.918E-02
  56 F= -.80059056E+02 E0= -.80058334E+02  d E =-.422155E-02
       N       E                     dE             d eps       ncg     rms          rms(c)
DAV:   1    -0.800650280751E+02   -0.59829E-02   -0.85992E-02 11944   0.143E+00    0.102E-01
DAV:   2    -0.800650753941E+02   -0.47319E-04   -0.15668E-03 13536   0.180E-01    0.704E-02
DAV:   3    -0.800650370280E+02    0.38366E-04   -0.15621E-04 11496   0.536E-02
  57 F= -.80065037E+02 E0= -.80064313E+02  d E =-.102024E-01
       N       E                     dE             d eps       ncg     rms          rms(c)
DAV:   1    -0.800757926457E+02   -0.10717E-01   -0.35114E-01 11860   0.288E+00    0.207E-01
DAV:   2    -0.800760201934E+02   -0.22755E-03   -0.69724E-03 13508   0.379E-01    0.145E-01
DAV:   3    -0.800758489250E+02    0.17127E-03   -0.70001E-04 13868   0.111E-01    0.212E-02
DAV:   4    -0.800758397633E+02    0.91617E-05   -0.67816E-05  7840   0.379E-02
  58 F= -.80075840E+02 E0= -.80075111E+02  d E =-.210052E-01
       N       E                     dE             d eps       ncg     rms          rms(c)
DAV:   1    -0.800926556796E+02   -0.16807E-01   -0.14001E+00 11864   0.574E+00    0.413E-01
DAV:   2    -0.800934507008E+02   -0.79502E-03   -0.27413E-02 13508   0.751E-01    0.289E-01
DAV:   3    -0.800927361730E+02    0.71453E-03   -0.29929E-03 13708   0.230E-01    0.477E-02
DAV:   4    -0.800926857202E+02    0.50453E-04   -0.31120E-04 13392   0.797E-02
  59 F= -.80092686E+02 E0= -.80091948E+02  d E =-.378511E-01
       N       E                     dE             d eps       ncg     rms          rms(c)
DAV:   1    -0.801051189771E+02   -0.12383E-01   -0.55447E+00 11844   0.114E+01    0.808E-01
DAV:   2    -0.801087036641E+02   -0.35847E-02   -0.10879E-01 13492   0.149E+00    0.569E-01
DAV:   3    -0.801060559203E+02    0.26477E-02   -0.11907E-02 13784   0.455E-01    0.975E-02
DAV:   4    -0.801058392837E+02    0.21664E-03   -0.12644E-03 13472   0.160E-01    0.448E-02
DAV:   5    -0.801058039076E+02    0.35376E-04   -0.14144E-04 12176   0.586E-02
  60 F= -.80105804E+02 E0= -.80105053E+02  d E =-.509693E-01
