       N       E                     dE             d eps       ncg     rms          rms(c)
DAV:   1     0.966076021941E+00    0.96608E+00   -0.39527E+03 11632   0.411E+02
DAV:   2    -0.335012738006E+02   -0.34467E+02   -0.32286E+02 15928   0.108E+02
DAV:   3    -0.350483489684E+02   -0.15471E+01   -0.15406E+01 13728   0.223E+01
DAV:   4    -0.350558316346E+02   -0.74827E-02   -0.74812E-02 15560   0.174E+00
DAV:   5    -0.350559009349E+02   -0.69300E-04   -0.69299E-04 13816   0.144E-01    0.122E+01
DAV:   6    -0.327387686245E+02    0.23171E+01   -0.13259E+00 14920   0.650E+00    0.665E+00
DAV:   7    -0.319740636415E+02    0.76470E+00   -0.82174E-01 14784   0.505E+00    0.279E+00
DAV:   8    -0.318403926210E+02    0.13367E+00   -0.31536E-01 14832   0.323E+00    0.557E-01
DAV:   9    -0.318445203750E+02   -0.41278E-02   -0.23004E-02 13816   0.101E+00    0.194E-01
DAV:  10    -0.318453107543E+02   -0.79038E-03   -0.32966E-03 14368   0.339E-01    0.965E-02
DAV:  11    -0.318456901926E+02   -0.37944E-03   -0.41185E-04 13616   0.133E-01    0.225E-02
DAV:  12    -0.318457484373E+02   -0.58245E-04   -0.91230E-05 11264   0.578E-02
   1 F= -.31845748E+02 E0= -.31845731E+02  d E =-.318457E+02
       N       E                     dE             d eps       ncg     rms          rms(c)
DAV:   1    -0.356276160457E+02   -0.37819E+01   -0.52452E+02 11584   0.108E+02    0.635E+00
DAV:   2    -0.369354373886E+02   -0.13078E+01   -0.16545E+01 15496   0.231E+01    0.392E+00
DAV:   3    -0.370162404899E+02   -0.80803E-01   -0.38782E-01 12784   0.371E+00    0.182E+00
DAV:   4    -0.371298405434E+02   -0.11360E+00   -0.15948E-01 14912   0.247E+00    0.400E-01
DAV:   5    -0.371408430265E+02   -0.11002E-01   -0.13659E-02 12968   0.749E-01    0.195E-01
DAV:   6    -0.371422200132E+02   -0.13770E-02   -0.21087E-03 14856   0.346E-01    0.446E-02
DAV:   7    -0.371424349562E+02   -0.21494E-03   -0.97553E-04 14328   0.170E-01    0.235E-02
DAV:   8    -0.371424474428E+02   -0.12487E-04   -0.35995E-05  6944   0.443E-02
   2 F= -.37142447E+02 E0= -.37142474E+02  d E =-.529670E+01
       N       E                     dE             d eps       ncg     rms          rms(c)
DAV:   1    -0.375674914017E+02   -0.42506E+00   -0.46531E+00 11584   0.124E+01    0.464E-01
DAV:   2    -0.375759508014E+02   -0.84594E-02   -0.10278E-01 15192   0.197E+00    0.260E-01
DAV:   3    -0.375760507755E+02   -0.99974E-04   -0.20138E-03 13880   0.304E-01    0.113E-01
DAV:   4    -0.375763274364E+02   -0.27666E-03   -0.10300E-03 15360   0.197E-01    0.260E-02
DAV:   5    -0.375763495885E+02   -0.22152E-04   -0.13608E-04  8792   0.681E-02
   3 F= -.37576350E+02 E0= -.37576304E+02  d E =-.573060E+01
       N       E                     dE             d eps       ncg     rms          rms(c)
DAV:   1    -0.380045496945E+02   -0.42822E+00   -0.44134E+00 11584   0.121E+01    0.449E-01
DAV:   2    -0.380136563054E+02   -0.91066E-02   -0.10408E-01 15472   0.199E+00    0.249E-01
DAV:   3    -0.380138115940E+02   -0.15529E-03   -0.16764E-03 13896   0.293E-01    0.102E-01
DAV:   4    -0.380140800011E+02   -0.26841E-03   -0.92830E-04 15272   0.183E-01    0.228E-02
DAV:   5    -0.380140980210E+02   -0.18020E-04   -0.95614E-05  7984   0.588E-02
   4 F= -.38014098E+02 E0= -.38014101E+02  d E =-.616835E+01
       N       E                     dE             d eps       ncg     rms          rms(c)
DAV:   1    -0.392594488997E+02   -0.12454E+01   -0.11364E+02 11584   0.602E+01    0.245E+00
DAV:   2    -0.396304431865E+02   -0.37099E+00   -0.42053E+00 16328   0.125E+01    0.142E+00
DAV:   3    -0.396220964772E+02    0.83467E-02   -0.48807E-02 13480   0.156E+00    0.586E-01
DAV:   4    -0.396260426371E+02   -0.39462E-02   -0.20804E-02 15680   0.860E-01    0.143E-01
DAV:   5    -0.396269213791E+02   -0.87874E-03   -0.17285E-03 12664   0.269E-01    0.576E-02
DAV:   6    -0.396270264544E+02   -0.10508E-03   -0.96765E-05 12416   0.888E-02    0.178E-02
DAV:   7    -0.396270449650E+02   -0.18511E-04   -0.67601E-05  6112   0.511E-02
   5 F= -.39627045E+02 E0= -.39627041E+02  d E =-.778130E+01
       N       E                     dE             d eps       ncg     rms          rms(c)
DAV:   1    -0.409124198174E+02   -0.12854E+01   -0.24579E+01 11904   0.324E+01    0.178E+00
DAV:   2    -0.409474254830E+02   -0.35006E-01   -0.68767E-01 16400   0.525E+00    0.120E+00
DAV:   3    -0.409337545420E+02    0.13671E-01   -0.47353E-02 13776   0.158E+00    0.123E-01
DAV:   4    -0.409347610997E+02   -0.10066E-02   -0.12669E-02 13520   0.726E-01    0.922E-02
DAV:   5    -0.409345915986E+02    0.16950E-03   -0.44180E-04 14552   0.162E-01    0.437E-02
DAV:   6    -0.409346699342E+02   -0.78336E-04   -0.28303E-04 12488   0.103E-01
   6 F= -.40934670E+02 E0= -.40934592E+02  d E =-.130762E+01
       N       E                     dE             d eps       ncg     rms          rms(c)
DAV:   1    -0.409671074918E+02   -0.32516E-01   -0.70199E-01 12112   0.565E+00    0.310E-01
DAV:   2    -0.409680883173E+02   -0.98083E-03   -0.21568E-02 16400   0.946E-01    0.213E-01
DAV:   3    -0.409676594121E+02    0.42891E-03   -0.14788E-03 14056   0.294E-01    0.228E-02
DAV:   4    -0.409677093840E+02   -0.49972E-04   -0.47039E-04 11696   0.135E-01
   7 F= -.40967709E+02 E0= -.40967645E+02  d E =-.134066E+01
       N       E                     dE             d eps       ncg     rms          rms(c)
DAV:   1    -0.415808235155E+02   -0.61316E+00   -0.33223E+00 11608   0.113E+01    0.541E-01
DAV:   2    -0.415830385151E+02   -0.22150E-02   -0.55763E-02 16696   0.144E+00    0.321E-01
DAV:   3    -0.415825903750E+02    0.44814E-03   -0.17750E-03 12640   0.294E-01    0.919E-02
DAV:   4    -0.415827373014E+02   -0.14693E-03   -0.63061E-04 15840   0.157E-01    0.245E-02
DAV:   5    -0.415827478408E+02   -0.10539E-04   -0.35617E-05  6256   0.413E-02
   8 F= -.41582748E+02 E0= -.41582929E+02  d E =-.615038E+00
       N       E                     dE             d eps       ncg     rms          rms(c)
DAV:   1    -0.431808626379E+02   -0.15981E+01   -0.29944E+01 11632   0.340E+01    0.137E+00
DAV:   2    -0.432213232025E+02   -0.40461E-01   -0.58269E-01 16448   0.468E+00    0.852E-01
DAV:   3    -0.432180823929E+02    0.32408E-02   -0.18086E-02 13392   0.993E-01    0.181E-01
DAV:   4    -0.432191404208E+02   -0.10580E-02   -0.65545E-03 15608   0.499E-01    0.798E-02
DAV:   5    -0.432191759718E+02   -0.35551E-04   -0.24584E-04 13632   0.116E-01
   9 F= -.43219176E+02 E0= -.43219062E+02  d E =-.225147E+01
       N       E                     dE             d eps       ncg     rms          rms(c)
DAV:   1    -0.442595167543E+02   -0.10404E+01   -0.11480E+02 11584   0.670E+01    0.244E+00
DAV:   2    -0.444492804282E+02   -0.18976E+00   -0.30852E+00 16496   0.111E+01    0.154E+00
DAV:   3    -0.444264793280E+02    0.22801E-01   -0.95512E-02 15064   0.255E+00    0.463E-01
DAV:   4    -0.444325224402E+02   -0.60431E-02   -0.48674E-02 16352   0.140E+00    0.199E-01
DAV:   5    -0.444329562044E+02   -0.43376E-03   -0.19794E-03 14792   0.324E-01    0.802E-02
DAV:   6    -0.444331044701E+02   -0.14827E-03   -0.47139E-04 16608   0.150E-01    0.236E-02
DAV:   7    -0.444331145629E+02   -0.10093E-04   -0.67414E-05  7008   0.565E-02
  10 F= -.44433115E+02 E0= -.44432916E+02  d E =-.346541E+01
       N       E                     dE             d eps       ncg     rms          rms(c)
DAV:   1    -0.452942334572E+02   -0.86113E+00   -0.11579E+01 12112   0.232E+01    0.113E+00
DAV:   2    -0.453153931221E+02   -0.21160E-01   -0.36338E-01 16544   0.403E+00    0.821E-01
DAV:   3    -0.453081414710E+02    0.72517E-02   -0.19423E-02 15192   0.124E+00    0.741E-02
DAV:   4    -0.453089685847E+02   -0.82711E-03   -0.78756E-03 13616   0.524E-01    0.531E-02
DAV:   5    -0.453089155407E+02    0.53044E-04   -0.16934E-04 14200   0.133E-01
  11 F= -.45308916E+02 E0= -.45308538E+02  d E =-.875801E+00
       N       E                     dE             d eps       ncg     rms          rms(c)
DAV:   1    -0.454572431274E+02   -0.14827E+00   -0.28134E+00 12480   0.113E+01    0.520E-01
DAV:   2    -0.454621978508E+02   -0.49547E-02   -0.78633E-02 16320   0.186E+00    0.366E-01
DAV:   3    -0.454608942771E+02    0.13036E-02   -0.37211E-03 15136   0.534E-01    0.343E-02
DAV:   4    -0.454610553239E+02   -0.16105E-03   -0.15361E-03 13496   0.231E-01    0.249E-02
DAV:   5    -0.454610416393E+02    0.13685E-04   -0.30707E-05  9016   0.585E-02
  12 F= -.45461042E+02 E0= -.45460672E+02  d E =-.102793E+01
       N       E                     dE             d eps       ncg     rms          rms(c)
DAV:   1    -0.453844932813E+02    0.76562E-01   -0.11047E+01 12328   0.222E+01    0.100E+00
DAV:   2    -0.454045248206E+02   -0.20032E-01   -0.29870E-01 16320   0.359E+00    0.677E-01
DAV:   3    -0.454005732894E+02    0.39515E-02   -0.11197E-02 14768   0.882E-01    0.897E-02
DAV:   4    -0.454010925733E+02   -0.51928E-03   -0.44838E-03 14400   0.392E-01    0.440E-02
DAV:   5    -0.454010446595E+02    0.47914E-04   -0.11626E-04 13664   0.104E-01
  13 F= -.45401045E+02 E0= -.45400720E+02  d E =-.967930E+00
       N       E                     dE             d eps       ncg     rms          rms(c)
DAV:   1    -0.454814030782E+02   -0.80311E-01   -0.41399E+00 12320   0.135E+01    0.597E-01
DAV:   2    -0.454891685610E+02   -0.77655E-02   -0.11188E-01 16408   0.219E+00    0.414E-01
DAV:   3    -0.454875852572E+02    0.15833E-02   -0.42858E-03 14944   0.554E-01    0.460E-02
DAV:   4    -0.454877776656E+02   -0.19241E-03   -0.18197E-03 14040   0.249E-01    0.290E-02
DAV:   5    -0.454877552598E+02    0.22406E-04   -0.35190E-05  9192   0.602E-02
  14 F= -.45487755E+02 E0= -.45487398E+02  d E =-.105464E+01
       N       E                     dE             d eps       ncg     rms          rms(c)
DAV:   1    -0.457810656886E+02   -0.29329E+00   -0.10705E+00 13544   0.665E+00    0.375E-01
DAV:   2    -0.457822292773E+02   -0.11636E-02   -0.27471E-02 15048   0.108E+00    0.240E-01
DAV:   3    -0.457814956421E+02    0.73364E-03   -0.14613E-03 15560   0.298E-01    0.156E-02
DAV:   4    -0.457815382559E+02   -0.42614E-04   -0.42471E-04 12192   0.135E-01
  15 F= -.45781538E+02 E0= -.45781143E+02  d E =-.293783E+00
       N       E                     dE             d eps       ncg     rms          rms(c)
DAV:   1    -0.462782323968E+02   -0.49674E+00   -0.10193E+01 14248   0.208E+01    0.126E+00
DAV:   2    -0.462885822009E+02   -0.10350E-01   -0.29790E-01 14736   0.351E+00    0.831E-01
DAV:   3    -0.462791810644E+02    0.94011E-02   -0.21389E-02 15776   0.118E+00    0.546E-02
DAV:   4    -0.462797030541E+02   -0.52199E-03   -0.59408E-03 12864   0.530E-01    0.562E-02
DAV:   5    -0.462796703859E+02    0.32668E-04   -0.78661E-05 12296   0.837E-02
  16 F= -.46279670E+02 E0= -.46279237E+02  d E =-.791915E+00
       N       E                     dE             d eps       ncg     rms          rms(c)
DAV:   1    -0.462835022475E+02   -0.37992E-02   -0.20868E-01 14608   0.309E+00    0.194E-01
DAV:   2    -0.462835837919E+02   -0.81544E-04   -0.57524E-03 14272   0.506E-01    0.128E-01
DAV:   3    -0.462833678236E+02    0.21597E-03   -0.55795E-04 16072   0.193E-01    0.921E-03
DAV:   4    -0.462833812312E+02   -0.13408E-04   -0.15739E-04  7928   0.876E-02
  17 F= -.46283381E+02 E0= -.46282952E+02  d E =-.795626E+00
       N       E                     dE             d eps       ncg     rms          rms(c)
DAV:   1    -0.464428893045E+02   -0.15952E+00   -0.17134E+00 14128   0.898E+00    0.541E-01
DAV:   2    -0.464454781367E+02   -0.25888E-02   -0.67578E-02 14896   0.174E+00    0.396E-01
DAV:   3    -0.464428649641E+02    0.26132E-02   -0.43653E-03 16048   0.702E-01    0.244E-02
DAV:   4    -0.464430856098E+02   -0.22065E-03   -0.24078E-03 12176   0.299E-01    0.283E-02
DAV:   5    -0.464430702330E+02    0.15377E-04   -0.29051E-05  8840   0.560E-02
  18 F= -.46443070E+02 E0= -.46442655E+02  d E =-.159689E+00
       N       E                     dE             d eps       ncg     rms          rms(c)
DAV:   1    -0.464595280701E+02   -0.16442E-01   -0.31529E-01 14064   0.387E+00    0.236E-01
DAV:   2    -0.464599456268E+02   -0.41756E-03   -0.12309E-02 14896   0.744E-01    0.173E-01
DAV:   3    -0.464594513165E+02    0.49431E-03   -0.88171E-04 16040   0.312E-01    0.118E-02
DAV:   4    -0.464594933517E+02   -0.42035E-04   -0.47113E-04 11864   0.134E-01
  19 F= -.46459493E+02 E0= -.46459084E+02  d E =-.176112E+00
       N       E                     dE             d eps       ncg     rms          rms(c)
DAV:   1    -0.466276616417E+02   -0.16821E+00   -0.10968E+00 13464   0.693E+00    0.335E-01
DAV:   2    -0.466304924834E+02   -0.28308E-02   -0.42279E-02 14920   0.130E+00    0.249E-01
DAV:   3    -0.466298347485E+02    0.65773E-03   -0.16708E-03 15448   0.353E-01    0.401E-02
DAV:   4    -0.466299223613E+02   -0.87613E-04   -0.75810E-04 12984   0.163E-01
  20 F= -.46629922E+02 E0= -.46629500E+02  d E =-.170429E+00
       N       E                     dE             d eps       ncg     rms          rms(c)
DAV:   1    -0.467472635634E+02   -0.11743E+00   -0.32100E+00 13288   0.118E+01    0.562E-01
DAV:   2    -0.467562569435E+02   -0.89934E-02   -0.12669E-01 15160   0.222E+00    0.416E-01
DAV:   3    -0.467544632726E+02    0.17937E-02   -0.44131E-03 15408   0.566E-01    0.753E-02
DAV:   4    -0.467547170035E+02   -0.25373E-03   -0.20639E-03 13840   0.269E-01    0.306E-02
DAV:   5    -0.467547039084E+02    0.13095E-04   -0.47138E-05  8296   0.571E-02
  21 F= -.46754704E+02 E0= -.46754263E+02  d E =-.295211E+00
       N       E                     dE             d eps       ncg     rms          rms(c)
DAV:   1    -0.469165084344E+02   -0.16179E+00   -0.17286E+00 12520   0.848E+00    0.488E-01
DAV:   2    -0.469184967439E+02   -0.19883E-02   -0.52857E-02 15288   0.145E+00    0.324E-01
DAV:   3    -0.469169525700E+02    0.15442E-02   -0.29574E-03 15608   0.442E-01    0.259E-02
DAV:   4    -0.469170555965E+02   -0.10303E-03   -0.10384E-03 12768   0.196E-01    0.232E-02
DAV:   5    -0.469170497599E+02    0.58367E-05   -0.81347E-06  6936   0.256E-02
  22 F= -.46917050E+02 E0= -.46916611E+02  d E =-.162346E+00
       N       E                     dE             d eps       ncg     rms          rms(c)
DAV:   1    -0.470400068191E+02   -0.12295E+00   -0.51472E+00 12496   0.146E+01    0.854E-01
DAV:   2    -0.470456111959E+02   -0.56044E-02   -0.15893E-01 15320   0.249E+00    0.575E-01
DAV:   3    -0.470406227119E+02    0.49885E-02   -0.99225E-03 15656   0.817E-01    0.425E-02
DAV:   4    -0.470409773878E+02   -0.35468E-03   -0.36171E-03 12704   0.366E-01    0.429E-02
DAV:   5    -0.470409584614E+02    0.18926E-04   -0.22011E-05  9136   0.433E-02
  23 F= -.47040958E+02 E0= -.47040521E+02  d E =-.286255E+00
       N       E                     dE             d eps       ncg     rms          rms(c)
DAV:   1    -0.471796992045E+02   -0.13872E+00   -0.26560E+00 11928   0.103E+01    0.598E-01
DAV:   2    -0.471815592469E+02   -0.18600E-02   -0.66519E-02 15592   0.155E+00    0.399E-01
DAV:   3    -0.471793352489E+02    0.22240E-02   -0.45010E-03 15032   0.495E-01    0.268E-02
DAV:   4    -0.471794363649E+02   -0.10112E-03   -0.11758E-03 13480   0.216E-01    0.253E-02
DAV:   5    -0.471794245694E+02    0.11795E-04   -0.20309E-05  7304   0.376E-02
  24 F= -.47179425E+02 E0= -.47178994E+02  d E =-.138466E+00
       N       E                     dE             d eps       ncg     rms          rms(c)
DAV:   1    -0.472336825482E+02   -0.54246E-01   -0.29811E+00 11952   0.109E+01    0.643E-01
DAV:   2    -0.472354706398E+02   -0.17881E-02   -0.74689E-02 15504   0.164E+00    0.437E-01
DAV:   3    -0.472327640813E+02    0.27066E-02   -0.56686E-03 14952   0.585E-01    0.288E-02
DAV:   4    -0.472329187179E+02   -0.15464E-03   -0.17479E-03 13400   0.261E-01    0.294E-02
DAV:   5    -0.472329027411E+02    0.15977E-04   -0.22861E-05  7800   0.435E-02
  25 F= -.47232903E+02 E0= -.47232478E+02  d E =-.191944E+00
       N       E                     dE             d eps       ncg     rms          rms(c)
DAV:   1    -0.473264260961E+02   -0.93507E-01   -0.15360E+00 11816   0.787E+00    0.388E-01
DAV:   2    -0.473286360554E+02   -0.22100E-02   -0.37090E-02 15904   0.113E+00    0.272E-01
DAV:   3    -0.473280622867E+02    0.57377E-03   -0.22948E-03 14168   0.325E-01    0.312E-02
DAV:   4    -0.473281217705E+02   -0.59484E-04   -0.55526E-04 14216   0.143E-01
  26 F= -.47328122E+02 E0= -.47327704E+02  d E =-.952190E-01
       N       E                     dE             d eps       ncg     rms          rms(c)
DAV:   1    -0.473888847669E+02   -0.60822E-01   -0.44607E+00 11784   0.133E+01    0.643E-01
DAV:   2    -0.473958234300E+02   -0.69387E-02   -0.10636E-01 15728   0.191E+00    0.455E-01
DAV:   3    -0.473942839377E+02    0.15395E-02   -0.65182E-03 14160   0.545E-01    0.526E-02
DAV:   4    -0.473944609541E+02   -0.17702E-03   -0.16227E-03 14416   0.243E-01    0.354E-02
DAV:   5    -0.473944414062E+02    0.19548E-04   -0.45512E-05  8072   0.459E-02
  27 F= -.47394441E+02 E0= -.47394033E+02  d E =-.161539E+00
       N       E                     dE             d eps       ncg     rms          rms(c)
DAV:   1    -0.474399497819E+02   -0.45489E-01   -0.95237E-01 12928   0.636E+00    0.347E-01
DAV:   2    -0.474412567273E+02   -0.13069E-02   -0.28162E-02 15344   0.107E+00    0.257E-01
DAV:   3    -0.474402856493E+02    0.97108E-03   -0.16607E-03 15704   0.398E-01    0.255E-02
DAV:   4    -0.474403960328E+02   -0.11038E-03   -0.10685E-03 12632   0.186E-01    0.197E-02
DAV:   5    -0.474403908582E+02    0.51746E-05   -0.74618E-06  6904   0.250E-02
  28 F= -.47440391E+02 E0= -.47439990E+02  d E =-.459495E-01
       N       E                     dE             d eps       ncg     rms          rms(c)
DAV:   1    -0.474454676394E+02   -0.50716E-02   -0.20430E-01 13080   0.294E+00    0.163E-01
DAV:   2    -0.474457319332E+02   -0.26429E-03   -0.60361E-03 15264   0.496E-01    0.120E-01
DAV:   3    -0.474455183592E+02    0.21357E-03   -0.37009E-04 15856   0.188E-01    0.114E-02
DAV:   4    -0.474455427236E+02   -0.24364E-04   -0.23631E-04 10088   0.872E-02
  29 F= -.47445543E+02 E0= -.47445145E+02  d E =-.511013E-01
       N       E                     dE             d eps       ncg     rms          rms(c)
DAV:   1    -0.474660993372E+02   -0.20581E-01   -0.33269E-01 12304   0.363E+00    0.198E-01
DAV:   2    -0.474663259788E+02   -0.22664E-03   -0.70265E-03 15560   0.512E-01    0.135E-01
DAV:   3    -0.474661086439E+02    0.21733E-03   -0.57240E-04 14912   0.186E-01    0.119E-02
DAV:   4    -0.474661256891E+02   -0.17045E-04   -0.20049E-04 10528   0.853E-02
  30 F= -.47466126E+02 E0= -.47465731E+02  d E =-.205830E-01
       N       E                     dE             d eps       ncg     rms          rms(c)
DAV:   1    -0.474760193632E+02   -0.99107E-02   -0.65422E-01 12312   0.510E+00    0.279E-01
DAV:   2    -0.474764955249E+02   -0.47616E-03   -0.14160E-02 15472   0.728E-01    0.191E-01
DAV:   3    -0.474760505730E+02    0.44495E-03   -0.11167E-03 15016   0.265E-01    0.162E-02
DAV:   4    -0.474760877488E+02   -0.37176E-04   -0.41783E-04 12104   0.123E-01
  31 F= -.47476088E+02 E0= -.47475698E+02  d E =-.305450E-01
       N       E                     dE             d eps       ncg     rms          rms(c)
DAV:   1    -0.474900294786E+02   -0.13979E-01   -0.12690E-01 11800   0.221E+00    0.116E-01
DAV:   2    -0.474901658114E+02   -0.13633E-03   -0.23856E-03 15944   0.297E-01    0.797E-02
DAV:   3    -0.474901356796E+02    0.30132E-04   -0.20898E-04 13992   0.975E-02
  32 F= -.47490136E+02 E0= -.47489749E+02  d E =-.140479E-01
       N       E                     dE             d eps       ncg     rms          rms(c)
DAV:   1    -0.475183268089E+02   -0.28161E-01   -0.11336E+00 11760   0.662E+00    0.339E-01
DAV:   2    -0.475194505016E+02   -0.11237E-02   -0.21290E-02 16008   0.887E-01    0.233E-01
DAV:   3    -0.475191047986E+02    0.34570E-03   -0.18833E-03 14224   0.291E-01    0.277E-02
DAV:   4    -0.475191287860E+02   -0.23987E-04   -0.41992E-04 13592   0.124E-01
  33 F= -.47519129E+02 E0= -.47518751E+02  d E =-.430410E-01
       N       E                     dE             d eps       ncg     rms          rms(c)
DAV:   1    -0.475155929832E+02    0.35118E-02   -0.45269E+00 11760   0.132E+01    0.679E-01
DAV:   2    -0.475201501402E+02   -0.45572E-02   -0.87163E-02 15976   0.179E+00    0.467E-01
DAV:   3    -0.475186756455E+02    0.14745E-02   -0.73118E-03 14288   0.582E-01    0.550E-02
DAV:   4    -0.475188021541E+02   -0.12651E-03   -0.17819E-03 14112   0.253E-01    0.400E-02
DAV:   5    -0.475187895743E+02    0.12580E-04   -0.45609E-05  9064   0.469E-02
  34 F= -.47518790E+02 E0= -.47518434E+02  d E =-.427018E-01
       N       E                     dE             d eps       ncg     rms          rms(c)
DAV:   1    -0.475277478442E+02   -0.89457E-02   -0.11794E+00 11744   0.679E+00    0.340E-01
DAV:   2    -0.475288939699E+02   -0.11461E-02   -0.22182E-02 15928   0.905E-01    0.237E-01
DAV:   3    -0.475284732305E+02    0.42074E-03   -0.19759E-03 14400   0.303E-01    0.287E-02
DAV:   4    -0.475284988425E+02   -0.25612E-04   -0.46704E-04 13560   0.131E-01
  35 F= -.47528499E+02 E0= -.47528132E+02  d E =-.524111E-01
       N       E                     dE             d eps       ncg     rms          rms(c)
DAV:   1    -0.475526115772E+02   -0.24138E-01   -0.34825E-01 12048   0.372E+00    0.199E-01
DAV:   2    -0.475528828110E+02   -0.27123E-03   -0.66680E-03 15816   0.498E-01    0.139E-01
DAV:   3    -0.475527139095E+02    0.16890E-03   -0.59385E-04 14944   0.181E-01    0.151E-02
DAV:   4    -0.475527269529E+02   -0.13043E-04   -0.15681E-04 10472   0.732E-02
  36 F= -.47552727E+02 E0= -.47552367E+02  d E =-.242281E-01
       N       E                     dE             d eps       ncg     rms          rms(c)
DAV:   1    -0.475769889785E+02   -0.24275E-01   -0.18906E+00 12120   0.867E+00    0.467E-01
DAV:   2    -0.475787310159E+02   -0.17420E-02   -0.36219E-02 15760   0.116E+00    0.324E-01
DAV:   3    -0.475780150969E+02    0.71592E-03   -0.30825E-03 15040   0.417E-01    0.356E-02
DAV:   4    -0.475780933739E+02   -0.78277E-04   -0.84423E-04 13368   0.170E-01
  37 F= -.47578093E+02 E0= -.47577752E+02  d E =-.495945E-01
       N       E                     dE             d eps       ncg     rms          rms(c)
DAV:   1    -0.476009694838E+02   -0.22954E-01   -0.33367E-01 11960   0.365E+00    0.186E-01
DAV:   2    -0.476014082663E+02   -0.43878E-03   -0.73204E-03 15864   0.526E-01    0.133E-01
DAV:   3    -0.476012780682E+02    0.13020E-03   -0.56217E-04 14856   0.173E-01    0.151E-02
DAV:   4    -0.476012901722E+02   -0.12104E-04   -0.16611E-04 10768   0.764E-02
  38 F= -.47601290E+02 E0= -.47600955E+02  d E =-.231968E-01
       N       E                     dE             d eps       ncg     rms          rms(c)
DAV:   1    -0.476223528158E+02   -0.21075E-01   -0.20617E+00 11880   0.907E+00    0.462E-01
DAV:   2    -0.476248036345E+02   -0.24508E-02   -0.45036E-02 15784   0.131E+00    0.332E-01
DAV:   3    -0.476238060570E+02    0.99758E-03   -0.36113E-03 14968   0.445E-01    0.377E-02
DAV:   4    -0.476238790145E+02   -0.72957E-04   -0.10804E-03 13000   0.195E-01    0.277E-02
DAV:   5    -0.476238702655E+02    0.87490E-05   -0.22844E-05  7232   0.307E-02
  39 F= -.47623870E+02 E0= -.47623551E+02  d E =-.457769E-01
       N       E                     dE             d eps       ncg     rms          rms(c)
DAV:   1    -0.476416326083E+02   -0.17754E-01   -0.32571E-01 11632   0.355E+00    0.192E-01
DAV:   2    -0.476419103168E+02   -0.27771E-03   -0.66895E-03 15992   0.498E-01    0.133E-01
DAV:   3    -0.476417641732E+02    0.14614E-03   -0.71322E-04 13608   0.162E-01    0.186E-02
DAV:   4    -0.476417637124E+02    0.46081E-06   -0.11493E-04  8280   0.644E-02
  40 F= -.47641764E+02 E0= -.47641451E+02  d E =-.178934E-01
       N       E                     dE             d eps       ncg     rms          rms(c)
DAV:   1    -0.476701307805E+02   -0.28367E-01   -0.29341E+00 11632   0.107E+01    0.580E-01
DAV:   2    -0.476726738697E+02   -0.25431E-02   -0.61797E-02 15848   0.151E+00    0.399E-01
DAV:   3    -0.476713296306E+02    0.13442E-02   -0.60876E-03 13656   0.480E-01    0.508E-02
DAV:   4    -0.476713618494E+02   -0.32219E-04   -0.10605E-03 14368   0.192E-01    0.337E-02
DAV:   5    -0.476713511923E+02    0.10657E-04   -0.40218E-05  7832   0.415E-02
  41 F= -.47671351E+02 E0= -.47671058E+02  d E =-.474809E-01
       N       E                     dE             d eps       ncg     rms          rms(c)
DAV:   1    -0.476727802249E+02   -0.14184E-02   -0.22878E-01 11656   0.298E+00    0.162E-01
DAV:   2    -0.476729798292E+02   -0.19960E-03   -0.48193E-03 15792   0.425E-01    0.113E-01
DAV:   3    -0.476728731819E+02    0.10665E-03   -0.50508E-04 13864   0.141E-01    0.159E-02
DAV:   4    -0.476728732022E+02   -0.20290E-07   -0.89456E-05  7016   0.566E-02
  42 F= -.47672873E+02 E0= -.47672586E+02  d E =-.490029E-01
       N       E                     dE             d eps       ncg     rms          rms(c)
DAV:   1    -0.476993481394E+02   -0.26475E-01   -0.73030E-01 11800   0.541E+00    0.349E-01
DAV:   2    -0.476991808875E+02    0.16725E-03   -0.13611E-02 15408   0.721E-01    0.229E-01
DAV:   3    -0.476986295732E+02    0.55131E-03   -0.19507E-03 15088   0.289E-01    0.279E-02
DAV:   4    -0.476986375396E+02   -0.79664E-05   -0.33388E-04 12536   0.112E-01
  43 F= -.47698638E+02 E0= -.47698360E+02  d E =-.257643E-01
       N       E                     dE             d eps       ncg     rms          rms(c)
DAV:   1    -0.477046112967E+02   -0.59817E-02   -0.35251E-01 11792   0.376E+00    0.242E-01
DAV:   2    -0.477045845658E+02    0.26731E-04   -0.67632E-03 15424   0.507E-01    0.159E-01
DAV:   3    -0.477043328389E+02    0.25173E-03   -0.92568E-04 15104   0.199E-01    0.196E-02
DAV:   4    -0.477043361351E+02   -0.32962E-05   -0.15841E-04 10584   0.776E-02
  44 F= -.47704336E+02 E0= -.47704066E+02  d E =-.314629E-01
       N       E                     dE             d eps       ncg     rms          rms(c)
DAV:   1    -0.477223388761E+02   -0.18006E-01   -0.26569E-01 11632   0.328E+00    0.190E-01
DAV:   2    -0.477227026712E+02   -0.36380E-03   -0.79874E-03 15360   0.549E-01    0.135E-01
DAV:   3    -0.477225086094E+02    0.19406E-03   -0.62859E-04 14904   0.176E-01    0.146E-02
DAV:   4    -0.477225200592E+02   -0.11450E-04   -0.15840E-04  8136   0.778E-02
  45 F= -.47722520E+02 E0= -.47722253E+02  d E =-.181839E-01
       N       E                     dE             d eps       ncg     rms          rms(c)
DAV:   1    -0.477404517064E+02   -0.17943E-01   -0.16217E+00 11632   0.813E+00    0.471E-01
DAV:   2    -0.477426566263E+02   -0.22049E-02   -0.49294E-02 15328   0.136E+00    0.332E-01
DAV:   3    -0.477414415912E+02    0.12150E-02   -0.37192E-03 14912   0.426E-01    0.356E-02
DAV:   4    -0.477415203101E+02   -0.78719E-04   -0.94901E-04 13184   0.189E-01
  46 F= -.47741520E+02 E0= -.47741260E+02  d E =-.371842E-01
       N       E                     dE             d eps       ncg     rms          rms(c)
DAV:   1    -0.477565202487E+02   -0.15079E-01   -0.26322E-01 11616   0.329E+00    0.192E-01
DAV:   2    -0.477568177907E+02   -0.29754E-03   -0.74582E-03 15864   0.538E-01    0.136E-01
DAV:   3    -0.477566272939E+02    0.19050E-03   -0.67361E-04 13992   0.178E-01    0.170E-02
DAV:   4    -0.477566331206E+02   -0.58267E-05   -0.16274E-04  9240   0.766E-02
  47 F= -.47756633E+02 E0= -.47756375E+02  d E =-.151128E-01
       N       E                     dE             d eps       ncg     rms          rms(c)
DAV:   1    -0.477675165697E+02   -0.10889E-01   -0.96616E-01 11608   0.632E+00    0.366E-01
DAV:   2    -0.477685170458E+02   -0.10005E-02   -0.27654E-02 15840   0.104E+00    0.260E-01
DAV:   3    -0.477677344514E+02    0.78259E-03   -0.24615E-03 13960   0.338E-01    0.310E-02
DAV:   4    -0.477677605097E+02   -0.26058E-04   -0.58920E-04 13240   0.144E-01
  48 F= -.47767761E+02 E0= -.47767507E+02  d E =-.262402E-01
       N       E                     dE             d eps       ncg     rms          rms(c)
DAV:   1    -0.477782461271E+02   -0.10512E-01   -0.19195E-01 11592   0.281E+00    0.185E-01
DAV:   2    -0.477782284162E+02    0.17711E-04   -0.44810E-03 15400   0.422E-01    0.124E-01
DAV:   3    -0.477780405421E+02    0.18787E-03   -0.61570E-04 15048   0.157E-01    0.179E-02
DAV:   4    -0.477780378957E+02    0.26465E-05   -0.94934E-05  6952   0.615E-02
  49 F= -.47778038E+02 E0= -.47777785E+02  d E =-.102774E-01
       N       E                     dE             d eps       ncg     rms          rms(c)
DAV:   1    -0.477870350560E+02   -0.89945E-02   -0.70763E-01 11592   0.541E+00    0.354E-01
DAV:   2    -0.477868825839E+02    0.15247E-03   -0.16517E-02 15504   0.808E-01    0.237E-01
DAV:   3    -0.477861528646E+02    0.72972E-03   -0.22728E-03 14856   0.301E-01    0.343E-02
DAV:   4    -0.477861443113E+02    0.85533E-05   -0.36363E-04 12640   0.118E-01
  50 F= -.47786144E+02 E0= -.47785891E+02  d E =-.183838E-01
       N       E                     dE             d eps       ncg     rms          rms(c)
DAV:   1    -0.477968064131E+02   -0.10654E-01   -0.16526E-01 11600   0.264E+00    0.153E-01
DAV:   2    -0.477970188657E+02   -0.21245E-03   -0.50125E-03 15544   0.441E-01    0.110E-01
DAV:   3    -0.477968856079E+02    0.13326E-03   -0.44196E-04 14216   0.138E-01    0.140E-02
DAV:   4    -0.477968866820E+02   -0.10742E-05   -0.83282E-05  6544   0.569E-02
  51 F= -.47796887E+02 E0= -.47796631E+02  d E =-.107424E-01
       N       E                     dE             d eps       ncg     rms          rms(c)
DAV:   1    -0.478098695065E+02   -0.12984E-01   -0.14720E+00 11584   0.790E+00    0.456E-01
DAV:   2    -0.478116180187E+02   -0.17485E-02   -0.44975E-02 15600   0.132E+00    0.327E-01
DAV:   3    -0.478103297035E+02    0.12883E-02   -0.38668E-03 14256   0.406E-01    0.389E-02
DAV:   4    -0.478103544908E+02   -0.24787E-04   -0.75100E-04 13800   0.168E-01
  52 F= -.47810354E+02 E0= -.47810094E+02  d E =-.242102E-01
       N       E                     dE             d eps       ncg     rms          rms(c)
DAV:   1    -0.478173415142E+02   -0.70118E-02   -0.16619E-01 12032   0.271E+00    0.153E-01
DAV:   2    -0.478175120321E+02   -0.17052E-03   -0.44240E-03 15608   0.426E-01    0.113E-01
DAV:   3    -0.478173805503E+02    0.13148E-03   -0.43949E-04 14416   0.156E-01    0.189E-02
DAV:   4    -0.478173787201E+02    0.18303E-05   -0.12246E-04  7544   0.677E-02
  53 F= -.47817379E+02 E0= -.47817113E+02  d E =-.702423E-02
       N       E                     dE             d eps       ncg     rms          rms(c)
DAV:   1    -0.478190737191E+02   -0.16932E-02   -0.10598E-01 11992   0.216E+00    0.122E-01
DAV:   2    -0.478191755708E+02   -0.10185E-03   -0.28200E-03 15640   0.341E-01    0.900E-02
DAV:   3    -0.478190870955E+02    0.88475E-04   -0.28379E-04 14424   0.124E-01
  54 F= -.47819087E+02 E0= -.47818818E+02  d E =-.873260E-02
       N       E                     dE             d eps       ncg     rms          rms(c)
DAV:   1    -0.478272751539E+02   -0.80996E-02   -0.17783E-01 11616   0.277E+00    0.160E-01
DAV:   2    -0.478274563506E+02   -0.18120E-03   -0.50547E-03 15392   0.451E-01    0.117E-01
DAV:   3    -0.478273075856E+02    0.14876E-03   -0.56193E-04 14120   0.148E-01    0.202E-02
DAV:   4    -0.478273005663E+02    0.70193E-05   -0.88060E-05  6784   0.585E-02
  55 F= -.47827301E+02 E0= -.47827025E+02  d E =-.821347E-02
       N       E                     dE             d eps       ncg     rms          rms(c)
DAV:   1    -0.478360261962E+02   -0.87186E-02   -0.10160E+00 11584   0.662E+00    0.385E-01
DAV:   2    -0.478368676651E+02   -0.84147E-03   -0.28574E-02 15424   0.107E+00    0.278E-01
DAV:   3    -0.478359649380E+02    0.90273E-03   -0.33017E-03 14184   0.359E-01    0.493E-02
DAV:   4    -0.478359238470E+02    0.41091E-04   -0.54222E-04 13128   0.142E-01
  56 F= -.47835924E+02 E0= -.47835635E+02  d E =-.168368E-01
       N       E                     dE             d eps       ncg     rms          rms(c)
DAV:   1    -0.478420231376E+02   -0.60582E-02   -0.88945E-02 11584   0.196E+00    0.111E-01
DAV:   2    -0.478421294370E+02   -0.10630E-03   -0.24161E-03 15232   0.313E-01    0.822E-02
DAV:   3    -0.478420652037E+02    0.64233E-04   -0.25217E-04 14208   0.102E-01
  57 F= -.47842065E+02 E0= -.47841773E+02  d E =-.614136E-02
       N       E                     dE             d eps       ncg     rms          rms(c)
DAV:   1    -0.478532494377E+02   -0.11120E-01   -0.79082E-01 11584   0.587E+00    0.325E-01
DAV:   2    -0.478541088421E+02   -0.85940E-03   -0.21704E-02 15256   0.935E-01    0.241E-01
DAV:   3    -0.478534473541E+02    0.66149E-03   -0.22246E-03 14472   0.299E-01    0.384E-02
DAV:   4    -0.478534285026E+02    0.18851E-04   -0.37744E-04 12976   0.117E-01
  58 F= -.47853429E+02 E0= -.47853126E+02  d E =-.175047E-01
       N       E                     dE             d eps       ncg     rms          rms(c)
DAV:   1    -0.478445395364E+02    0.89078E-02   -0.31468E+00 11584   0.117E+01    0.651E-01
DAV:   2    -0.478478027934E+02   -0.32633E-02   -0.87163E-02 15128   0.187E+00    0.480E-01
DAV:   3    -0.478451155149E+02    0.26873E-02   -0.87722E-03 14560   0.590E-01    0.722E-02
DAV:   4    -0.478450610467E+02    0.54468E-04   -0.14658E-03 13224   0.231E-01    0.331E-02
DAV:   5    -0.478450618847E+02   -0.83799E-06   -0.58532E-05  8512   0.445E-02
  59 F= -.47845062E+02 E0= -.47844737E+02  d E =-.913804E-02
       N       E                     dE             d eps       ncg     rms          rms(c)
DAV:   1    -0.478551215945E+02   -0.10061E-01   -0.16046E+00 11584   0.837E+00    0.458E-01
DAV:   2    -0.478567627949E+02   -0.16412E-02   -0.43544E-02 15048   0.133E+00    0.342E-01
DAV:   3    -0.478553536205E+02    0.14092E-02   -0.48133E-03 14576   0.436E-01    0.632E-02
DAV:   4    -0.478552843303E+02    0.69290E-04   -0.80762E-04 13008   0.172E-01
  60 F= -.47855284E+02 E0= -.47854976E+02  d E =-.193605E-01
