       N       E                     dE             d eps       ncg     rms          rms(c)
DAV:   1     0.215396726330E+03    0.21540E+03   -0.13134E+04 19288   0.790E+02
DAV:   2    -0.348455663421E+02   -0.25024E+03   -0.24382E+03 22956   0.356E+02
DAV:   3    -0.496248705952E+02   -0.14779E+02   -0.14585E+02 32200   0.732E+01
DAV:   4    -0.503046235506E+02   -0.67975E+00   -0.67747E+00 31344   0.118E+01
DAV:   5    -0.503161630425E+02   -0.11539E-01   -0.11536E-01 31416   0.145E+00    0.407E+01
DAV:   6    -0.468036076497E+02    0.35126E+01   -0.89911E+00 29360   0.207E+01    0.164E+01
DAV:   7    -0.464019115838E+02    0.40170E+00   -0.29073E+00 29176   0.104E+01    0.646E+00
DAV:   8    -0.463119442552E+02    0.89967E-01   -0.14832E+00 30136   0.810E+00    0.412E+00
DAV:   9    -0.462856079979E+02    0.26336E-01   -0.31016E-01 30144   0.347E+00    0.120E+00
DAV:  10    -0.462855713843E+02    0.36614E-04   -0.23656E-02 27672   0.986E-01    0.318E-01
DAV:  11    -0.462861155648E+02   -0.54418E-03   -0.36312E-03 25864   0.401E-01    0.165E-01
DAV:  12    -0.462861320386E+02   -0.16474E-04   -0.25981E-04 21864   0.123E-01
   1 F= -.46286132E+02 E0= -.46286106E+02  d E =-.462861E+02
       N       E                     dE             d eps       ncg     rms          rms(c)
DAV:   1    -0.462875471959E+02   -0.14316E-02   -0.10761E-01 20648   0.297E+00    0.434E-01
DAV:   2    -0.462875438468E+02    0.33491E-05   -0.16598E-02 22668   0.938E-01    0.119E-01
DAV:   3    -0.462873416690E+02    0.20218E-03   -0.89887E-04 29008   0.215E-01    0.744E-02
DAV:   4    -0.462872955197E+02    0.46149E-04   -0.13465E-04 13944   0.893E-02
   2 F= -.46287296E+02 E0= -.46287313E+02  d E =-.116348E-02
       N       E                     dE             d eps       ncg     rms          rms(c)
DAV:   1    -0.462874464510E+02   -0.10478E-03   -0.38362E-02 20036   0.178E+00    0.244E-01
DAV:   2    -0.462873939804E+02    0.52471E-04   -0.58655E-03 22404   0.556E-01    0.798E-02
DAV:   3    -0.462873101122E+02    0.83868E-04   -0.28289E-04 18976   0.131E-01
   3 F= -.46287310E+02 E0= -.46287358E+02  d E =-.117807E-02
