   18   18   99    2
  0.7690140E+01  0.4788799E-09  0.4841958E-09  0.6145204E-09  0.5000000E-15
  1.000000000000000E-004
  CAR 
 unknown system                          
     37     51     48
 
  0.3742002E-15  0.3742002E-15  0.3742002E-15  0.1000000E-01
    1      -35.582370    -35.575786   1.000000   1.000000
    2      -30.682968    -30.338472   1.000000   1.000000
    3      -30.657587    -30.142255   1.000000   1.000000
    4      -30.425414    -29.953097   1.000000   1.000000
    5      -17.700499    -17.692192   1.000000   1.000000
    6      -17.538464    -17.529264   1.000000   1.000000
    7      -17.501055    -17.492854   1.000000   1.000000
    8       -9.702862     -9.594547   1.000000   1.000000
    9       -8.013302     -7.945535   1.000000   1.000000
   10       -7.776007     -7.724902   1.000000   1.000000
   11       -6.426998     -6.389985   1.000000   1.000000
   12       -6.130900     -6.110536   1.000000   1.000000
   13       -5.092541     -5.043668   1.000000   1.000000
   14       -3.446388     -3.335841   1.000000   1.000000
   15       -3.121382     -2.990560   1.000000   1.000000
   16       -2.669921     -2.555657   1.000000   1.000000
   17       -2.183967     -2.085157   1.000000   1.000000
   18       -2.008146     -1.925986   1.000000   1.000000
   19       -0.251914      0.719817   1.000000   0.000000
   20        1.814023      2.044179   0.000000   0.000000
   21        3.004256      3.181016   0.000000   0.000000
   22        3.355979      3.465392   0.000000   0.000000
   23        3.414840      3.585741   0.000000   0.000000
   24        3.648874      3.735003   0.000000   0.000000
   25        4.357189      4.420010   0.000000   0.000000
   26        4.523086      4.616606   0.000000   0.000000
   27        4.973889      5.133251   0.000000   0.000000
   28        5.253415      5.408604   0.000000   0.000000
   29        5.652051      5.765261   0.000000   0.000000
   30        6.007450      6.142103   0.000000   0.000000
   31        6.388368      6.587905   0.000000   0.000000
   32        6.844882      6.963742   0.000000   0.000000
   33        7.285616      7.359718   0.000000   0.000000
   34        7.530039      7.640376   0.000000   0.000000
   35        8.016402      8.130642   0.000000   0.000000
   36        8.396094      8.470701   0.000000   0.000000
   37        8.521563      8.581921   0.000000   0.000000
   38        8.887608      8.997320   0.000000   0.000000
   39        9.435419      9.541704   0.000000   0.000000
   40        9.836948     10.014309   0.000000   0.000000
   41       10.313099     10.463734   0.000000   0.000000
   42       11.013422     11.077022   0.000000   0.000000
   43       11.046961     11.144061   0.000000   0.000000
   44       11.546038     11.612181   0.000000   0.000000
   45       12.491062     12.575767   0.000000   0.000000
   46       12.585601     12.863720   0.000000   0.000000
   47       13.035227     13.156919   0.000000   0.000000
   48       14.105968     14.208387   0.000000   0.000000
 
  0.2000000E+00  0.3769771E-15  0.3677614E-15  0.2000000E-01
    1      -35.582175    -35.575584   1.000000   1.000000
    2      -30.682977    -30.338903   1.000000   1.000000
    3      -30.658505    -30.142769   1.000000   1.000000
    4      -30.425367    -29.953046   1.000000   1.000000
    5      -17.699264    -17.690976   1.000000   1.000000
    6      -17.537921    -17.528997   1.000000   1.000000
    7      -17.515870    -17.507299   1.000000   1.000000
    8       -9.529320     -9.424449   1.000000   1.000000
    9       -8.094803     -8.010636   1.000000   1.000000
   10       -7.766023     -7.729289   1.000000   1.000000
   11       -6.583073     -6.540997   1.000000   1.000000
   12       -6.086986     -6.069350   1.000000   1.000000
   13       -4.981869     -4.930602   1.000000   1.000000
   14       -3.568357     -3.475859   1.000000   1.000000
   15       -3.123701     -3.003956   1.000000   1.000000
   16       -2.652089     -2.521195   1.000000   1.000000
   17       -2.342459     -2.211515   1.000000   1.000000
   18       -2.005314     -1.923871   1.000000   1.000000
   19       -0.109916      0.875446   1.000000   0.000000
   20        1.992196      2.216403   0.000000   0.000000
   21        2.943793      3.124535   0.000000   0.000000
   22        3.048171      3.172418   0.000000   0.000000
   23        3.568991      3.734922   0.000000   0.000000
   24        3.884217      3.984236   0.000000   0.000000
   25        4.437689      4.509942   0.000000   0.000000
   26        4.605062      4.739978   0.000000   0.000000
   27        4.822309      4.917523   0.000000   0.000000
   28        5.194456      5.324473   0.000000   0.000000
   29        5.475372      5.567515   0.000000   0.000000
   30        6.026773      6.156406   0.000000   0.000000
   31        6.271315      6.452414   0.000000   0.000000
   32        6.809673      6.902502   0.000000   0.000000
   33        6.914222      7.006324   0.000000   0.000000
   34        7.273659      7.364232   0.000000   0.000000
   35        7.953990      8.058914   0.000000   0.000000
   36        8.186432      8.297845   0.000000   0.000000
   37        8.393558      8.538507   0.000000   0.000000
   38        9.134806      9.215110   0.000000   0.000000
   39        9.605176      9.700354   0.000000   0.000000
   40       10.382441     10.450185   0.000000   0.000000
   41       10.512120     10.673367   0.000000   0.000000
   42       11.226227     11.331781   0.000000   0.000000
   43       11.404219     11.543980   0.000000   0.000000
   44       12.134398     12.289194   0.000000   0.000000
   45       12.749694     12.833232   0.000000   0.000000
   46       12.916799     12.981647   0.000000   0.000000
   47       13.178563     13.330821   0.000000   0.000000
   48       13.924762     14.110398   0.000000   0.000000
 
  0.4000000E+00  0.3775192E-15  0.3747003E-15  0.2000000E-01
    1      -35.581860    -35.575258   1.000000   1.000000
    2      -30.682980    -30.339607   1.000000   1.000000
    3      -30.660001    -30.143599   1.000000   1.000000
    4      -30.425293    -29.952960   1.000000   1.000000
    5      -17.697243    -17.688988   1.000000   1.000000
    6      -17.541509    -17.534741   1.000000   1.000000
    7      -17.535188    -17.524307   1.000000   1.000000
    8       -9.080053     -8.989405   1.000000   1.000000
    9       -8.495646     -8.393955   1.000000   1.000000
   10       -7.593761     -7.565862   1.000000   1.000000
   11       -6.874265     -6.821804   1.000000   1.000000
   12       -6.048790     -6.034189   1.000000   1.000000
   13       -4.740311     -4.686723   1.000000   1.000000
   14       -3.788570     -3.713276   1.000000   1.000000
   15       -3.168445     -3.080467   1.000000   1.000000
   16       -2.663721     -2.524666   1.000000   1.000000
   17       -2.488414     -2.289808   1.000000   1.000000
   18       -1.967325     -1.890591   1.000000   1.000000
   19        0.057801      1.061812   1.000000   0.000000
   20        2.353955      2.566309   0.000000   0.000000
   21        2.675159      2.885504   0.000000   0.000000
   22        2.964711      3.092776   0.000000   0.000000
   23        3.596396      3.790299   0.000000   0.000000
   24        4.051370      4.153205   0.000000   0.000000
   25        4.236515      4.339220   0.000000   0.000000
   26        4.505266      4.549084   0.000000   0.000000
   27        4.908160      4.984346   0.000000   0.000000
   28        5.156675      5.235303   0.000000   0.000000
   29        5.319785      5.480605   0.000000   0.000000
   30        5.913799      6.043965   0.000000   0.000000
   31        6.066203      6.175095   0.000000   0.000000
   32        6.347549      6.434947   0.000000   0.000000
   33        7.038056      7.175101   0.000000   0.000000
   34        7.486674      7.555585   0.000000   0.000000
   35        7.669145      7.815123   0.000000   0.000000
   36        8.250151      8.393462   0.000000   0.000000
   37        8.772488      8.832114   0.000000   0.000000
   38        9.069921      9.160724   0.000000   0.000000
   39        9.803106      9.886405   0.000000   0.000000
   40       10.612125     10.728574   0.000000   0.000000
   41       10.967830     11.090952   0.000000   0.000000
   42       11.408898     11.534881   0.000000   0.000000
   43       12.013491     12.155519   0.000000   0.000000
   44       12.482194     12.613986   0.000000   0.000000
   45       13.033042     13.183090   0.000000   0.000000
   46       13.297165     13.377817   0.000000   0.000000
   47       13.654031     13.754519   0.000000   0.000000
   48       14.053462     14.210641   0.000000   0.000000
 
  0.3729655E-15  0.2000000E+00  0.4024558E-15  0.2000000E-01
    1      -35.582265    -35.575678   1.000000   1.000000
    2      -30.683036    -30.338805   1.000000   1.000000
    3      -30.657517    -30.142320   1.000000   1.000000
    4      -30.425866    -29.953165   1.000000   1.000000
    5      -17.700275    -17.691874   1.000000   1.000000
    6      -17.547803    -17.538507   1.000000   1.000000
    7      -17.500910    -17.492724   1.000000   1.000000
    8       -9.607837     -9.496433   1.000000   1.000000
    9       -7.987704     -7.919233   1.000000   1.000000
   10       -7.772826     -7.723636   1.000000   1.000000
   11       -6.598926     -6.574553   1.000000   1.000000
   12       -6.104507     -6.072376   1.000000   1.000000
   13       -4.978930     -4.928282   1.000000   1.000000
   14       -3.498172     -3.387887   1.000000   1.000000
   15       -3.171854     -3.058084   1.000000   1.000000
   16       -2.684863     -2.577092   1.000000   1.000000
   17       -2.275879     -2.194737   1.000000   1.000000
   18       -2.142111     -2.016675   1.000000   1.000000
   19       -0.172911      0.829638   1.000000   0.000000
   20        1.971606      2.205432   0.000000   0.000000
   21        2.920014      3.129486   0.000000   0.000000
   22        3.395760      3.491574   0.000000   0.000000
   23        3.570026      3.702349   0.000000   0.000000
   24        3.864499      3.959985   0.000000   0.000000
   25        4.271566      4.385509   0.000000   0.000000
   26        4.551425      4.634766   0.000000   0.000000
   27        4.946408      5.020645   0.000000   0.000000
   28        5.445470      5.602169   0.000000   0.000000
   29        5.694732      5.895521   0.000000   0.000000
   30        6.024883      6.113509   0.000000   0.000000
   31        6.428696      6.522079   0.000000   0.000000
   32        6.672128      6.789345   0.000000   0.000000
   33        7.094547      7.199620   0.000000   0.000000
   34        7.513707      7.603285   0.000000   0.000000
   35        7.905071      8.033398   0.000000   0.000000
   36        8.156023      8.228886   0.000000   0.000000
   37        8.445568      8.555185   0.000000   0.000000
   38        8.791687      8.930406   0.000000   0.000000
   39        9.475208      9.604211   0.000000   0.000000
   40        9.901389     10.008152   0.000000   0.000000
   41       10.350247     10.451675   0.000000   0.000000
   42       10.966308     11.103048   0.000000   0.000000
   43       11.494901     11.614913   0.000000   0.000000
   44       12.055795     12.175512   0.000000   0.000000
   45       12.500221     12.634125   0.000000   0.000000
   46       12.945329     13.054803   0.000000   0.000000
   47       13.224811     13.364563   0.000000   0.000000
   48       13.877460     13.977710   0.000000   0.000000
 
  0.2000000E+00  0.2000000E+00  0.3885781E-15  0.2000000E-01
    1      -35.582056    -35.575462   1.000000   1.000000
    2      -30.683060    -30.339372   1.000000   1.000000
    3      -30.658440    -30.142787   1.000000   1.000000
    4      -30.425869    -29.953100   1.000000   1.000000
    5      -17.699182    -17.690798   1.000000   1.000000
    6      -17.546791    -17.537015   1.000000   1.000000
    7      -17.514829    -17.506999   1.000000   1.000000
    8       -9.437769     -9.330313   1.000000   1.000000
    9       -8.075226     -7.992898   1.000000   1.000000
   10       -7.765131     -7.726943   1.000000   1.000000
   11       -6.518549     -6.481321   1.000000   1.000000
   12       -6.311889     -6.290365   1.000000   1.000000
   13       -4.892076     -4.840350   1.000000   1.000000
   14       -3.538228     -3.445719   1.000000   1.000000
   15       -3.201964     -3.082987   1.000000   1.000000
   16       -2.719441     -2.600911   1.000000   1.000000
   17       -2.492582     -2.381832   1.000000   1.000000
   18       -1.960358     -1.848182   1.000000   1.000000
   19       -0.045571      0.963196   1.000000   0.000000
   20        2.021080      2.258557   0.000000   0.000000
   21        2.719191      2.914632   0.000000   0.000000
   22        3.249344      3.382501   0.000000   0.000000
   23        3.886117      4.007030   0.000000   0.000000
   24        4.026699      4.104937   0.000000   0.000000
   25        4.304598      4.447577   0.000000   0.000000
   26        4.732924      4.837519   0.000000   0.000000
   27        4.852182      4.945127   0.000000   0.000000
   28        5.189561      5.303788   0.000000   0.000000
   29        5.588085      5.699452   0.000000   0.000000
   30        5.704939      5.816190   0.000000   0.000000
   31        6.457513      6.552803   0.000000   0.000000
   32        6.731837      6.835214   0.000000   0.000000
   33        6.977948      7.066951   0.000000   0.000000
   34        7.235166      7.364080   0.000000   0.000000
   35        7.647689      7.755499   0.000000   0.000000
   36        8.185287      8.315539   0.000000   0.000000
   37        8.473352      8.592289   0.000000   0.000000
   38        9.124240      9.259302   0.000000   0.000000
   39        9.489814      9.560928   0.000000   0.000000
   40       10.081929     10.178628   0.000000   0.000000
   41       10.883545     10.994930   0.000000   0.000000
   42       11.288931     11.387182   0.000000   0.000000
   43       11.820868     11.985103   0.000000   0.000000
   44       12.036023     12.160059   0.000000   0.000000
   45       12.737580     12.845969   0.000000   0.000000
   46       13.039390     13.150625   0.000000   0.000000
   47       13.809989     13.944625   0.000000   0.000000
   48       13.929309     14.064743   0.000000   0.000000
 
  0.4000000E+00  0.2000000E+00  0.3885781E-15  0.2000000E-01
    1      -35.581690    -35.575092   1.000000   1.000000
    2      -30.683071    -30.340114   1.000000   1.000000
    3      -30.660067    -30.143762   1.000000   1.000000
    4      -30.425861    -29.953030   1.000000   1.000000
    5      -17.697438    -17.689092   1.000000   1.000000
    6      -17.545017    -17.536389   1.000000   1.000000
    7      -17.536566    -17.527574   1.000000   1.000000
    8       -9.008398     -8.915345   1.000000   1.000000
    9       -8.464858     -8.362310   1.000000   1.000000
   10       -7.572403     -7.544693   1.000000   1.000000
   11       -6.810902     -6.759431   1.000000   1.000000
   12       -6.290785     -6.276643   1.000000   1.000000
   13       -4.654382     -4.600173   1.000000   1.000000
   14       -3.699022     -3.621878   1.000000   1.000000
   15       -3.207627     -3.126836   1.000000   1.000000
   16       -2.946266     -2.803918   1.000000   1.000000
   17       -2.541188     -2.402264   1.000000   1.000000
   18       -1.852058     -1.715186   1.000000   1.000000
   19        0.084849      1.105164   1.000000   0.000000
   20        2.214225      2.468953   0.000000   0.000000
   21        2.679273      2.819476   0.000000   0.000000
   22        2.967542      3.136980   0.000000   0.000000
   23        3.759642      3.888381   0.000000   0.000000
   24        4.117668      4.243047   0.000000   0.000000
   25        4.304720      4.410963   0.000000   0.000000
   26        4.670456      4.777295   0.000000   0.000000
   27        4.870383      4.945128   0.000000   0.000000
   28        5.164878      5.251843   0.000000   0.000000
   29        5.482737      5.578309   0.000000   0.000000
   30        5.872597      5.942654   0.000000   0.000000
   31        6.137886      6.225392   0.000000   0.000000
   32        6.456418      6.600134   0.000000   0.000000
   33        6.875179      6.982047   0.000000   0.000000
   34        7.257231      7.421285   0.000000   0.000000
   35        7.970174      8.086661   0.000000   0.000000
   36        8.280921      8.412293   0.000000   0.000000
   37        8.680662      8.765828   0.000000   0.000000
   38        9.246536      9.340048   0.000000   0.000000
   39        9.889101      9.987191   0.000000   0.000000
   40       10.453235     10.545800   0.000000   0.000000
   41       11.063817     11.129599   0.000000   0.000000
   42       11.453917     11.608052   0.000000   0.000000
   43       11.988200     12.088566   0.000000   0.000000
   44       12.478725     12.597613   0.000000   0.000000
   45       12.798352     12.950735   0.000000   0.000000
   46       13.118158     13.212821   0.000000   0.000000
   47       13.704453     13.797652   0.000000   0.000000
   48       13.965734     14.137039   0.000000   0.000000
 
 -0.4000000E+00  0.2000000E+00  0.3779529E-15  0.2000000E-01
    1      -35.581673    -35.575080   1.000000   1.000000
    2      -30.683059    -30.340011   1.000000   1.000000
    3      -30.660149    -30.143903   1.000000   1.000000
    4      -30.425860    -29.953054   1.000000   1.000000
    5      -17.697461    -17.689123   1.000000   1.000000
    6      -17.543784    -17.537910   1.000000   1.000000
    7      -17.537369    -17.525737   1.000000   1.000000
    8       -9.024125     -8.929719   1.000000   1.000000
    9       -8.455978     -8.353430   1.000000   1.000000
   10       -7.503760     -7.479810   1.000000   1.000000
   11       -6.972307     -6.924831   1.000000   1.000000
   12       -6.172353     -6.151806   1.000000   1.000000
   13       -4.609794     -4.552236   1.000000   1.000000
   14       -3.671774     -3.595678   1.000000   1.000000
   15       -3.342554     -3.265891   1.000000   1.000000
   16       -2.906019     -2.775665   1.000000   1.000000
   17       -2.603784     -2.460727   1.000000   1.000000
   18       -1.804190     -1.656440   1.000000   1.000000
   19        0.072474      1.127365   1.000000   0.000000
   20        2.304082      2.498311   0.000000   0.000000
   21        2.700554      2.872603   0.000000   0.000000
   22        2.935246      3.040215   0.000000   0.000000
   23        3.648366      3.798498   0.000000   0.000000
   24        4.026934      4.166943   0.000000   0.000000
   25        4.323102      4.442770   0.000000   0.000000
   26        4.578900      4.654601   0.000000   0.000000
   27        4.996800      5.100467   0.000000   0.000000
   28        5.257315      5.321367   0.000000   0.000000
   29        5.408415      5.511512   0.000000   0.000000
   30        5.709516      5.862834   0.000000   0.000000
   31        6.160469      6.258931   0.000000   0.000000
   32        6.583330      6.667178   0.000000   0.000000
   33        7.161156      7.283409   0.000000   0.000000
   34        7.312957      7.449548   0.000000   0.000000
   35        8.078520      8.179484   0.000000   0.000000
   36        8.450425      8.539721   0.000000   0.000000
   37        8.535215      8.686458   0.000000   0.000000
   38        9.077476      9.150879   0.000000   0.000000
   39        9.557413      9.653285   0.000000   0.000000
   40       10.455055     10.595010   0.000000   0.000000
   41       11.285184     11.384307   0.000000   0.000000
   42       11.583638     11.706791   0.000000   0.000000
   43       11.956440     12.037190   0.000000   0.000000
   44       12.396697     12.540455   0.000000   0.000000
   45       12.773168     12.853902   0.000000   0.000000
   46       13.221354     13.319620   0.000000   0.000000
   47       13.509184     13.647613   0.000000   0.000000
   48       13.888827     14.036018   0.000000   0.000000
 
 -0.2000000E+00  0.2000000E+00  0.3851086E-15  0.2000000E-01
    1      -35.582028    -35.575442   1.000000   1.000000
    2      -30.683040    -30.339204   1.000000   1.000000
    3      -30.658572    -30.143012   1.000000   1.000000
    4      -30.425863    -29.953137   1.000000   1.000000
    5      -17.699211    -17.690837   1.000000   1.000000
    6      -17.546048    -17.537686   1.000000   1.000000
    7      -17.514869    -17.505812   1.000000   1.000000
    8       -9.449177     -9.340801   1.000000   1.000000
    9       -8.077170     -7.991091   1.000000   1.000000
   10       -7.708510     -7.674906   1.000000   1.000000
   11       -6.771319     -6.740674   1.000000   1.000000
   12       -6.070891     -6.042866   1.000000   1.000000
   13       -4.843082     -4.788020   1.000000   1.000000
   14       -3.491850     -3.396441   1.000000   1.000000
   15       -3.330906     -3.233377   1.000000   1.000000
   16       -2.680713     -2.574685   1.000000   1.000000
   17       -2.626682     -2.510776   1.000000   1.000000
   18       -1.894361     -1.756390   1.000000   1.000000
   19       -0.078800      0.954629   1.000000   0.000000
   20        2.194487      2.379202   0.000000   0.000000
   21        2.847791      3.010814   0.000000   0.000000
   22        3.076949      3.241333   0.000000   0.000000
   23        3.461417      3.609092   0.000000   0.000000
   24        3.972063      4.078362   0.000000   0.000000
   25        4.460477      4.521794   0.000000   0.000000
   26        4.631637      4.749780   0.000000   0.000000
   27        5.021702      5.121909   0.000000   0.000000
   28        5.206161      5.296898   0.000000   0.000000
   29        5.663093      5.808301   0.000000   0.000000
   30        6.039343      6.150845   0.000000   0.000000
   31        6.382824      6.493102   0.000000   0.000000
   32        6.525698      6.685602   0.000000   0.000000
   33        6.886485      6.975488   0.000000   0.000000
   34        7.424764      7.538402   0.000000   0.000000
   35        7.781599      7.856570   0.000000   0.000000
   36        8.367055      8.491690   0.000000   0.000000
   37        8.630940      8.751236   0.000000   0.000000
   38        9.209767      9.320642   0.000000   0.000000
   39        9.297697      9.386825   0.000000   0.000000
   40       10.203537     10.330821   0.000000   0.000000
   41       10.400298     10.505532   0.000000   0.000000
   42       11.291575     11.419679   0.000000   0.000000
   43       11.567523     11.727381   0.000000   0.000000
   44       12.093349     12.194375   0.000000   0.000000
   45       12.604999     12.693305   0.000000   0.000000
   46       13.025417     13.134171   0.000000   0.000000
   47       13.360477     13.512957   0.000000   0.000000
   48       14.100713     14.173850   0.000000   0.000000
 
  0.3738329E-15  0.4000000E+00  0.3885781E-15  0.2000000E-01
    1      -35.582096    -35.575506   1.000000   1.000000
    2      -30.683152    -30.339356   1.000000   1.000000
    3      -30.657409    -30.142427   1.000000   1.000000
    4      -30.426613    -29.953289   1.000000   1.000000
    5      -17.700250    -17.691658   1.000000   1.000000
    6      -17.562514    -17.553134   1.000000   1.000000
    7      -17.500657    -17.492468   1.000000   1.000000
    8       -9.434978     -9.315995   1.000000   1.000000
    9       -7.948204     -7.883492   1.000000   1.000000
   10       -7.769294     -7.719733   1.000000   1.000000
   11       -6.869026     -6.855207   1.000000   1.000000
   12       -6.086139     -6.045629   1.000000   1.000000
   13       -4.660638     -4.608477   1.000000   1.000000
   14       -3.848368     -3.752320   1.000000   1.000000
   15       -3.237442     -3.144328   1.000000   1.000000
   16       -2.679429     -2.576954   1.000000   1.000000
   17       -2.332878     -2.244109   1.000000   1.000000
   18       -2.284641     -2.127534   1.000000   1.000000
   19       -0.065615      0.990378   1.000000   0.000000
   20        2.070812      2.295170   0.000000   0.000000
   21        2.707486      2.927995   0.000000   0.000000
   22        3.638188      3.752294   0.000000   0.000000
   23        3.857065      3.952753   0.000000   0.000000
   24        4.109642      4.211513   0.000000   0.000000
   25        4.314156      4.403731   0.000000   0.000000
   26        4.716973      4.811476   0.000000   0.000000
   27        4.964805      5.028631   0.000000   0.000000
   28        5.386099      5.530219   0.000000   0.000000
   29        5.630580      5.772695   0.000000   0.000000
   30        5.889910      5.972939   0.000000   0.000000
   31        6.413598      6.544849   0.000000   0.000000
   32        6.707364      6.867094   0.000000   0.000000
   33        7.001163      7.101326   0.000000   0.000000
   34        7.397123      7.495905   0.000000   0.000000
   35        7.812103      7.879398   0.000000   0.000000
   36        8.202974      8.271140   0.000000   0.000000
   37        8.352805      8.453214   0.000000   0.000000
   38        8.912404      8.958733   0.000000   0.000000
   39        9.288551      9.466317   0.000000   0.000000
   40        9.802230      9.952979   0.000000   0.000000
   41       10.378128     10.532497   0.000000   0.000000
   42       11.269240     11.338683   0.000000   0.000000
   43       11.815309     11.906251   0.000000   0.000000
   44       12.163138     12.383846   0.000000   0.000000
   45       12.478013     12.617624   0.000000   0.000000
   46       13.183398     13.295447   0.000000   0.000000
   47       13.340602     13.462512   0.000000   0.000000
   48       13.518198     13.701947   0.000000   0.000000
 
  0.2000000E+00  0.4000000E+00  0.3747003E-15  0.2000000E-01
    1      -35.581837    -35.575246   1.000000   1.000000
    2      -30.683179    -30.339960   1.000000   1.000000
    3      -30.658463    -30.143039   1.000000   1.000000
    4      -30.426684    -29.953238   1.000000   1.000000
    5      -17.699389    -17.690825   1.000000   1.000000
    6      -17.559875    -17.550422   1.000000   1.000000
    7      -17.513294    -17.505187   1.000000   1.000000
    8       -9.284434     -9.169649   1.000000   1.000000
    9       -8.047654     -7.966601   1.000000   1.000000
   10       -7.706050     -7.668659   1.000000   1.000000
   11       -6.802833     -6.790377   1.000000   1.000000
   12       -6.309842     -6.266506   1.000000   1.000000
   13       -4.586613     -4.532154   1.000000   1.000000
   14       -3.750684     -3.655603   1.000000   1.000000
   15       -3.379082     -3.290486   1.000000   1.000000
   16       -2.835713     -2.728538   1.000000   1.000000
   17       -2.519457     -2.413567   1.000000   1.000000
   18       -1.973485     -1.821343   1.000000   1.000000
   19        0.013475      1.074098   1.000000   0.000000
   20        2.118261      2.351690   0.000000   0.000000
   21        2.514006      2.713252   0.000000   0.000000
   22        3.435033      3.540062   0.000000   0.000000
   23        3.859620      3.950803   0.000000   0.000000
   24        4.267213      4.337368   0.000000   0.000000
   25        4.426675      4.550030   0.000000   0.000000
   26        4.769360      4.902299   0.000000   0.000000
   27        4.979717      5.071957   0.000000   0.000000
   28        5.182680      5.302551   0.000000   0.000000
   29        5.699808      5.844405   0.000000   0.000000
   30        6.004226      6.103547   0.000000   0.000000
   31        6.276787      6.404200   0.000000   0.000000
   32        6.691587      6.780784   0.000000   0.000000
   33        6.783843      6.866666   0.000000   0.000000
   34        7.377808      7.463820   0.000000   0.000000
   35        7.725700      7.819029   0.000000   0.000000
   36        8.241806      8.307496   0.000000   0.000000
   37        8.515956      8.630425   0.000000   0.000000
   38        8.868820      9.008735   0.000000   0.000000
   39        9.866991      9.974247   0.000000   0.000000
   40       10.172478     10.317693   0.000000   0.000000
   41       10.536832     10.684103   0.000000   0.000000
   42       11.117387     11.204023   0.000000   0.000000
   43       11.743051     11.852954   0.000000   0.000000
   44       12.243632     12.399131   0.000000   0.000000
   45       12.766049     12.861749   0.000000   0.000000
   46       13.001998     13.107806   0.000000   0.000000
   47       13.500225     13.655944   0.000000   0.000000
   48       13.719443     13.851704   0.000000   0.000000
 
  0.4000000E+00  0.4000000E+00  0.4024558E-15  0.2000000E-01
    1      -35.581400    -35.574813   1.000000   1.000000
    2      -30.683210    -30.340842   1.000000   1.000000
    3      -30.660257    -30.144167   1.000000   1.000000
    4      -30.426797    -29.953177   1.000000   1.000000
    5      -17.698017    -17.689509   1.000000   1.000000
    6      -17.555220    -17.546554   1.000000   1.000000
    7      -17.533568    -17.524800   1.000000   1.000000
    8       -8.900156     -8.800423   1.000000   1.000000
    9       -8.406358     -8.302980   1.000000   1.000000
   10       -7.438729     -7.411339   1.000000   1.000000
   11       -6.834078     -6.813591   1.000000   1.000000
   12       -6.629962     -6.589399   1.000000   1.000000
   13       -4.377677     -4.316107   1.000000   1.000000
   14       -3.632711     -3.565042   1.000000   1.000000
   15       -3.530225     -3.440596   1.000000   1.000000
   16       -3.183618     -3.076337   1.000000   1.000000
   17       -2.491612     -2.371073   1.000000   1.000000
   18       -1.855219     -1.675218   1.000000   1.000000
   19        0.096527      1.166321   1.000000   0.000000
   20        1.984208      2.203835   0.000000   0.000000
   21        2.630424      2.735147   0.000000   0.000000