       N       E                     dE             d eps       ncg     rms          rms(c)
DAV:   1     0.173385871724E+03    0.17339E+03   -0.16149E+04  9792   0.683E+02
DAV:   2    -0.505290066047E+02   -0.22391E+03   -0.20974E+03 10352   0.203E+02
DAV:   3    -0.629528017993E+02   -0.12424E+02   -0.12292E+02 16816   0.474E+01
DAV:   4    -0.630792735035E+02   -0.12647E+00   -0.12638E+00 11968   0.345E+00
DAV:   5    -0.630816079538E+02   -0.23345E-02   -0.23343E-02 15152   0.428E-01    0.363E+01
RMM:   6    -0.655044026988E+02   -0.24228E+01   -0.38233E+00 10157   0.598E+00    0.191E+01
RMM:   7    -0.648353141654E+02    0.66909E+00   -0.16746E+00 10267   0.591E+00    0.785E+00
RMM:   8    -0.650059616804E+02   -0.17065E+00   -0.29365E-01  9970   0.306E+00    0.391E+00
RMM:   9    -0.650221264363E+02   -0.16165E-01   -0.53823E-02  9997   0.130E+00    0.183E+00
RMM:  10    -0.650298688513E+02   -0.77424E-02   -0.21749E-02  9802   0.806E-01    0.117E+00
RMM:  11    -0.650325823354E+02   -0.27135E-02   -0.66316E-03  9263   0.479E-01    0.403E-01
RMM:  12    -0.650335709863E+02   -0.98865E-03   -0.18128E-03  8758   0.269E-01    0.167E-01
RMM:  13    -0.650340354183E+02   -0.46443E-03   -0.51407E-04  7646   0.137E-01
   1 F= -.65034035E+02 E0= -.65034035E+02  d E =-.650340E+02  mag=     0.8643
       N       E                     dE             d eps       ncg     rms          rms(c)
DAV:   1    -0.653636289422E+02   -0.33006E+00   -0.51992E+00 14320   0.118E+01    0.517E+00
RMM:   2    -0.651974659400E+02    0.16616E+00   -0.40867E-01 10206   0.252E+00    0.135E+00
RMM:   3    -0.651713099402E+02    0.26156E-01   -0.38046E-02 10483   0.119E+00    0.882E-01
RMM:   4    -0.651671931681E+02    0.41168E-02   -0.19316E-02 10731   0.518E-01    0.916E-01
RMM:   5    -0.651679152000E+02   -0.72203E-03   -0.56004E-03  9554   0.361E-01
   2 F= -.65167915E+02 E0= -.65167915E+02  d E =-.133880E+00  mag=     0.9744
       N       E                     dE             d eps       ncg     rms          rms(c)
DAV:   1    -0.668575385266E+02   -0.16903E+01   -0.46297E+01 10688   0.351E+01    0.153E+01
RMM:   2    -0.655575985918E+02    0.12999E+01   -0.41553E+00 10127   0.775E+00    0.388E+00
RMM:   3    -0.652805218435E+02    0.27708E+00   -0.34861E-01 10261   0.391E+00    0.316E+00
RMM:   4    -0.652476078254E+02    0.32914E-01   -0.12588E-01 11141   0.144E+00    0.327E+00
RMM:   5    -0.652476291940E+02   -0.21369E-04   -0.33738E-02 11272   0.841E-01    0.239E+00
RMM:   6    -0.652492803910E+02   -0.16512E-02   -0.51164E-02 11478   0.712E-01    0.385E-01
RMM:   7    -0.652509064194E+02   -0.16260E-02   -0.19519E-02 11122   0.527E-01    0.222E-01
RMM:   8    -0.652520664413E+02   -0.11600E-02   -0.82599E-03  9989   0.242E-01    0.203E-01
RMM:   9    -0.652522740215E+02   -0.20758E-03   -0.15083E-03  8538   0.153E-01
   3 F= -.65252274E+02 E0= -.65252274E+02  d E =-.218239E+00  mag=     1.0000
       N       E                     dE             d eps       ncg     rms          rms(c)
DAV:   1    -0.654454700593E+02   -0.19340E+00   -0.44309E+00 12816   0.105E+01    0.430E+00
RMM:   2    -0.653077508992E+02    0.13772E+00   -0.32479E-01 10100   0.224E+00    0.132E+00
RMM:   3    -0.652860204590E+02    0.21730E-01   -0.32783E-02 10607   0.108E+00    0.690E-01
RMM:   4    -0.652823037943E+02    0.37167E-02   -0.17883E-02 10592   0.458E-01    0.641E-01
RMM:   5    -0.652826396891E+02   -0.33589E-03   -0.42728E-03  9418   0.345E-01
   4 F= -.65282640E+02 E0= -.65282640E+02  d E =-.248604E+00  mag=     1.0000
       N       E                     dE             d eps       ncg     rms          rms(c)
DAV:   1    -0.654788795231E+02   -0.19658E+00   -0.31187E+00 14832   0.792E+00    0.369E+00
RMM:   2    -0.653711406186E+02    0.10774E+00   -0.25577E-01 10145   0.208E+00    0.107E+00
RMM:   3    -0.653559283866E+02    0.15212E-01   -0.25609E-02 10139   0.111E+00    0.669E-01
RMM:   4    -0.653525389345E+02    0.33895E-02   -0.63481E-03  9513   0.391E-01    0.665E-01
RMM:   5    -0.653519897107E+02    0.54922E-03   -0.14749E-03  8336   0.297E-01
   5 F= -.65351990E+02 E0= -.65351990E+02  d E =-.693500E-01  mag=     1.0000
       N       E                     dE             d eps       ncg     rms          rms(c)
DAV:   1    -0.654233083855E+02   -0.70769E-01   -0.17766E+00 10544   0.601E+00    0.292E+00
RMM:   2    -0.653573703231E+02    0.65938E-01   -0.13182E-01 10026   0.158E+00    0.821E-01
RMM:   3    -0.653482990824E+02    0.90712E-02   -0.14588E-02 10090   0.846E-01    0.523E-01
RMM:   4    -0.653465702962E+02    0.17288E-02   -0.54179E-03  9479   0.339E-01    0.555E-01
RMM:   5    -0.653466190002E+02   -0.48704E-04   -0.18213E-03  8430   0.259E-01
   6 F= -.65346619E+02 E0= -.65346619E+02  d E =-.639793E-01  mag=     1.0000
       N       E                     dE             d eps       ncg     rms          rms(c)
DAV:   1    -0.653746673741E+02   -0.28097E-01   -0.27007E+00 10256   0.638E+00    0.884E-01
RMM:   2    -0.653748958539E+02   -0.22848E-03   -0.12833E-01 10066   0.136E+00    0.559E-01
RMM:   3    -0.653718182857E+02    0.30776E-02   -0.91365E-03  9702   0.939E-01    0.436E-01
RMM:   4    -0.653713579550E+02    0.46033E-03   -0.17569E-03  8379   0.179E-01
   7 F= -.65371358E+02 E0= -.65371358E+02  d E =-.247390E-01  mag=     1.0000
       N       E                     dE             d eps       ncg     rms          rms(c)
DAV:   1    -0.653969382769E+02   -0.25120E-01   -0.49623E-01 10448   0.270E+00    0.411E-01
RMM:   2    -0.653972714403E+02   -0.33316E-03   -0.25000E-02  9947   0.588E-01    0.300E-01
RMM:   3    -0.653967577202E+02    0.51372E-03   -0.12107E-03  7759   0.373E-01
   8 F= -.65396758E+02 E0= -.65396758E+02  d E =-.501387E-01  mag=     1.0000
       N       E                     dE             d eps       ncg     rms          rms(c)
DAV:   1    -0.654293732009E+02   -0.32102E-01   -0.58614E-01 11264   0.375E+00    0.597E-01
RMM:   2    -0.654302884214E+02   -0.91522E-03   -0.31833E-02  9813   0.626E-01    0.449E-01
RMM:   3    -0.654295731287E+02    0.71529E-03   -0.15073E-03  8187   0.347E-01
   9 F= -.65429573E+02 E0= -.65429573E+02  d E =-.328154E-01  mag=     1.0000
       N       E                     dE             d eps       ncg     rms          rms(c)
DAV:   1    -0.654707812072E+02   -0.40493E-01   -0.52322E+00 10864   0.113E+01    0.211E+00
RMM:   2    -0.654798328368E+02   -0.90516E-02   -0.31321E-01  9823   0.199E+00    0.145E+00
RMM:   3    -0.654733032729E+02    0.65296E-02   -0.20222E-02  9787   0.128E+00    0.708E-01
RMM:   4    -0.654731201341E+02    0.18314E-03   -0.48409E-03  9701   0.275E-01
  10 F= -.65473120E+02 E0= -.65473120E+02  d E =-.763624E-01  mag=     1.0000
       N       E                     dE             d eps       ncg     rms          rms(c)
DAV:   1    -0.655022975417E+02   -0.28994E-01   -0.11131E+00 14480   0.566E+00    0.756E-01
RMM:   2    -0.654998315561E+02    0.24660E-02   -0.71773E-02 10185   0.101E+00    0.414E-01
RMM:   3    -0.654983636663E+02    0.14679E-02   -0.27419E-03  8904   0.434E-01    0.394E-01
RMM:   4    -0.654982101750E+02    0.15349E-03   -0.65280E-04  7833   0.134E-01
  11 F= -.65498210E+02 E0= -.65498210E+02  d E =-.250900E-01  mag=     1.0000
       N       E                     dE             d eps       ncg     rms          rms(c)
DAV:   1    -0.655032282980E+02   -0.48646E-02   -0.49254E-01 12320   0.379E+00    0.453E-01
RMM:   2    -0.655022989942E+02    0.92930E-03   -0.31932E-02 10133   0.667E-01    0.270E-01
RMM:   3    -0.655016457184E+02    0.65328E-03   -0.12154E-03  8259   0.299E-01
  12 F= -.65501646E+02 E0= -.65501646E+02  d E =-.285256E-01  mag=     1.0000
       N       E                     dE             d eps       ncg     rms          rms(c)
DAV:   1    -0.655334946126E+02   -0.31196E-01   -0.64827E-01 13152   0.419E+00    0.914E-01
RMM:   2    -0.655236224994E+02    0.98721E-02   -0.50027E-02 10368   0.837E-01    0.454E-01
RMM:   3    -0.655216284114E+02    0.19941E-02   -0.28674E-03  9125   0.344E-01    0.338E-01
RMM:   4    -0.655213372924E+02    0.29112E-03   -0.16955E-03  8293   0.163E-01
  13 F= -.65521337E+02 E0= -.65521337E+02  d E =-.196916E-01  mag=     1.0000
       N       E                     dE             d eps       ncg     rms          rms(c)
DAV:   1    -0.656572153350E+02   -0.13559E+00   -0.58421E+00 11616   0.125E+01    0.300E+00
RMM:   2    -0.655792329210E+02    0.77982E-01   -0.44345E-01 10354   0.249E+00    0.119E+00
RMM:   3    -0.655623098282E+02    0.16923E-01   -0.27058E-02 10500   0.104E+00    0.695E-01
RMM:   4    -0.655598652186E+02    0.24446E-02   -0.13514E-02 10191   0.403E-01    0.637E-01
RMM:   5    -0.655601943852E+02   -0.32917E-03   -0.35257E-03  9091   0.294E-01
  14 F= -.65560194E+02 E0= -.65560194E+02  d E =-.585487E-01  mag=     1.0000
       N       E                     dE             d eps       ncg     rms          rms(c)
DAV:   1    -0.659174931902E+02   -0.35763E+00   -0.23281E+01 11600   0.249E+01    0.613E+00
RMM:   2    -0.656268604772E+02    0.29063E+00   -0.17966E+00 10322   0.500E+00    0.248E+00
RMM:   3    -0.655577442880E+02    0.69116E-01   -0.10937E-01 10355   0.220E+00    0.130E+00
RMM:   4    -0.655472968007E+02    0.10447E-01   -0.55021E-02 11138   0.834E-01    0.122E+00
RMM:   5    -0.655487507669E+02   -0.14540E-02   -0.13445E-02 10434   0.547E-01    0.929E-01
RMM:   6    -0.655504330011E+02   -0.16822E-02   -0.11028E-02 10466   0.288E-01    0.240E-01
RMM:   7    -0.655507144735E+02   -0.28147E-03   -0.38881E-03  9458   0.238E-01
  15 F= -.65550714E+02 E0= -.65550714E+02  d E =-.490688E-01  mag=     1.0000
       N       E                     dE             d eps       ncg     rms          rms(c)
DAV:   1    -0.656449679827E+02   -0.94535E-01   -0.46399E+00 11648   0.110E+01    0.269E+00
RMM:   2    -0.655838671174E+02    0.61101E-01   -0.35094E-01 10369   0.218E+00    0.104E+00
RMM:   3    -0.655708882006E+02    0.12979E-01   -0.21212E-02 10478   0.904E-01    0.575E-01
RMM:   4    -0.655689815010E+02    0.19067E-02   -0.10932E-02  9795   0.350E-01    0.508E-01
RMM:   5    -0.655691929076E+02   -0.21141E-03   -0.26712E-03  8861   0.269E-01
  16 F= -.65569193E+02 E0= -.65569193E+02  d E =-.675472E-01  mag=     1.0000
       N       E                     dE             d eps       ncg     rms          rms(c)
DAV:   1    -0.655804090482E+02   -0.11428E-01   -0.49820E+00 11456   0.121E+01    0.880E-01
RMM:   2    -0.656097480942E+02   -0.29339E-01   -0.32175E-01  9790   0.169E+00    0.528E-01
RMM:   3    -0.656006843705E+02    0.90637E-02   -0.78442E-03  9367   0.522E-01    0.310E-01
RMM:   4    -0.656012047402E+02   -0.52037E-03   -0.16355E-03  8185   0.163E-01
  17 F= -.65601205E+02 E0= -.65601205E+02  d E =-.320118E-01  mag=     1.0000
       N       E                     dE             d eps       ncg     rms          rms(c)
DAV:   1    -0.656079776410E+02   -0.72933E-02   -0.54883E-01 12752   0.404E+00    0.287E-01
RMM:   2    -0.656110057575E+02   -0.30281E-02   -0.35106E-02  9382   0.550E-01    0.168E-01
RMM:   3    -0.656099431623E+02    0.10626E-02   -0.80455E-04  6991   0.176E-01    0.110E-01
RMM:   4    -0.656099944421E+02   -0.51280E-04   -0.18213E-04  4799   0.755E-02
  18 F= -.65609994E+02 E0= -.65609994E+02  d E =-.408015E-01  mag=     1.0000
       N       E                     dE             d eps       ncg     rms          rms(c)
DAV:   1    -0.656209352986E+02   -0.10992E-01   -0.48931E-01 11936   0.385E+00    0.850E-01
RMM:   2    -0.656192170277E+02    0.17183E-02   -0.31843E-02 10359   0.624E-01    0.315E-01
RMM:   3    -0.656182502193E+02    0.96681E-03   -0.14582E-03  8220   0.271E-01    0.188E-01
RMM:   4    -0.656182173668E+02    0.32853E-04   -0.56014E-04  6758   0.122E-01
  19 F= -.65618217E+02 E0= -.65618217E+02  d E =-.822292E-02  mag=     1.0000
       N       E                     dE             d eps       ncg     rms          rms(c)
DAV:   1    -0.656183388352E+02   -0.88616E-04   -0.16355E-02 14688   0.734E-01    0.135E-01
RMM:   2    -0.656182915569E+02    0.47278E-04   -0.10075E-03  5691   0.118E-01
  20 F= -.65618292E+02 E0= -.65618292E+02  d E =-.829711E-02  mag=     1.0000
