       N       E                     dE             d eps       ncg     rms          rms(c)
DAV:   1     0.211832486097E+03    0.21183E+03   -0.18668E+04  6144   0.111E+03
DAV:   2    -0.272760786298E+02   -0.23911E+03   -0.23286E+03  7312   0.301E+02
DAV:   3    -0.409243422139E+02   -0.13648E+02   -0.13589E+02 12080   0.595E+01
DAV:   4    -0.411224529446E+02   -0.19811E+00   -0.19812E+00  6624   0.635E+00
DAV:   5    -0.411296672230E+02   -0.72143E-02   -0.72168E-02 10640   0.986E-01    0.386E+01
RMM:   6    -0.411231286066E+02    0.65386E-02   -0.78605E+00  6837   0.114E+01    0.173E+01
RMM:   7    -0.404210542300E+02    0.70207E+00   -0.14380E+00  7054   0.577E+00    0.117E+01
RMM:   8    -0.403715914540E+02    0.49463E-01   -0.54920E-01  6995   0.442E+00    0.413E+00
RMM:   9    -0.403867147140E+02   -0.15123E-01   -0.12443E-01  7358   0.175E+00    0.191E+00
RMM:  10    -0.403778240452E+02    0.88907E-02   -0.32347E-02  6928   0.114E+00    0.660E-01
RMM:  11    -0.403780098489E+02   -0.18580E-03   -0.53467E-03  5797   0.432E-01    0.306E-01
RMM:  12    -0.403781259562E+02   -0.11611E-03   -0.16279E-03  5091   0.275E-01
   1 F= -.40378126E+02 E0= -.40378126E+02  d E =-.403781E+02  mag=     0.0010
       N       E                     dE             d eps       ncg     rms          rms(c)
DAV:   1    -0.405609652317E+02   -0.18296E+00   -0.34270E+00  9152   0.114E+01    0.383E+00
RMM:   2    -0.404577066264E+02    0.10326E+00   -0.46684E-01  6904   0.382E+00    0.131E+00
RMM:   3    -0.404157134899E+02    0.41993E-01   -0.53292E-02  6619   0.194E+00    0.111E+00
RMM:   4    -0.404075547791E+02    0.81587E-02   -0.17472E-02  6742   0.905E-01    0.983E-01
RMM:   5    -0.404065982589E+02    0.95652E-03   -0.10554E-02  7444   0.885E-01    0.495E-01
RMM:   6    -0.404070958658E+02   -0.49761E-03   -0.66455E-03  6949   0.347E-01    0.149E-01
RMM:   7    -0.404072021411E+02   -0.10628E-03   -0.10224E-03  4965   0.337E-01
   2 F= -.40407202E+02 E0= -.40407202E+02  d E =-.290762E-01  mag=    -0.0000
       N       E                     dE             d eps       ncg     rms          rms(c)
DAV:   1    -0.404552746903E+02   -0.48179E-01   -0.98850E-01  6400   0.610E+00    0.202E+00
RMM:   2    -0.404248884485E+02    0.30386E-01   -0.13099E-01  6919   0.203E+00    0.677E-01
RMM:   3    -0.404129538331E+02    0.11935E-01   -0.14060E-02  6487   0.998E-01    0.586E-01
RMM:   4    -0.404106986417E+02    0.22552E-02   -0.50886E-03  5931   0.508E-01    0.489E-01
RMM:   5    -0.404105010573E+02    0.19758E-03   -0.34727E-03  6299   0.519E-01
   3 F= -.40410501E+02 E0= -.40410501E+02  d E =-.323751E-01  mag=    -0.0000
       N       E                     dE             d eps       ncg     rms          rms(c)
DAV:   1    -0.404200733932E+02   -0.93748E-02   -0.52817E-01  7712   0.534E+00    0.567E-01
RMM:   2    -0.404182795471E+02    0.17938E-02   -0.35889E-02  6876   0.928E-01    0.336E-01
RMM:   3    -0.404165702280E+02    0.17093E-02   -0.17979E-03  5192   0.385E-01    0.215E-01
RMM:   4    -0.404163638597E+02    0.20637E-03   -0.15284E-03  5299   0.254E-01
   4 F= -.40416364E+02 E0= -.40416364E+02  d E =-.586280E-02  mag=    -0.0000
       N       E                     dE             d eps       ncg     rms          rms(c)
DAV:   1    -0.404272380443E+02   -0.10668E-01   -0.11033E+00  7680   0.775E+00    0.808E-01
RMM:   2    -0.404230603365E+02    0.41777E-02   -0.74393E-02  6860   0.134E+00    0.500E-01
RMM:   3    -0.404194426502E+02    0.36177E-02   -0.39095E-03  5691   0.542E-01    0.330E-01
RMM:   4    -0.404189231671E+02    0.51948E-03   -0.33440E-03  5944   0.324E-01    0.216E-01
RMM:   5    -0.404189978609E+02   -0.74694E-04   -0.71836E-04  4470   0.319E-01
   5 F= -.40418998E+02 E0= -.40418998E+02  d E =-.849680E-02  mag=    -0.0000
       N       E                     dE             d eps       ncg     rms          rms(c)
DAV:   1    -0.404276460232E+02   -0.87229E-02   -0.40336E-01  9344   0.424E+00    0.575E-01
RMM:   2    -0.404241880251E+02    0.34580E-02   -0.23953E-02  6791   0.783E-01    0.295E-01
RMM:   3    -0.404224582138E+02    0.17298E-02   -0.17341E-03  5096   0.382E-01    0.166E-01
RMM:   4    -0.404219758568E+02    0.48236E-03   -0.19460E-03  5438   0.282E-01
   6 F= -.40421976E+02 E0= -.40421976E+02  d E =-.297800E-02  mag=    -0.0000
       N       E                     dE             d eps       ncg     rms          rms(c)
DAV:   1    -0.404244997451E+02   -0.20415E-02   -0.17193E-01  9360   0.281E+00    0.375E-01
RMM:   2    -0.404229750337E+02    0.15247E-02   -0.10042E-02  6382   0.509E-01    0.186E-01
RMM:   3    -0.404222241182E+02    0.75092E-03   -0.66559E-04  4302   0.232E-01    0.125E-01
RMM:   4    -0.404220222385E+02    0.20188E-03   -0.74471E-04  3935   0.184E-01
   7 F= -.40422022E+02 E0= -.40422022E+02  d E =-.302438E-02  mag=     0.0000
