   23   23   99    2
  0.5918816E+01  0.4630595E-09  0.4803876E-09  0.6247245E-09  0.5000000E-15
  1.000000000000000E-004
  CAR 
 unknown system                          
     23     51     32
 
  0.3742002E-15  0.3742002E-15  0.3742002E-15  0.1000000E-01
    1      -12.041411    -12.041381   1.000000   1.000000
    2      -10.302690    -10.302625   1.000000   1.000000
    3       -9.394556     -9.394516   1.000000   1.000000
    4       -8.743404     -8.743100   1.000000   1.000000
    5       -8.489995     -8.489942   1.000000   1.000000
    6       -8.168900     -8.168805   1.000000   1.000000
    7       -8.072610     -8.072464   1.000000   1.000000
    8       -7.978908     -7.978759   1.000000   1.000000
    9       -7.710219     -7.710171   1.000000   1.000000
   10       -7.639597     -7.639541   1.000000   1.000000
   11       -5.692825     -5.692750   1.000000   1.000000
   12       -5.587659     -5.587688   1.000000   1.000000
   13        1.569433      1.570106   0.000000   0.000000
   14        2.091423      2.093616   0.000000   0.000000
   15        2.320126      2.318839   0.000000   0.000000
   16        2.550936      2.552030   0.000000   0.000000
   17        3.079498      3.078638   0.000000   0.000000
   18        3.138577      3.137530   0.000000   0.000000
   19        3.562640      3.562889   0.000000   0.000000
   20        3.873190      3.874051   0.000000   0.000000
   21        4.352422      4.351092   0.000000   0.000000
   22        5.203899      5.203982   0.000000   0.000000
   23        5.491656      5.503730   0.000000   0.000000
   24        5.964538      5.965687   0.000000   0.000000
   25        6.341614      6.349724   0.000000   0.000000
   26        6.851349      6.855226   0.000000   0.000000
   27        7.450895      7.451995   0.000000   0.000000
   28        7.698581      7.696996   0.000000   0.000000
   29        8.120264      8.121329   0.000000   0.000000
   30        8.283845      8.285007   0.000000   0.000000
   31        8.534940      8.534900   0.000000   0.000000
   32        9.299005      9.303190   0.000000   0.000000
 
  0.2000000E+00  0.3755676E-15  0.3816392E-15  0.2000000E-01
    1      -11.807046    -11.807016   1.000000   1.000000
    2      -10.141875    -10.141814   1.000000   1.000000
    3       -9.276648     -9.276604   1.000000   1.000000
    4       -8.876513     -8.876391   1.000000   1.000000
    5       -8.583037     -8.582906   1.000000   1.000000
    6       -8.385577     -8.385445   1.000000   1.000000
    7       -8.152626     -8.152455   1.000000   1.000000
    8       -8.062325     -8.062258   1.000000   1.000000
    9       -7.748684     -7.748632   1.000000   1.000000
   10       -7.659134     -7.659035   1.000000   1.000000
   11       -7.494787     -7.494735   1.000000   1.000000
   12       -3.053092     -3.053088   0.803150   0.803150
   13        1.688248      1.690259   0.000000   0.000000
   14        2.092456      2.093986   0.000000   0.000000
   15        2.137991      2.138988   0.000000   0.000000
   16        2.591348      2.591638   0.000000   0.000000
   17        3.000372      3.001395   0.000000   0.000000
   18        3.159348      3.158604   0.000000   0.000000
   19        3.264975      3.265218   0.000000   0.000000
   20        3.892788      3.892376   0.000000   0.000000
   21        4.196245      4.198325   0.000000   0.000000
   22        5.061705      5.061062   0.000000   0.000000
   23        5.857225      5.857097   0.000000   0.000000
   24        5.945194      5.949412   0.000000   0.000000
   25        6.771815      6.773942   0.000000   0.000000
   26        6.993495      6.998224   0.000000   0.000000
   27        7.332866      7.337395   0.000000   0.000000
   28        7.697408      7.697395   0.000000   0.000000
   29        7.917457      7.918044   0.000000   0.000000
   30        8.006307      8.007704   0.000000   0.000000
   31        8.609803      8.609408   0.000000   0.000000
   32        8.950254      8.952909   0.000000   0.000000
 
  0.4000000E+00  0.3710140E-15  0.3608225E-15  0.2000000E-01
    1      -11.116412    -11.116390   1.000000   1.000000
    2      -10.013407    -10.013369   1.000000   1.000000
    3       -9.673083     -9.673025   1.000000   1.000000
    4       -8.995045     -8.995005   1.000000   1.000000
    5       -8.850753     -8.850684   1.000000   1.000000
    6       -8.612161     -8.612045   1.000000   1.000000
    7       -8.328168     -8.328003   1.000000   1.000000
    8       -8.174482     -8.174415   1.000000   1.000000
    9       -8.068595     -8.068515   1.000000   1.000000
   10       -7.842476     -7.842347   1.000000   1.000000
   11       -7.675459     -7.675392   1.000000   1.000000
   12        0.051426      0.051403  -0.052895  -0.052895
   13        1.423004      1.425045   0.000000   0.000000
   14        1.782597      1.788401   0.000000   0.000000
   15        2.403368      2.403042   0.000000   0.000000
   16        2.584498      2.584668   0.000000   0.000000
   17        2.789104      2.790235   0.000000   0.000000
   18        3.085995      3.086132   0.000000   0.000000
   19        3.631916      3.631750   0.000000   0.000000
   20        3.759621      3.758978   0.000000   0.000000
   21        3.958424      3.960088   0.000000   0.000000
   22        4.343226      4.344180   0.000000   0.000000
   23        4.788492      4.788165   0.000000   0.000000
   24        5.523480      5.524189   0.000000   0.000000
   25        6.141933      6.142311   0.000000   0.000000
   26        6.618880      6.618849   0.000000   0.000000
   27        7.136191      7.136255   0.000000   0.000000
   28        7.350200      7.349195   0.000000   0.000000
   29        8.187086      8.186223   0.000000   0.000000
   30        8.566029      8.565091   0.000000   0.000000
   31        8.778381      8.778758   0.000000   0.000000
   32        9.429631      9.440913   0.000000   0.000000
 
  0.3742666E-15  0.2000000E+00  0.3573530E-15  0.2000000E-01
    1      -12.010439    -12.010411   1.000000   1.000000
    2      -10.236185    -10.236110   1.000000   1.000000
    3       -9.320262     -9.320193   1.000000   1.000000
    4       -9.002611     -9.002502   1.000000   1.000000
    5       -8.616683     -8.616472   1.000000   1.000000
    6       -8.111760     -8.111594   1.000000   1.000000
    7       -8.040060     -8.039938   1.000000   1.000000
    8       -7.893980     -7.893914   1.000000   1.000000
    9       -7.769841     -7.769759   1.000000   1.000000
   10       -7.618046     -7.617984   1.000000   1.000000
   11       -5.694517     -5.694441   1.000000   1.000000
   12       -5.594504     -5.594538   1.000000   1.000000
   13        1.678202      1.679876   0.000000   0.000000
   14        2.084192      2.086695   0.000000   0.000000
   15        2.434818      2.433713   0.000000   0.000000
   16        2.651280      2.650852   0.000000   0.000000
   17        3.178727      3.178276   0.000000   0.000000
   18        3.289292      3.289486   0.000000   0.000000
   19        3.692719      3.692457   0.000000   0.000000
   20        3.988340      3.988057   0.000000   0.000000
   21        4.567191      4.567056   0.000000   0.000000
   22        4.951296      4.955307   0.000000   0.000000
   23        5.071811      5.072241   0.000000   0.000000
   24        6.000749      6.006652   0.000000   0.000000
   25        6.395367      6.404878   0.000000   0.000000
   26        7.008703      7.008429   0.000000   0.000000
   27        7.275764      7.277702   0.000000   0.000000
   28        7.771140      7.773066   0.000000   0.000000
   29        7.916976      7.916845   0.000000   0.000000
   30        8.700782      8.701699   0.000000   0.000000
   31        8.754626      8.753322   0.000000   0.000000
   32        9.049641      9.050214   0.000000   0.000000
 
  0.2000000E+00  0.2000000E+00  0.3747003E-15  0.2000000E-01
    1      -11.776326    -11.776299   1.000000   1.000000
    2      -10.089408    -10.089338   1.000000   1.000000
    3       -9.235409     -9.235325   1.000000   1.000000
    4       -8.907866     -8.907777   1.000000   1.000000
    5       -8.673920     -8.673849   1.000000   1.000000
    6       -8.440587     -8.440371   1.000000   1.000000
    7       -8.136630     -8.136527   1.000000   1.000000
    8       -8.055311     -8.055219   1.000000   1.000000
    9       -7.783958     -7.783904   1.000000   1.000000
   10       -7.716119     -7.716027   1.000000   1.000000
   11       -7.481065     -7.481011   1.000000   1.000000
   12       -3.051890     -3.051889   0.802399   0.802400
   13        1.606855      1.611188   0.000000   0.000000
   14        2.057798      2.058443   0.000000   0.000000
   15        2.291949      2.292025   0.000000   0.000000
   16        2.620050      2.620049   0.000000   0.000000
   17        3.174006      3.176023   0.000000   0.000000
   18        3.339516      3.339013   0.000000   0.000000
   19        3.647063      3.646441   0.000000   0.000000
   20        4.133983      4.132956   0.000000   0.000000
   21        4.365614      4.367744   0.000000   0.000000
   22        4.880494      4.880729   0.000000   0.000000
   23        5.818608      5.819837   0.000000   0.000000
   24        6.075789      6.074781   0.000000   0.000000
   25        6.629457      6.630807   0.000000   0.000000
   26        7.092876      7.104809   0.000000   0.000000
   27        7.292158      7.292174   0.000000   0.000000
   28        7.652258      7.651839   0.000000   0.000000
   29        7.809547      7.808727   0.000000   0.000000
   30        7.988540      7.988997   0.000000   0.000000
   31        8.455207      8.457945   0.000000   0.000000
   32        8.763265      8.763444   0.000000   0.000000
 
  0.4000000E+00  0.2000000E+00  0.3747003E-15  0.2000000E-01
    1      -11.082273    -11.082252   1.000000   1.000000
    2       -9.957950     -9.957906   1.000000   1.000000
    3       -9.634382     -9.634329   1.000000   1.000000
    4       -8.962813     -8.962774   1.000000   1.000000
    5       -8.851458     -8.851319   1.000000   1.000000
    6       -8.634498     -8.634442   1.000000   1.000000
    7       -8.341096     -8.340993   1.000000   1.000000
    8       -8.285626     -8.285531   1.000000   1.000000
    9       -8.123032     -8.122938   1.000000   1.000000
   10       -7.895030     -7.894895   1.000000   1.000000
   11       -7.718261     -7.718200   1.000000   1.000000
   12        0.056253      0.056219  -0.052986  -0.052985
   13        1.437177      1.444059   0.000000   0.000000
   14        1.904908      1.906314   0.000000   0.000000
   15        2.455268      2.455248   0.000000   0.000000
   16        2.619522      2.621007   0.000000   0.000000
   17        2.901115      2.900862   0.000000   0.000000
   18        3.414754      3.414526   0.000000   0.000000
   19        3.646119      3.646095   0.000000   0.000000
   20        3.949545      3.949427   0.000000   0.000000
   21        4.061612      4.062060   0.000000   0.000000
   22        4.463523      4.463531   0.000000   0.000000
   23        4.935769      4.935079   0.000000   0.000000
   24        5.406605      5.407557   0.000000   0.000000
   25        6.353264      6.353563   0.000000   0.000000
   26        6.767060      6.767925   0.000000   0.000000
   27        7.029668      7.029967   0.000000   0.000000
   28        7.348739      7.347618   0.000000   0.000000
   29        7.910962      7.910472   0.000000   0.000000
   30        8.466608      8.466580   0.000000   0.000000
   31        8.697664      8.697267   0.000000   0.000000
   32        9.355342      9.360934   0.000000   0.000000
 
 -0.4000000E+00  0.2000000E+00  0.3816392E-15  0.2000000E-01
    1      -11.073693    -11.073669   1.000000   1.000000
    2       -9.978556     -9.978521   1.000000   1.000000
    3       -9.601906     -9.601836   1.000000   1.000000
    4       -8.962990     -8.962942   1.000000   1.000000
    5       -8.789339     -8.789308   1.000000   1.000000
    6       -8.737670     -8.737591   1.000000   1.000000
    7       -8.490338     -8.490205   1.000000   1.000000
    8       -8.224967     -8.224774   1.000000   1.000000
    9       -8.069449     -8.069403   1.000000   1.000000
   10       -7.867040     -7.866933   1.000000   1.000000
   11       -7.682970     -7.682894   1.000000   1.000000
   12        0.058968      0.058988  -0.053224  -0.053225
   13        1.613678      1.622587   0.000000   0.000000
   14        1.900638      1.901527   0.000000   0.000000
   15        2.400648      2.400679   0.000000   0.000000
   16        2.630507      2.630012   0.000000   0.000000
   17        2.834316      2.834379   0.000000   0.000000
   18        3.268237      3.267813   0.000000   0.000000
   19        3.641828      3.641910   0.000000   0.000000
   20        3.736867      3.735817   0.000000   0.000000
   21        4.157843      4.158531   0.000000   0.000000
   22        4.450450      4.450802   0.000000   0.000000
   23        5.042079      5.043170   0.000000   0.000000
   24        5.567119      5.567263   0.000000   0.000000
   25        6.277846      6.277790   0.000000   0.000000
   26        6.509065      6.508307   0.000000   0.000000
   27        7.005900      7.006601   0.000000   0.000000
   28        7.242644      7.242282   0.000000   0.000000
   29        8.023869      8.021362   0.000000   0.000000
   30        8.696010      8.697645   0.000000   0.000000
   31        9.024332      9.030438   0.000000   0.000000
   32        9.297378      9.296101   0.000000   0.000000
 
 -0.2000000E+00  0.2000000E+00  0.3747003E-15  0.2000000E-01
    1      -11.773192    -11.773163   1.000000   1.000000
    2      -10.069891    -10.069815   1.000000   1.000000
    3       -9.187627     -9.187557   1.000000   1.000000
    4       -8.995732     -8.995646   1.000000   1.000000
    5       -8.730577     -8.730519   1.000000   1.000000
    6       -8.483715     -8.483531   1.000000   1.000000
    7       -8.130836     -8.130725   1.000000   1.000000
    8       -7.985309     -7.985176   1.000000   1.000000
    9       -7.850889     -7.850799   1.000000   1.000000
   10       -7.617574     -7.617484   1.000000   1.000000
   11       -7.462989     -7.462955   1.000000   1.000000
   12       -3.051880     -3.051869   0.802896   0.802894
   13        1.842677      1.848954   0.000000   0.000000
   14        2.127025      2.126697   0.000000   0.000000
   15        2.422656      2.422865   0.000000   0.000000
   16        2.650066      2.650139   0.000000   0.000000
   17        2.851196      2.850841   0.000000   0.000000
   18        3.195376      3.195436   0.000000   0.000000
   19        3.511284      3.510555   0.000000   0.000000
   20        4.006463      4.006147   0.000000   0.000000
   21        4.189444      4.191392   0.000000   0.000000
   22        5.346084      5.345222   0.000000   0.000000
   23        5.609701      5.609611   0.000000   0.000000
   24        5.954309      5.958234   0.000000   0.000000
   25        6.425004      6.424623   0.000000   0.000000
   26        6.765818      6.771672   0.000000   0.000000
   27        7.300510      7.299866   0.000000   0.000000
   28        7.638938      7.639460   0.000000   0.000000
   29        7.891991      7.897462   0.000000   0.000000
   30        8.250065      8.249996   0.000000   0.000000
   31        8.542698      8.544159   0.000000   0.000000
   32        9.176218      9.177522   0.000000   0.000000
 
  0.3732908E-15  0.4000000E+00  0.3816392E-15  0.2000000E-01
    1      -11.957157    -11.957139   1.000000   1.000000
    2      -10.060438    -10.060306   1.000000   1.000000
    3       -9.468742     -9.468697   1.000000   1.000000
    4       -9.084334     -9.084243   1.000000   1.000000
    5       -8.782643     -8.782498   1.000000   1.000000
    6       -8.235307     -8.235102   1.000000   1.000000
    7       -7.909163     -7.909058   1.000000   1.000000
    8       -7.847366     -7.847289   1.000000   1.000000
    9       -7.725528     -7.725448   1.000000   1.000000
   10       -7.676779     -7.676691   1.000000   1.000000
   11       -5.698997     -5.698936   1.000000   1.000000
   12       -5.602072     -5.602110   1.000000   1.000000
   13        1.748015      1.752705   0.000000   0.000000
   14        2.283494      2.283461   0.000000   0.000000
   15        2.560071      2.559649   0.000000   0.000000
   16        3.052398      3.052935   0.000000   0.000000
   17        3.108546      3.108105   0.000000   0.000000
   18        3.416935      3.415943   0.000000   0.000000
   19        3.977872      3.978640   0.000000   0.000000
   20        4.227341      4.229046   0.000000   0.000000
   21        4.296837      4.295847   0.000000   0.000000
   22        5.039888      5.040677   0.000000   0.000000
   23        5.349503      5.351349   0.000000   0.000000
   24        6.062901      6.062844   0.000000   0.000000
   25        6.148646      6.153782   0.000000   0.000000
   26        6.745668      6.745605   0.000000   0.000000
   27        7.269503      7.270155   0.000000   0.000000
   28        7.597301      7.599391   0.000000   0.000000
   29        7.801235      7.806197   0.000000   0.000000
   30        8.067626      8.069909   0.000000   0.000000
   31        8.541524      8.541896   0.000000   0.000000
   32        9.107277      9.108150   0.000000   0.000000
 
  0.2000000E+00  0.4000000E+00  0.4163336E-15  0.2000000E-01
    1      -11.720043    -11.720026   1.000000   1.000000
    2       -9.927590     -9.927471   1.000000   1.000000
    3       -9.345466     -9.345401   1.000000   1.000000
    4       -9.010252     -9.010173   1.000000   1.000000
    5       -8.651536     -8.651425   1.000000   1.000000
    6       -8.451169     -8.451093   1.000000   1.000000
    7       -8.288197     -8.288064   1.000000   1.000000
    8       -8.076246     -8.076143   1.000000   1.000000
    9       -7.835053     -7.834974   1.000000   1.000000
   10       -7.718520     -7.718410   1.000000   1.000000
   11       -7.434176     -7.434141   1.000000   1.000000
   12       -3.049302     -3.049295   0.801576   0.801573
   13        1.573936      1.580809   0.000000   0.000000
   14        2.285711      2.285690   0.000000   0.000000
   15        2.532430      2.532092   0.000000   0.000000
   16        2.713803      2.713412   0.000000   0.000000
   17        3.321330      3.322556   0.000000   0.000000
   18        3.699621      3.700024   0.000000   0.000000
   19        3.968912      3.968043   0.000000   0.000000
   20        4.305659      4.304671   0.000000   0.000000
   21        4.601559      4.602464   0.000000   0.000000
   22        5.069684      5.070222   0.000000   0.000000
   23        5.456981      5.457796   0.000000   0.000000
   24        5.942306      5.941039   0.000000   0.000000
   25        6.390143      6.392331   0.000000   0.000000
   26        7.008139      7.009559   0.000000   0.000000
   27        7.387596      7.387373   0.000000   0.000000
   28        7.650602      7.652939   0.000000   0.000000
   29        7.717059      7.717526   0.000000   0.000000
   30        7.917325      7.917754   0.000000   0.000000
   31        8.410361      8.413529   0.000000   0.000000
   32        8.528102      8.527885   0.000000   0.000000
 
  0.4000000E+00  0.4000000E+00  0.3885781E-15  0.2000000E-01
    1      -11.014054    -11.014036   1.000000   1.000000
    2       -9.873063     -9.873011   1.000000   1.000000
    3       -9.502196     -9.502142   1.000000   1.000000
    4       -9.068660     -9.068637   1.000000   1.000000
    5       -8.772050     -8.771876   1.000000   1.000000
    6       -8.723543     -8.723480   1.000000   1.000000
    7       -8.464720     -8.464656   1.000000   1.000000
    8       -8.371487     -8.371444   1.000000   1.000000
    9       -8.164078     -8.163914   1.000000   1.000000
   10       -7.946251     -7.946185   1.000000   1.000000
   11       -7.794886     -7.794790   1.000000   1.000000
   12        0.066430      0.066435  -0.053348  -0.053348
   13        1.398883      1.409350   0.000000   0.000000
   14        2.180752      2.180563   0.000000   0.000000
   15        2.669440      2.669002   0.000000   0.000000
   16        2.797094      2.796901   0.000000   0.000000
   17        3.243915      3.244054   0.000000   0.000000
   18        3.641792      3.641605   0.000000   0.000000
   19        3.723644      3.723300   0.000000   0.000000
   20        4.018465      4.018177   0.000000   0.000000
   21        4.431659      4.431164   0.000000   0.000000
   22        4.623064      4.623033   0.000000   0.000000
   23        5.037741      5.037429   0.000000   0.000000
   24        5.240626      5.240926   0.000000   0.000000
   25        6.388380      6.387660   0.000000   0.000000
   26        6.997516      6.996734   0.000000   0.000000
   27        7.234764      7.235698   0.000000   0.000000
   28        7.489619      7.490360   0.000000   0.000000
   29        7.850360      7.851764   0.000000   0.000000
   30        8.148490      8.148318   0.000000   0.000000
   31        8.598456      8.599592   0.000000   0.000000
   32        8.902669      8.899653   0.000000   0.000000
 
 -0.4000000E+00  0.4000000E+00  0.3920475E-15  0.2000000E-01
    1      -11.007933    -11.007914   1.000000   1.000000
    2       -9.891960     -9.891915   1.000000   1.000000
    3       -9.473042     -9.472973   1.000000   1.000000
    4       -9.031707     -9.031689   1.000000   1.000000
    5       -8.858220     -8.858118   1.000000   1.000000
    6       -8.685754     -8.685668   1.000000   1.000000
    7       -8.558978     -8.558934   1.000000   1.000000
    8       -8.362391     -8.362239   1.000000   1.000000
    9       -8.136278     -8.136152   1.000000   1.000000
   10       -7.905622     -7.905532   1.000000   1.000000
   11       -7.782396     -7.782324   1.000000   1.000000
   12        0.068121      0.068165  -0.053496  -0.053498
   13        1.478505      1.490179   0.000000   0.000000
   14        2.221752      2.220929   0.000000   0.000000
   15        2.576887      2.576348   0.000000   0.000000
   16        2.855460      2.854350   0.000000   0.000000
   17        3.187125      3.187130   0.000000   0.000000
   18        3.564325      3.564623   0.000000   0.000000
   19        3.650401      3.650329   0.000000   0.000000
   20        3.922326      3.921113   0.000000   0.000000
   21        4.472317      4.471997   0.000000   0.000000
   22        4.608951      4.609340   0.000000   0.000000
   23        5.034643      5.035047   0.000000   0.000000
   24        5.518486      5.518348   0.000000   0.000000
   25        6.440041      6.439115   0.000000   0.000000
   26        6.719233      6.719198   0.000000   0.000000
   27        7.050697      7.051125   0.000000   0.000000
   28        7.614874      7.615260   0.000000   0.000000
   29        7.823522      7.821903   0.000000   0.000000
   30        8.244122      8.245358   0.000000   0.000000
   31        8.664690      8.666290   0.000000   0.000000
   32        8.958887      8.957629   0.000000   0.000000
 
 -0.2000000E+00  0.4000000E+00  0.3677614E-15  0.2000000E-01
    1      -11.717882    -11.717865   1.000000   1.000000
    2       -9.908648     -9.908515   1.000000   1.000000
    3       -9.359294     -9.359267   1.000000   1.000000
    4       -8.962792     -8.962682   1.000000   1.000000
    5       -8.787229     -8.787134   1.000000   1.000000
    6       -8.488762     -8.488698   1.000000   1.000000
    7       -8.182276     -8.182140   1.000000   1.000000
    8       -8.087540     -8.087488   1.000000   1.000000
    9       -7.896254     -7.896052   1.000000   1.000000
   10       -7.629651     -7.629580   1.000000   1.000000
   11       -7.436368     -7.436342   1.000000   1.000000
   12       -3.049331     -3.049317   0.801884   0.801879
   13        1.676859      1.684606   0.000000   0.000000
   14        2.395294      2.394761   0.000000   0.000000
   15        2.601555      2.601225   0.000000   0.000000
   16        2.752387      2.752348   0.000000   0.000000
   17        3.136540      3.136679   0.000000   0.000000
   18        3.605570      3.604700   0.000000   0.000000
   19        3.710288      3.710377   0.000000   0.000000
   20        4.137877      4.137862   0.000000   0.000000
   21        4.522423      4.523268   0.000000   0.000000
   22        5.281912      5.282748   0.000000   0.000000
   23        5.639602      5.638777   0.000000   0.000000
   24        5.943259      5.944137   0.000000   0.000000
   25        6.652337      6.652726   0.000000   0.000000
   26        6.994068      6.993453   0.000000   0.000000
   27        7.092607      7.093689   0.000000   0.000000
   28        7.450578      7.453701   0.000000   0.000000
   29        7.701289      7.701771   0.000000   0.000000
   30        7.838126      7.839913   0.000000   0.000000
   31        8.078317      8.077503   0.000000   0.000000
   32        8.461806      8.467966   0.000000   0.000000
 
  0.3733992E-15  0.3729655E-15  0.2500000E+00  0.2000000E-01
    1      -12.017220    -12.017191   1.000000   1.000000
    2      -10.389894    -10.389864   1.000000   1.000000
    3       -9.419955     -9.419791   1.000000   1.000000
    4       -8.655587     -8.655404   1.000000   1.000000
    5       -8.432180     -8.432092   1.000000   1.000000
    6       -8.176187     -8.176080   1.000000   1.000000
    7       -8.087864     -8.087706   1.000000   1.000000
    8       -7.958063     -7.957922   1.000000   1.000000
    9       -7.783303     -7.783261   1.000000   1.000000
   10       -7.591818     -7.591769   1.000000   1.000000
   11       -5.694860     -5.694785   1.000000   1.000000
   12       -5.596554     -5.596583   1.000000   1.000000
   13        1.547431      1.548624   0.000000   0.000000
   14        1.863608      1.863068   0.000000   0.000000
   15        2.209834      2.208844   0.000000   0.000000
   16        2.552956      2.553489   0.000000   0.000000
   17        2.911573      2.911201   0.000000   0.000000
   18        3.526877      3.526536   0.000000   0.000000
   19        3.624206      3.624879   0.000000   0.000000
   20        4.054170      4.060563   0.000000   0.000000
   21        4.493007      4.492269   0.000000   0.000000
   22        5.105774      5.110704   0.000000   0.000000
   23        5.504375      5.504920   0.000000   0.000000
   24        6.191543      6.192734   0.000000   0.000000
   25        6.236286      6.244585   0.000000   0.000000
   26        6.755184      6.757531   0.000000   0.000000
   27        7.062745      7.063778   0.000000   0.000000
   28        7.417678      7.416229   0.000000   0.000000
   29        8.111515      8.113631   0.000000   0.000000
   30        8.320906      8.319104   0.000000   0.000000
   31        8.664810      8.664130   0.000000   0.000000
   32        8.979304      8.979728   0.000000   0.000000
 
  0.2000000E+00  0.3729655E-15  0.2500000E+00  0.2000000E-01
    1      -11.789065    -11.789037   1.000000   1.000000
    2      -10.207699    -10.207662   1.000000   1.000000
    3       -9.304509     -9.304371   1.000000   1.000000
    4       -8.748567     -8.748476   1.000000   1.000000
    5       -8.493934     -8.493888   1.000000   1.000000
    6       -8.451400     -8.451330   1.000000   1.000000
    7       -8.254536     -8.254278   1.000000   1.000000
    8       -8.072499     -8.072415   1.000000   1.000000
    9       -7.850790     -7.850701   1.000000   1.000000
   10       -7.584361     -7.584294   1.000000   1.000000
   11       -7.413401     -7.413349   1.000000   1.000000
   12       -3.052935     -3.052928   0.803348   0.803348
   13        1.741175      1.743085   0.000000   0.000000
   14        1.991300      1.991332   0.000000   0.000000
   15        2.338757      2.338861   0.000000   0.000000
   16        2.438714      2.439269   0.000000   0.000000
   17        2.709119      2.711938   0.000000   0.000000
   18        3.120577      3.120188   0.000000   0.000000
   19        3.373621      3.374750   0.000000   0.000000
   20        4.010000      4.012201   0.000000   0.000000
   21        4.379552      4.379213   0.000000   0.000000
   22        5.207607      5.207530   0.000000   0.000000
   23        5.594619      5.594190   0.000000   0.000000
   24        6.081296      6.085392   0.000000   0.000000
   25        6.414435      6.418356   0.000000   0.000000
   26        6.892381      6.893505   0.000000   0.000000
   27        7.300354      7.298853   0.000000   0.000000
   28        7.605661      7.607007   0.000000   0.000000
   29        7.789033      7.790977   0.000000   0.000000
   30        8.204070      8.205574   0.000000   0.000000
   31        8.686597      8.687862   0.000000   0.000000
   32        9.037417      9.045939   0.000000   0.000000
 
  0.4000000E+00  0.3716645E-15  0.2500000E+00  0.2000000E-01
    1      -11.103907    -11.103884   1.000000   1.000000
    2       -9.946278     -9.946244   1.000000   1.000000
    3       -9.709776     -9.709723   1.000000   1.000000
    4       -9.160297     -9.160271   1.000000   1.000000
    5       -8.895617     -8.895506   1.000000   1.000000
    6       -8.556331     -8.556240   1.000000   1.000000
    7       -8.306351     -8.306205   1.000000   1.000000
    8       -8.120311     -8.120154   1.000000   1.000000
    9       -8.046233     -8.046143   1.000000   1.000000
   10       -7.872468     -7.872409   1.000000   1.000000
   11       -7.612929     -7.612862   1.000000   1.000000
   12        0.050789      0.050784  -0.053056  -0.053056
   13        1.588394      1.588048   0.000000   0.000000
   14        1.852159      1.861089   0.000000   0.000000
   15        2.235164      2.234613   0.000000   0.000000
   16        2.464548      2.465551   0.000000   0.000000