    8    8   99    2
  0.8345016E+01  0.3420658E-09  0.3656140E-09  0.5339228E-09  0.5000000E-15
  1.000000000000000E-004
  CAR 
 unknown system                          
     27     86     32
 
  0.3742002E-15  0.3742002E-15  0.3742002E-15  0.5952381E-02
    1      -32.045372    -32.031416   1.000000   1.000000
    2      -28.287707    -27.936034   1.000000   1.000000
    3      -28.248659    -27.897097   1.000000   1.000000
    4      -28.244165    -27.701972   1.000000   1.000000
    5      -14.171235    -14.153058   1.000000   1.000000
    6      -13.967857    -13.947818   1.000000   1.000000
    7      -13.886465    -13.865608   1.000000   1.000000
    8       -6.133094     -6.056453   1.000000   1.000000
    9       -2.264559     -2.171351   1.000000   1.000000
   10       -2.004362     -1.897014   1.000000   1.000000
   11       -0.719180     -0.618138   1.000000   1.000000
   12        1.078242      1.244426   1.000000   1.000000
   13        2.734657      2.905882   1.000000   1.000000
   14        3.061661      3.742149   1.000000   0.000000
   15        4.344453      4.518671   0.000000   0.000000
   16        5.313344      5.584636   0.000000   0.000000
   17        5.639116      5.834065   0.000000   0.000000
   18        5.752739      5.964370   0.000000   0.000000
   19        8.337319      8.452630   0.000000   0.000000
   20        8.560428      8.689944   0.000000   0.000000
   21        9.119719      9.242204   0.000000   0.000000
   22        9.449068      9.602339   0.000000   0.000000
   23        9.891089      9.969280   0.000000   0.000000
   24       10.447245     10.556396   0.000000   0.000000
   25       11.199228     11.440884   0.000000   0.000000
   26       12.308499     12.461894   0.000000   0.000000
   27       14.250231     14.546780   0.000000   0.000000
   28       14.858617     15.057396   0.000000   0.000000
   29       15.068798     15.215290   0.000000   0.000000
   30       18.057155     18.104129   0.000000   0.000000
   31       19.485557     19.732895   0.000000   0.000000
   32       20.204345     20.430561   0.000000   0.000000
 
  0.1428571E+00  0.3725319E-15  0.3747003E-15  0.1190476E-01
    1      -32.035045    -32.021105   1.000000   1.000000
    2      -28.285310    -27.939424   1.000000   1.000000
    3      -28.274528    -27.918773   1.000000   1.000000
    4      -28.244793    -27.701502   1.000000   1.000000
    5      -14.150578    -14.132603   1.000000   1.000000
    6      -14.031167    -14.009758   1.000000   1.000000
    7      -13.955353    -13.935219   1.000000   1.000000
    8       -5.823824     -5.749338   1.000000   1.000000
    9       -2.158037     -2.075155   1.000000   1.000000
   10       -1.857346     -1.746265   1.000000   1.000000
   11       -0.819289     -0.699740   1.000000   1.000000
   12        0.712560      0.874287   1.000000   1.000000
   13        2.074610      2.237830   1.000000   1.000000
   14        2.981742      3.633863   1.000000   0.000000
   15        4.563828      4.724968   0.000000   0.000000
   16        5.406706      5.703524   0.000000   0.000000
   17        6.098282      6.297808   0.000000   0.000000
   18        6.513640      6.751552   0.000000   0.000000
   19        7.702651      7.844177   0.000000   0.000000
   20        8.223601      8.356251   0.000000   0.000000
   21        8.834414      8.951620   0.000000   0.000000
   22        9.171436      9.279875   0.000000   0.000000
   23        9.604594      9.721198   0.000000   0.000000
   24       10.724793     10.838833   0.000000   0.000000
   25       11.615449     11.900773   0.000000   0.000000
   26       12.976921     13.148910   0.000000   0.000000
   27       14.427580     14.587264   0.000000   0.000000
   28       15.443457     15.645309   0.000000   0.000000
   29       16.414337     16.641377   0.000000   0.000000
   30       17.261673     17.283985   0.000000   0.000000
   31       18.289149     18.509655   0.000000   0.000000
   32       19.183625     19.419453   0.000000   0.000000
 
  0.2857143E+00  0.3634246E-15  0.3608225E-15  0.1190476E-01
    1      -32.011718    -31.997810   1.000000   1.000000
    2      -28.343252    -27.994715   1.000000   1.000000
    3      -28.277663    -27.921367   1.000000   1.000000
    4      -28.237117    -27.698100   1.000000   1.000000
    5      -14.337705    -14.315163   1.000000   1.000000
    6      -14.102699    -14.084628   1.000000   1.000000
    7      -13.927791    -13.908162   1.000000   1.000000
    8       -4.990759     -4.921554   1.000000   1.000000
    9       -2.167166     -2.102636   1.000000   1.000000
   10       -1.468347     -1.364356   1.000000   1.000000
   11       -0.990466     -0.817193   1.000000   1.000000
   12       -0.013540      0.127067   1.000000   1.000000
   13        1.105372      1.271212   1.000000   1.000000
   14        3.081951      3.709768   1.000001   0.000000
   15        4.523436      4.715957   0.000000   0.000000
   16        5.400766      5.634219   0.000000   0.000000
   17        6.516534      6.781356   0.000000   0.000000
   18        7.227104      7.381372   0.000000   0.000000
   19        7.507966      7.758043   0.000000   0.000000
   20        8.036796      8.139072   0.000000   0.000000
   21        8.804657      8.967702   0.000000   0.000000
   22        9.301724      9.423102   0.000000   0.000000
   23       10.065065     10.195448   0.000000   0.000000
   24       10.476174     10.555960   0.000000   0.000000
   25       11.782027     12.064300   0.000000   0.000000
   26       13.160740     13.396666   0.000000   0.000000
   27       15.002891     15.148120   0.000000   0.000000
   28       15.607720     15.663086   0.000000   0.000000
   29       16.539384     16.676363   0.000000   0.000000
   30       17.348333     17.551532   0.000000   0.000000
   31       17.997194     18.172240   0.000000   0.000000
   32       18.249333     18.523216   0.000000   0.000000
 
  0.4285714E+00  0.3712308E-15  0.3538836E-15  0.1190476E-01
    1      -31.992877    -31.978998   1.000000   1.000000
    2      -28.396882    -28.046713   1.000000   1.000000
    3      -28.272338    -27.916324   1.000000   1.000000
    4      -28.230898    -27.694066   1.000000   1.000000
    5      -14.567325    -14.543850   1.000000   1.000000
    6      -14.064038    -14.046204   1.000000   1.000000
    7      -13.905409    -13.886106   1.000000   1.000000
    8       -3.887510     -3.820808   1.000000   1.000000
    9       -2.723662     -2.675080   1.000000   1.000000
   10       -1.273300     -1.126780   1.000000   1.000000
   11       -0.919904     -0.759788   1.000000   1.000000
   12       -0.463744     -0.335808   1.000000   1.000000
   13        0.437843      0.602929   1.000000   1.000000
   14        3.279533      3.937592   1.003339   0.000000
   15        4.274200      4.422636   0.000000   0.000000
   16        5.255746      5.534244   0.000000   0.000000
   17        6.490959      6.679611   0.000000   0.000000
   18        6.974696      7.238431   0.000000   0.000000
   19        7.511513      7.671172   0.000000   0.000000
   20        9.068597      9.263794   0.000000   0.000000
   21        9.404049      9.501993   0.000000   0.000000
   22       10.003007     10.092525   0.000000   0.000000
   23       10.175365     10.318646   0.000000   0.000000
   24       10.534905     10.734095   0.000000   0.000000
   25       12.105058     12.391065   0.000000   0.000000
   26       12.615942     12.739921   0.000000   0.000000
   27       13.726391     13.878218   0.000000   0.000000
   28       14.229440     14.265147   0.000000   0.000000
   29       15.876922     16.096219   0.000000   0.000000
   30       17.747099     18.045442   0.000000   0.000000
   31       18.248114     18.408863   0.000000   0.000000
   32       18.624830     18.744974   0.000000   0.000000
 
  0.3707971E-15  0.1666667E+00  0.3538836E-15  0.1190476E-01
    1      -32.037115    -32.023160   1.000000   1.000000
    2      -28.299987    -27.959304   1.000000   1.000000
    3      -28.258087    -27.895608   1.000000   1.000000
    4      -28.242811    -27.700923   1.000000   1.000000
    5      -14.153448    -14.135579   1.000000   1.000000
    6      -14.103654    -14.082681   1.000000   1.000000
    7      -13.876654    -13.856007   1.000000   1.000000
    8       -5.773040     -5.698777   1.000000   1.000000
    9       -2.178339     -2.096864   1.000000   1.000000
   10       -1.853542     -1.744843   1.000000   1.000000
   11       -0.872606     -0.745920   1.000000   1.000000
   12        0.625346      0.788485   1.000000   1.000000
   13        2.379486      2.532865   1.000000   1.000000
   14        3.164389      3.826020   1.000000   0.000000
   15        4.317144      4.509988   0.000000   0.000000
   16        4.996459      5.210493   0.000000   0.000000
   17        5.826759      6.091114   0.000000   0.000000
   18        6.412265      6.662413   0.000000   0.000000
   19        8.137613      8.227577   0.000000   0.000000
   20        8.423724      8.564915   0.000000   0.000000
   21        8.903337      9.004950   0.000000   0.000000
   22        9.241509      9.387302   0.000000   0.000000
   23        9.936572     10.038575   0.000000   0.000000
   24       10.759629     10.880500   0.000000   0.000000
   25       11.416750     11.658697   0.000000   0.000000
   26       12.606399     12.816996   0.000000   0.000000
   27       14.598908     14.747345   0.000000   0.000000
   28       15.853804     16.127036   0.000000   0.000000
   29       16.264874     16.432785   0.000000   0.000000
   30       16.993783     17.020081   0.000000   0.000000
   31       17.912796     18.121842   0.000000   0.000000
   32       18.828261     19.001359   0.000000   0.000000
 
  0.1428571E+00  0.1666667E+00  0.3330669E-15  0.1190476E-01
    1      -32.026833    -32.012894   1.000000   1.000000
    2      -28.297545    -27.957937   1.000000   1.000000
    3      -28.272967    -27.921881   1.000000   1.000000
    4      -28.254380    -27.700521   1.000000   1.000000
    5      -14.132514    -14.114970   1.000000   1.000000
    6      -14.089677    -14.068128   1.000000   1.000000
    7      -14.015490    -13.994801   1.000000   1.000000
    8       -5.466296     -5.394129   1.000000   1.000000
    9       -2.038638     -1.962443   1.000000   1.000000
   10       -1.724218     -1.617127   1.000000   1.000000
   11       -0.885676     -0.738747   1.000000   1.000000
   12        0.182883      0.338354   1.000000   1.000000
   13        1.539984      1.685635   1.000000   1.000000
   14        3.285063      3.981911   1.000000   0.000000
   15        4.620830      4.766267   0.000000   0.000000
   16        5.389696      5.687311   0.000000   0.000000
   17        6.267332      6.481395   0.000000   0.000000
   18        6.704193      6.940492   0.000000   0.000000
   19        7.256915      7.409719   0.000000   0.000000
   20        8.226650      8.346791   0.000000   0.000000
   21        8.811440      8.979022   0.000000   0.000000
   22        9.457690      9.528545   0.000000   0.000000
   23        9.880214      9.982851   0.000000   0.000000
   24       10.563469     10.671984   0.000000   0.000000
   25       12.539742     12.820655   0.000000   0.000000
   26       12.980947     13.169934   0.000000   0.000000
   27       14.396322     14.586336   0.000000   0.000000
   28       15.641399     15.791112   0.000000   0.000000
   29       16.383461     16.452695   0.000000   0.000000
   30       16.607449     16.833360   0.000000   0.000000
   31       17.771124     17.997836   0.000000   0.000000
   32       18.665339     18.819335   0.000000   0.000000
 
  0.2857143E+00  0.1666667E+00  0.3747003E-15  0.1190476E-01
    1      -32.003614    -31.989715   1.000000   1.000000
    2      -28.341406    -27.993747   1.000000   1.000000
    3      -28.290241    -27.943594   1.000000   1.000000
    4      -28.246248    -27.697047   1.000000   1.000000
    5      -14.318125    -14.295803   1.000000   1.000000
    6      -14.083409    -14.065695   1.000000   1.000000
    7      -14.050429    -14.030462   1.000000   1.000000
    8       -4.657549     -4.590533   1.000000   1.000000
    9       -1.952900     -1.887357   1.000000   1.000000
   10       -1.470386     -1.372431   1.000000   1.000000
   11       -0.956380     -0.760703   1.000000   1.000000
   12       -0.486109     -0.343078   1.000000   1.000000
   13        0.497684      0.639033   1.000000   1.000000
   14        3.431974      4.087977   0.971832   0.000000
   15        4.804743      4.977899   0.000000   0.000000
   16        5.518255      5.792527   0.000000   0.000000
   17        6.571201      6.761997   0.000000   0.000000
   18        6.907639      7.173173   0.000000   0.000000
   19        7.387110      7.623208   0.000000   0.000000
   20        8.160930      8.268343   0.000000   0.000000
   21        8.855892      9.010099   0.000000   0.000000
   22        9.713626      9.842855   0.000000   0.000000
   23       10.209760     10.290222   0.000000   0.000000
   24       10.604700     10.662480   0.000000   0.000000
   25       12.122376     12.500789   0.000000   0.000000
   26       13.436834     13.596447   0.000000   0.000000
   27       14.458203     14.610610   0.000000   0.000000
   28       14.964482     15.050565   0.000000   0.000000
   29       15.772287     15.910951   0.000000   0.000000
   30       16.919555     17.117652   0.000000   0.000000
   31       17.634186     17.745951   0.000000   0.000000
   32       18.505891     18.663023   0.000000   0.000000
 
  0.4285714E+00  0.1666667E+00  0.3330669E-15  0.1190476E-01
    1      -31.984861    -31.970995   1.000000   1.000000
    2      -28.394705    -28.044814   1.000000   1.000000
    3      -28.285171    -27.939146   1.000000   1.000000
    4      -28.239710    -27.692914   1.000000   1.000000
    5      -14.542134    -14.519197   1.000000   1.000000
    6      -14.044177    -14.026876   1.000000   1.000000
    7      -14.021354    -14.001669   1.000000   1.000000
    8       -3.593390     -3.530617   1.000000   1.000000
    9       -2.520781     -2.463036   1.000000   1.000000
   10       -1.316236     -1.164516   1.000000   1.000000
   11       -1.010948     -0.886335   1.000000   1.000000
   12       -0.755859     -0.577810   1.000000   1.000000
   13       -0.058159      0.082451   1.000000   1.000000
   14        3.623332      4.262465   0.759726   0.000000
   15        4.764006      4.931044   0.000000   0.000000
   16        5.375877      5.658706   0.000000   0.000000
   17        6.077893      6.308022   0.000000   0.000000
   18        7.326011      7.517480   0.000000   0.000000
   19        7.564131      7.837028   0.000000   0.000000
   20        8.913003      9.022912   0.000000   0.000000
   21        9.407470      9.569853   0.000000   0.000000
   22        9.920935     10.064685   0.000000   0.000000
   23       10.443598     10.546461   0.000000   0.000000
   24       11.055055     11.250591   0.000000   0.000000
   25       11.544438     11.799297   0.000000   0.000000
   26       12.389040     12.512727   0.000000   0.000000
   27       13.835872     13.903648   0.000000   0.000000
   28       14.510011     14.616483   0.000000   0.000000
   29       14.957343     15.101784   0.000000   0.000000
   30       18.023967     18.147909   0.000000   0.000000
   31       18.385362     18.596279   0.000000   0.000000
   32       18.866297     19.043830   0.000000   0.000000
 
 -0.4285714E+00  0.1666667E+00  0.3469447E-15  0.1190476E-01
    1      -31.984866    -31.971003   1.000000   1.000000
    2      -28.394616    -28.044965   1.000000   1.000000
    3      -28.285147    -27.938946   1.000000   1.000000
    4      -28.239714    -27.692833   1.000000   1.000000
    5      -14.542015    -14.519179   1.000000   1.000000
    6      -14.044235    -14.026939   1.000000   1.000000
    7      -14.020811    -14.001136   1.000000   1.000000
    8       -3.618582     -3.555514   1.000000   1.000000
    9       -2.528417     -2.470233   1.000000   1.000000
   10       -1.423626     -1.285718   1.000000   1.000000
   11       -1.067057     -0.924808   1.000000   1.000000
   12       -0.663983     -0.494438   1.000000   1.000000
   13        0.126475      0.285365   1.000000   1.000000
   14        3.583213      4.175684   0.788924   0.000000
   15        4.796606      4.982198   0.000000   0.000000
   16        5.455603      5.693059   0.000000   0.000000
   17        5.852832      6.101098   0.000000   0.000000
   18        7.230304      7.492148   0.000000   0.000000
   19        7.724154      7.954699   0.000000   0.000000
   20        8.934724      9.044778   0.000000   0.000000
   21        9.460732      9.629128   0.000000   0.000000
   22       10.013718     10.158303   0.000000   0.000000
   23       10.457291     10.610934   0.000000   0.000000
   24       10.960006     11.125338   0.000000   0.000000
   25       11.507755     11.769771   0.000000   0.000000
   26       12.428118     12.556644   0.000000   0.000000
   27       13.687345     13.750448   0.000000   0.000000
   28       14.223051     14.320037   0.000000   0.000000
   29       15.195836     15.334252   0.000000   0.000000
   30       18.042202     18.237304   0.000000   0.000000
   31       18.257089     18.390908   0.000000   0.000000
   32       18.839767     18.961601   0.000000   0.000000
 
 -0.2857143E+00  0.1666667E+00  0.3469447E-15  0.1190476E-01
    1      -32.003625    -31.989732   1.000000   1.000000
    2      -28.341121    -27.994478   1.000000   1.000000
    3      -28.290286    -27.942790   1.000000   1.000000
    4      -28.246245    -27.696832   1.000000   1.000000
    5      -14.318176    -14.296238   1.000000   1.000000
    6      -14.083605    -14.066040   1.000000   1.000000
    7      -14.048807    -14.028571   1.000000   1.000000
    8       -4.684810     -4.617501   1.000000   1.000000
    9       -2.005528     -1.938449   1.000000   1.000000
   10       -1.546149     -1.451655   1.000000   1.000000
   11       -1.190177     -1.024161   1.000000   1.000000
   12       -0.162934      0.029968   1.000000   1.000000
   13        0.774183      0.934853   1.000000   1.000000
   14        3.300856      3.845272   0.974686   0.000000
   15        4.797547      5.000440   0.000000   0.000000
   16        5.747527      5.979981   0.000000   0.000000
   17        6.111923      6.289514   0.000000   0.000000
   18        6.882569      7.228939   0.000000   0.000000
   19        7.567387      7.795347   0.000000   0.000000
   20        8.097939      8.229920   0.000000   0.000000
   21        9.123859      9.244561   0.000000   0.000000
   22        9.628409      9.779903   0.000000   0.000000
   23       10.341807     10.450916   0.000000   0.000000
   24       10.587450     10.694517   0.000000   0.000000
   25       11.887012     12.207406   0.000000   0.000000
   26       13.220574     13.412625   0.000000   0.000000
   27       14.428055     14.527228   0.000000   0.000000
   28       15.082415     15.136031   0.000000   0.000000
   29       15.399405     15.615436   0.000000   0.000000
   30       16.940873     17.079149   0.000000   0.000000
   31       17.874872     18.008088   0.000000   0.000000
   32       18.586186     18.722670   0.000000   0.000000
 
 -0.1428571E+00  0.1666667E+00  0.3400058E-15  0.1190476E-01
    1      -32.026842    -32.012907   1.000000   1.000000
    2      -28.297124    -27.958645   1.000000   1.000000
    3      -28.273285    -27.921165   1.000000   1.000000
    4      -28.254284    -27.700295   1.000000   1.000000
    5      -14.132222    -14.114479   1.000000   1.000000
    6      -14.091702    -14.071595   1.000000   1.000000
    7      -14.012609    -13.990894   1.000000   1.000000
    8       -5.481779     -5.409496   1.000000   1.000000
    9       -2.063654     -1.985910   1.000000   1.000000
   10       -1.775109     -1.669967   1.000000   1.000000
   11       -1.014128     -0.878736   1.000000   1.000000
   12        0.440867      0.634921   1.000000   1.000000
   13        1.740105      1.895132   1.000000   1.000000
   14        3.103558      3.682359   1.014036   0.000000
   15        4.615524      4.808142   0.000000   0.000000
   16        5.553789      5.781614   0.000000   0.000000
   17        6.115870      6.304581   0.000000   0.000000
   18        6.644259      6.997040   0.000000   0.000000
   19        7.202674      7.377164   0.000000   0.000000
   20        8.216164      8.338849   0.000000   0.000000
   21        8.893805      8.998265   0.000000   0.000000
   22        9.509246      9.603829   0.000000   0.000000
   23        9.918656     10.052299   0.000000   0.000000
   24       10.681368     10.833042   0.000000   0.000000
   25       12.031536     12.306898   0.000000   0.000000
   26       13.217467     13.380231   0.000000   0.000000
   27       14.090840     14.263052   0.000000   0.000000
   28       15.701092     15.854889   0.000000   0.000000
   29       16.282900     16.326430   0.000000   0.000000
   30       16.799778     17.045778   0.000000   0.000000
   31       17.763903     17.980318   0.000000   0.000000
   32       18.503074     18.658581   0.000000   0.000000
 
  0.3747003E-15  0.3333333E+00  0.2914335E-15  0.1190476E-01
    1      -32.020535    -32.006579   1.000000   1.000000
    2      -28.342268    -28.006983   1.000000   1.000000
    3      -28.259438    -27.892040   1.000000   1.000000
    4      -28.239431    -27.697803   1.000000   1.000000
    5      -14.360795    -14.339036   1.000000   1.000000
    6      -14.116825    -14.098841   1.000000   1.000000
    7      -13.856848    -13.836500   1.000000   1.000000
    8       -4.829645     -4.759030   1.000000   1.000000
    9       -2.436933     -2.383502   1.000000   1.000000
   10       -1.519466     -1.416640   1.000000   1.000000
   11       -1.079963     -0.890382   1.000000   1.000000
   12       -0.022177      0.117274   1.000000   1.000000
   13        1.772615      1.905761   1.000000   1.000000
   14        3.360154      4.034161   1.004655   0.000000
   15        4.181468      4.388531   0.000000   0.000000
   16        4.477271      4.721563   0.000000   0.000000
   17        6.339014      6.603329   0.000000   0.000000
   18        7.475064      7.676712   0.000000   0.000000
   19        7.565546      7.803321   0.000000   0.000000
   20        8.501098      8.599457   0.000000   0.000000
   21        8.812455      8.910112   0.000000   0.000000
   22        9.270234      9.355169   0.000000   0.000000
   23       10.102019     10.254288   0.000000   0.000000
   24       10.579674     10.657996   0.000000   0.000000
   25       12.220987     12.529667   0.000000   0.000000
   26       13.011446     13.205506   0.000000   0.000000
   27       14.427873     14.548692   0.000000   0.000000
   28       14.818547     14.910169   0.000000   0.000000
   29       17.287258     17.403226   0.000000   0.000000
   30       17.542901     17.739736   0.000000   0.000000
   31       18.007013     18.192129   0.000000   0.000000
   32       18.596834     18.889651   0.000000   0.000000
 
  0.1428571E+00  0.3333333E+00  0.2775558E-15  0.1190476E-01
    1      -32.010382    -31.996450   1.000000   1.000000
    2      -28.339300    -28.004140   1.000000   1.000000
    3      -28.269846    -27.919476   1.000000   1.000000
    4      -28.255624    -27.697304   1.000000   1.000000
    5      -14.338534    -14.317105   1.000000   1.000000
    6      -14.095020    -14.077236   1.000000   1.000000
    7      -13.989791    -13.969093   1.000000   1.000000
    8       -4.541548     -4.473041   1.000000   1.000000
    9       -2.258636     -2.204245   1.000000   1.000000
   10       -1.492738     -1.389965   1.000000   1.000000
   11       -1.071821     -0.874433   1.000000   1.000000
   12       -0.377226     -0.227729   1.000000   1.000000
   13        0.939918      1.063067   1.000000   1.000000
   14        3.555230      4.240726   0.895578   0.000000
   15        4.489774      4.694013   0.000000   0.000000
   16        5.157873      5.419124   0.000000   0.000000
   17        6.429554      6.648650   0.000000   0.000000
   18        7.069951      7.277915   0.000000   0.000000
   19        7.311794      7.566579   0.000000   0.000000
   20        8.506658      8.595414   0.000000   0.000000
   21        8.943944      9.083712   0.000000   0.000000
   22        9.752831      9.865073   0.000000   0.000000
   23       10.363472     10.462300   0.000000   0.000000
   24       10.607398     10.669257   0.000000   0.000000
   25       11.974349     12.280804   0.000000   0.000000
   26       12.825084     13.054610   0.000000   0.000000
   27       14.370566     14.468641   0.000000   0.000000
   28       14.952138     15.052163   0.000000   0.000000
   29       16.471134     16.636161   0.000000   0.000000
   30       17.224670     17.392452   0.000000   0.000000
   31       17.743611     17.922715   0.000000   0.000000
   32       18.595015     18.734419   0.000000   0.000000
 
  0.2857143E+00  0.3333333E+00  0.3608225E-15  0.1190476E-01
    1      -31.987344    -31.973468   1.000000   1.000000
    2      -28.338973    -28.004917   1.000000   1.000000
    3      -28.330186    -27.975413   1.000000   1.000000
    4      -28.247790    -27.693739   1.000000   1.000000
    5      -14.295908    -14.273611   1.000000   1.000000
    6      -14.265807    -14.246679   1.000000   1.000000
    7      -14.044326    -14.026578   1.000000   1.000000
    8       -3.819708     -3.755757   1.000000   1.000000
    9       -1.892940     -1.812218   1.000000   1.000000
   10       -1.501634     -1.422324   1.000000   1.000000
   11       -1.196310     -1.031961   1.000000   1.000000
   12       -0.905083     -0.697103   1.000000   1.000000
   13       -0.179387     -0.069322   1.000000   1.000000
   14        3.918726      4.533708   0.091660   0.000000
   15        4.956251      5.222380   0.000000   0.000000
   16        5.548398      5.844045   0.000000   0.000000
   17        6.707726      6.912599   0.000000   0.000000
   18        7.170939      7.446012   0.000000   0.000000
   19        7.454537      7.694111   0.000000   0.000000
   20        8.262353      8.344609   0.000000   0.000000
   21        8.837670      8.987371   0.000000   0.000000
   22       10.192944     10.322199   0.000000   0.000000
   23       10.425098     10.509426   0.000000   0.000000
   24       10.937898     11.080302   0.000000   0.000000
   25       11.425610     11.652202   0.000000   0.000000
   26       13.068372     13.233234   0.000000   0.000000
   27       13.716895     13.832433   0.000000   0.000000
   28       14.348063     14.497565   0.000000   0.000000
   29       15.719508     15.790377   0.000000   0.000000
   30       17.194955     17.322653   0.000000   0.000000
   31       18.073134     18.256356   0.000000   0.000000
   32       19.526614     19.624835   0.000000   0.000000
 
  0.4285714E+00  0.3333333E+00  0.3053113E-15  0.1190476E-01
    1      -31.968763    -31.954934   1.000000   1.000000
    2      -28.390298    -28.042510   1.000000   1.000000
    3      -28.326290    -27.983750   1.000000   1.000000
    4      -28.241413    -27.689594   1.000000   1.000000
    5      -14.490798    -14.469052   1.000000   1.000000
    6      -14.243720    -14.224465   1.000000   1.000000
    7      -14.003495    -13.986117   1.000000   1.000000
    8       -2.943938     -2.882649   1.000000   1.000000
    9       -2.139793     -2.036423   1.000000   1.000000
   10       -1.534424     -1.395486   1.000000   1.000000
   11       -1.213612     -1.122366   1.000000   1.000000
   12       -1.072804     -0.891624   1.000000   1.000000
   13       -0.829930     -0.704418   1.000000   1.000000
   14        4.282417      4.853877  -0.198600   0.000000
   15        5.092640      5.387272   0.000000   0.000000
   16        5.469690      5.834704   0.000000   0.000000
   17        6.705599      6.905635   0.000000   0.000000
   18        7.392289      7.603727   0.000000   0.000000
   19        7.738355      8.044412   0.000000   0.000000
   20        8.481369      8.604080   0.000000   0.000000
   21        9.210516      9.385205   0.000000   0.000000
   22        9.828207      9.969630   0.000000   0.000000
   23       10.306954     10.520490   0.000000   0.000000
   24       10.850171     10.942346   0.000000   0.000000
   25       11.870334     11.923956   0.000000   0.000000
   26       12.789094     12.898891   0.000000   0.000000
   27       13.157851     13.276855   0.000000   0.000000
   28       13.878950     14.020168   0.000000   0.000000
   29       15.391903     15.496377   0.000000   0.000000
   30       16.916486     16.959564   0.000000   0.000000
   31       18.821241     18.950589   0.000000   0.000000
   32       19.687802     19.889359   0.000000   0.000000
 
 -0.4285714E+00  0.3333333E+00  0.3330669E-15  0.1190476E-01
    1      -31.968765    -31.954940   1.000000   1.000000
    2      -28.390188    -28.042823   1.000000   1.000000
    3      -28.326284    -27.983376   1.000000   1.000000
    4      -28.241422    -27.689527   1.000000   1.000000
    5      -14.490977    -14.469416   1.000000   1.000000
    6      -14.242879    -14.223487   1.000000   1.000000
    7      -14.003572    -13.986262   1.000000   1.000000
    8       -2.979315     -2.916202   1.000000   1.000000
    9       -2.162127     -2.064153   1.000000   1.000000
   10       -1.639531     -1.502601   1.000000   1.000000
   11       -1.337769     -1.239950   1.000000   1.000000
   12       -1.015501     -0.830877   1.000000   1.000000
   13       -0.533084     -0.402213   1.000000   1.000000
   14        4.251786      4.794235  -0.175790   0.000000
   15        5.150841      5.446629   0.000000   0.000000
   16        5.431188      5.741330   0.000000   0.000000