unknown system                          
           1
     3.406048    0.201670    0.243031
    -0.310483    3.536628    0.873627
    -0.286647   -1.394998    5.145791
   Sr   Nb   H 
   1   1   6
Direct configuration=     1
   0.87165300  0.70660600  0.84969100
   0.33876900  0.14278700  0.36608700
   0.91589100  0.84339400  0.36179900
   0.88074100  0.29447100  0.51462000
   0.89170000  0.23412800  0.15107300
   0.36414300  0.18422700  0.72670700
   0.37232300  0.72588000  0.15282700
   0.38912800  0.67897200  0.51516400
unknown system                          
           1
     3.447493    0.203584    0.247092
    -0.313625    3.567663    0.881415
    -0.287688   -1.408589    5.197788
   Sr   Nb   H 
   1   1   6
Direct configuration=     2
   0.87186614  0.70646820  0.84954349
   0.33608584  0.14252334  0.36648087
   0.91663448  0.84383263  0.36197282
   0.88156802  0.29449376  0.51451009
   0.89232771  0.23379813  0.15113888
   0.36423646  0.18420203  0.72648042
   0.37228425  0.72591059  0.15260575
   0.38934510  0.67923631  0.51523568
unknown system                          
           1
     3.473615    0.204790    0.249652
    -0.315606    3.587223    0.886323
    -0.288345   -1.417156    5.230561
   Sr   Nb   H 
   1   1   6
Direct configuration=     3
   0.87199889  0.70638212  0.84945142
   0.33441491  0.14235848  0.36672702
   0.91709741  0.84410670  0.36208117
   0.88208304  0.29450803  0.51444139
   0.89271853  0.23359205  0.15117990
   0.36429473  0.18418645  0.72633903
   0.37226019  0.72592972  0.15246770
   0.38948029  0.67940145  0.51528037
unknown system                          
           1
     3.488769    0.205248    0.248920
    -0.316828    3.593803    0.882754
    -0.290739   -1.426422    5.236025
   Sr   Nb   H 
   1   1   6
Direct configuration=     4
   0.87215015  0.70661606  0.84920350
   0.32841918  0.13915174  0.36882670
   0.91953517  0.84584502  0.36238736
   0.88363882  0.29367703  0.51366878
   0.89491844  0.23281839  0.15175764
   0.36427816  0.18384223  0.72481852
   0.37189846  0.72790715  0.15247752
   0.38950962  0.68060738  0.51482798
unknown system                          
           1
     3.497441    0.205511    0.248501
    -0.317527    3.597567    0.880712
    -0.292108   -1.431724    5.239152
   Sr   Nb   H 
   1   1   6
Direct configuration=     5
   0.87223625  0.70674946  0.84906198
   0.32500345  0.13732108  0.37002375
   0.92092452  0.84683892  0.36256366
   0.88452476  0.29320157  0.51322715
   0.89617196  0.23237730  0.15208774
   0.36426801  0.18364384  0.72394950
   0.37169269  0.72903695  0.15248410
   0.38952635  0.68129589  0.51457012
unknown system                          
           1
     3.522990    0.212714    0.245461
    -0.313352    3.607288    0.874776
    -0.300950   -1.445381    5.239255
   Sr   Nb   H 
   1   1   6
Direct configuration=     6
   0.87205816  0.70693960  0.84914069
   0.32239075  0.13702588  0.37097830
   0.92123253  0.84619104  0.36306980
   0.88491680  0.29207125  0.51275052
   0.89986313  0.23099350  0.15297495
   0.36398154  0.18314055  0.72248106
   0.37066914  0.73211610  0.15234396
   0.38923595  0.68198708  0.51422873
unknown system                          
           1
     3.543916    0.218614    0.242971
    -0.309932    3.615250    0.869915
    -0.308193   -1.456567    5.239340
   Sr   Nb   H 
   1   1   6
Direct configuration=     7
   0.87191333  0.70709541  0.84920518
   0.32026869  0.13678959  0.37175686
   0.92148478  0.84566255  0.36348355
   0.88523566  0.29114561  0.51235934
   0.90286797  0.22986135  0.15370277
   0.36374581  0.18272539  0.72127823
   0.36983341  0.73463368  0.15223217
   0.38899835  0.68255141  0.51394990
unknown system                          
           1
     3.543712    0.222248    0.239261
    -0.306802    3.611590    0.868597
    -0.314640   -1.455870    5.231230
   Sr   Nb   H 
   1   1   6
Direct configuration=     8
   0.87135451  0.70712335  0.84976519
   0.32196761  0.13790339  0.37083463
   0.92065544  0.84391115  0.36360039
   0.88368424  0.29101062  0.51278825
   0.90504533  0.22961147  0.15358556
   0.36350274  0.18275844  0.72199284
   0.36936579  0.73597129  0.15136361
   0.38877234  0.68217528  0.51403753
unknown system                          
           1
     3.543575    0.224683    0.236774
    -0.304704    3.609136    0.867714
    -0.318961   -1.455403    5.225794
   Sr   Nb   H 
   1   1   6
Direct configuration=     9
   0.87098063  0.70714245  0.85014079
   0.32310466  0.13864985  0.37021661
   0.92010058  0.84273632  0.36367823
   0.88264491  0.29092082  0.51307529
   0.90650486  0.22944277  0.15350807
   0.36334072  0.18278085  0.72247238
   0.36905048  0.73686892  0.15078044
   0.38862115  0.68192301  0.51409620
unknown system                          
           1
     3.538547    0.225516    0.234248
    -0.303606    3.603333    0.866689
    -0.322185   -1.452947    5.217599
   Sr   Nb   H 
   1   1   6
Direct configuration=    10
   0.87054069  0.70720269  0.85048960
   0.32302207  0.13876183  0.37034563
   0.92021923  0.84198453  0.36368227
   0.88186376  0.29067736  0.51319819
   0.90814924  0.22938067  0.15325869
   0.36318490  0.18280200  0.72292505
   0.36883911  0.73786407  0.14999647
   0.38852900  0.68179186  0.51407210
unknown system                          
           1
     3.526193    0.227561    0.228040
    -0.300909    3.589077    0.864170
    -0.330106   -1.446911    5.197465
   Sr   Nb   H 
   1   1   6
Direct configuration=    11
   0.86945913  0.70735096  0.85134737
   0.32281914  0.13903737  0.37066298
   0.92051149  0.84013454  0.36369245
   0.87994228  0.29007851  0.51349980
   0.91219437  0.22922737  0.15264688
   0.36280268  0.18285394  0.72403870
   0.36831663  0.74031315  0.14806709
   0.38830228  0.68146916  0.51401272
