  11  11   1   0
  0.1102781E+02  0.3743476E-09  0.4057587E-09  0.8953551E-09  0.5000000E-15
  1.000000000000000E-004
  CAR 
 unknown system                          
     10.76497079    -35.44738029  301      2.74860549      1.00000000
    -35.447  0.0000E+00  0.0000E+00  0.0000E+00  0.0000E+00
    -35.293  0.0000E+00  0.0000E+00  0.0000E+00  0.0000E+00
    -35.139  0.0000E+00  0.0000E+00  0.0000E+00  0.0000E+00
    -34.985  0.0000E+00  0.0000E+00  0.0000E+00  0.0000E+00
    -34.831  0.0000E+00  0.0000E+00  0.0000E+00  0.0000E+00
    -34.677  0.0000E+00  0.0000E+00  0.0000E+00  0.0000E+00
    -34.523  0.0000E+00  0.0000E+00  0.0000E+00  0.0000E+00
    -34.369  0.0000E+00  0.0000E+00  0.0000E+00  0.0000E+00
    -34.215  0.0000E+00  0.0000E+00  0.0000E+00  0.0000E+00
    -34.061  0.0000E+00  0.0000E+00  0.0000E+00  0.0000E+00
    -33.907  0.0000E+00  0.0000E+00  0.0000E+00  0.0000E+00
    -33.753  0.0000E+00  0.0000E+00  0.0000E+00  0.0000E+00
    -33.599  0.0000E+00  0.0000E+00  0.0000E+00  0.0000E+00
    -33.445  0.0000E+00  0.0000E+00  0.0000E+00  0.0000E+00
    -33.291  0.0000E+00  0.0000E+00  0.1010E-01  0.1010E-01
    -33.137  0.0000E+00  0.0000E+00  0.1010E-01  0.1010E-01
    -32.983  0.0000E+00  0.0000E+00  0.1010E-01  0.1010E-01
    -32.829  0.0000E+00  0.0000E+00  0.2020E-01  0.2020E-01
    -32.675  0.0000E+00  0.0000E+00  0.2020E-01  0.2020E-01
    -32.521  0.0000E+00  0.0000E+00  0.2020E-01  0.2020E-01
    -32.367  0.0000E+00  0.0000E+00  0.2020E-01  0.2020E-01
    -32.213  0.0000E+00  0.0000E+00  0.2020E-01  0.2020E-01
    -32.058  0.0000E+00  0.0000E+00  0.2020E-01  0.2020E-01
    -31.904  0.0000E+00  0.0000E+00  0.2020E-01  0.2020E-01
    -31.750  0.0000E+00  0.0000E+00  0.2020E-01  0.2020E-01
    -31.596  0.0000E+00  0.0000E+00  0.2020E-01  0.2020E-01
    -31.442  0.0000E+00  0.0000E+00  0.2020E-01  0.2020E-01
    -31.288  0.0000E+00  0.0000E+00  0.2020E-01  0.2020E-01
    -31.134  0.0000E+00  0.0000E+00  0.2020E-01  0.2020E-01
    -30.980  0.0000E+00  0.0000E+00  0.2020E-01  0.2020E-01
    -30.826  0.0000E+00  0.0000E+00  0.2020E-01  0.2020E-01
    -30.672  0.0000E+00  0.0000E+00  0.2020E-01  0.2020E-01
    -30.518  0.0000E+00  0.0000E+00  0.2020E-01  0.2020E-01
    -30.364  0.0000E+00  0.0000E+00  0.2020E-01  0.2020E-01
    -30.210  0.0000E+00  0.0000E+00  0.2020E-01  0.2020E-01
    -30.056  0.0000E+00  0.0000E+00  0.2020E-01  0.2020E-01
    -29.902  0.0000E+00  0.0000E+00  0.2020E-01  0.2020E-01
    -29.748  0.0000E+00  0.0000E+00  0.2020E-01  0.2020E-01
    -29.594  0.0000E+00  0.0000E+00  0.2020E-01  0.2020E-01
    -29.440  0.0000E+00  0.0000E+00  0.2020E-01  0.2020E-01
    -29.286  0.0000E+00  0.0000E+00  0.2020E-01  0.2020E-01
    -29.132  0.0000E+00  0.0000E+00  0.2020E-01  0.2020E-01
    -28.978  0.0000E+00  0.0000E+00  0.2020E-01  0.2020E-01
    -28.824  0.0000E+00  0.0000E+00  0.2020E-01  0.2020E-01
    -28.670  0.0000E+00  0.0000E+00  0.2020E-01  0.2020E-01
    -28.516  0.0000E+00  0.0000E+00  0.3030E-01  0.2020E-01
    -28.361  0.0000E+00  0.0000E+00  0.4040E-01  0.3030E-01
    -28.207  0.0000E+00  0.0000E+00  0.5051E-01  0.4040E-01
    -28.053  0.0000E+00  0.9359E-01  0.5051E-01  0.4683E-01
    -27.899  0.0000E+00  0.0000E+00  0.5051E-01  0.5051E-01
    -27.745  0.0000E+00  0.0000E+00  0.5051E-01  0.5051E-01
    -27.591  0.0000E+00  0.0000E+00  0.5051E-01  0.5051E-01
    -27.437  0.0000E+00  0.0000E+00  0.5051E-01  0.5051E-01
    -27.283  0.0000E+00  0.0000E+00  0.5051E-01  0.5051E-01
    -27.129  0.0000E+00  0.0000E+00  0.5051E-01  0.5051E-01
    -26.975  0.0000E+00  0.0000E+00  0.5051E-01  0.5051E-01
    -26.821  0.0000E+00  0.0000E+00  0.5051E-01  0.5051E-01
    -26.667  0.0000E+00  0.0000E+00  0.5051E-01  0.5051E-01
    -26.513  0.0000E+00  0.0000E+00  0.5051E-01  0.5051E-01
    -26.359  0.0000E+00  0.0000E+00  0.5051E-01  0.5051E-01
    -26.205  0.0000E+00  0.0000E+00  0.5051E-01  0.5051E-01
    -26.051  0.0000E+00  0.0000E+00  0.5051E-01  0.5051E-01
    -25.897  0.0000E+00  0.0000E+00  0.5051E-01  0.5051E-01
    -25.743  0.0000E+00  0.0000E+00  0.5051E-01  0.5051E-01
    -25.589  0.0000E+00  0.0000E+00  0.5051E-01  0.5051E-01
    -25.435  0.0000E+00  0.0000E+00  0.5051E-01  0.5051E-01
    -25.281  0.0000E+00  0.0000E+00  0.5051E-01  0.5051E-01
    -25.127  0.0000E+00  0.0000E+00  0.5051E-01  0.5051E-01
    -24.973  0.0000E+00  0.0000E+00  0.5051E-01  0.5051E-01
    -24.819  0.0000E+00  0.0000E+00  0.5051E-01  0.5051E-01
    -24.664  0.0000E+00  0.0000E+00  0.5051E-01  0.5051E-01
    -24.510  0.0000E+00  0.0000E+00  0.5051E-01  0.5051E-01
    -24.356  0.0000E+00  0.0000E+00  0.5051E-01  0.5051E-01
    -24.202  0.0000E+00  0.0000E+00  0.5051E-01  0.5051E-01
    -24.048  0.0000E+00  0.0000E+00  0.5051E-01  0.5051E-01
    -23.894  0.0000E+00  0.0000E+00  0.5051E-01  0.5051E-01
    -23.740  0.0000E+00  0.0000E+00  0.5051E-01  0.5051E-01
    -23.586  0.0000E+00  0.0000E+00  0.5051E-01  0.5051E-01
    -23.432  0.0000E+00  0.0000E+00  0.5051E-01  0.5051E-01
    -23.278  0.0000E+00  0.0000E+00  0.5051E-01  0.5051E-01
    -23.124  0.0000E+00  0.0000E+00  0.5051E-01  0.5051E-01
    -22.970  0.0000E+00  0.0000E+00  0.5051E-01  0.5051E-01
    -22.816  0.0000E+00  0.0000E+00  0.5051E-01  0.5051E-01
    -22.662  0.0000E+00  0.0000E+00  0.5051E-01  0.5051E-01
    -22.508  0.0000E+00  0.0000E+00  0.5051E-01  0.5051E-01
    -22.354  0.0000E+00  0.0000E+00  0.5051E-01  0.5051E-01
    -22.200  0.0000E+00  0.0000E+00  0.5051E-01  0.5051E-01
    -22.046  0.0000E+00  0.0000E+00  0.5051E-01  0.5051E-01
    -21.892  0.0000E+00  0.0000E+00  0.5051E-01  0.5051E-01
    -21.738  0.0000E+00  0.0000E+00  0.5051E-01  0.5051E-01
    -21.584  0.0000E+00  0.0000E+00  0.5051E-01  0.5051E-01
    -21.430  0.0000E+00  0.0000E+00  0.5051E-01  0.5051E-01
    -21.276  0.0000E+00  0.0000E+00  0.5051E-01  0.5051E-01
    -21.122  0.0000E+00  0.0000E+00  0.5051E-01  0.5051E-01
    -20.968  0.0000E+00  0.0000E+00  0.5051E-01  0.5051E-01
    -20.813  0.0000E+00  0.0000E+00  0.5051E-01  0.5051E-01
    -20.659  0.0000E+00  0.0000E+00  0.5051E-01  0.5051E-01
    -20.505  0.0000E+00  0.0000E+00  0.5051E-01  0.5051E-01
    -20.351  0.0000E+00  0.0000E+00  0.5051E-01  0.5051E-01
    -20.197  0.0000E+00  0.0000E+00  0.5051E-01  0.5051E-01
    -20.043  0.0000E+00  0.0000E+00  0.5051E-01  0.5051E-01
    -19.889  0.0000E+00  0.0000E+00  0.5051E-01  0.5051E-01
    -19.735  0.0000E+00  0.0000E+00  0.5051E-01  0.5051E-01
    -19.581  0.0000E+00  0.0000E+00  0.5051E-01  0.5051E-01
    -19.427  0.0000E+00  0.0000E+00  0.5051E-01  0.5051E-01
    -19.273  0.0000E+00  0.0000E+00  0.5051E-01  0.5051E-01
    -19.119  0.0000E+00  0.0000E+00  0.5051E-01  0.5051E-01
    -18.965  0.0000E+00  0.0000E+00  0.5051E-01  0.5051E-01
    -18.811  0.0000E+00  0.0000E+00  0.5051E-01  0.5051E-01
    -18.657  0.0000E+00  0.0000E+00  0.5051E-01  0.5051E-01
    -18.503  0.0000E+00  0.0000E+00  0.5051E-01  0.5051E-01
    -18.349  0.0000E+00  0.0000E+00  0.5051E-01  0.5051E-01
    -18.195  0.0000E+00  0.0000E+00  0.5051E-01  0.5051E-01
    -18.041  0.0000E+00  0.0000E+00  0.5051E-01  0.5051E-01
    -17.887  0.0000E+00  0.0000E+00  0.5051E-01  0.5051E-01
    -17.733  0.0000E+00  0.0000E+00  0.5051E-01  0.5051E-01
    -17.579  0.0000E+00  0.0000E+00  0.5051E-01  0.5051E-01
    -17.425  0.0000E+00  0.0000E+00  0.5051E-01  0.5051E-01
    -17.271  0.0000E+00  0.0000E+00  0.5051E-01  0.5051E-01
    -17.116  0.0000E+00  0.0000E+00  0.5051E-01  0.5051E-01
    -16.962  0.0000E+00  0.0000E+00  0.5051E-01  0.5051E-01
    -16.808  0.0000E+00  0.0000E+00  0.5051E-01  0.5051E-01
    -16.654  0.0000E+00  0.0000E+00  0.5051E-01  0.5051E-01
    -16.500  0.0000E+00  0.0000E+00  0.5051E-01  0.5051E-01
    -16.346  0.0000E+00  0.0000E+00  0.5051E-01  0.5051E-01
    -16.192  0.0000E+00  0.0000E+00  0.5051E-01  0.5051E-01
    -16.038  0.0000E+00  0.0000E+00  0.5051E-01  0.5051E-01
    -15.884  0.0000E+00  0.0000E+00  0.5051E-01  0.5051E-01
    -15.730  0.0000E+00  0.0000E+00  0.5051E-01  0.5051E-01
    -15.576  0.0000E+00  0.0000E+00  0.5051E-01  0.5051E-01
    -15.422  0.7777E-01  0.6177E-01  0.6093E-01  0.6073E-01
    -15.268  0.1229E+00  0.4914E-01  0.7925E-01  0.7868E-01
    -15.114  0.6284E-01  0.6199E-01  0.8903E-01  0.8876E-01
    -14.960  0.1904E-01  0.1888E-01  0.1070E+00  0.1069E+00
    -14.806  0.0000E+00  0.0000E+00  0.1111E+00  0.1111E+00
    -14.652  0.0000E+00  0.0000E+00  0.1111E+00  0.1111E+00
    -14.498  0.0000E+00  0.0000E+00  0.1111E+00  0.1111E+00
    -14.344  0.0000E+00  0.0000E+00  0.1111E+00  0.1111E+00
    -14.190  0.0000E+00  0.0000E+00  0.1111E+00  0.1111E+00
    -14.036  0.0000E+00  0.0000E+00  0.1111E+00  0.1111E+00
    -13.882  0.0000E+00  0.0000E+00  0.1111E+00  0.1111E+00
    -13.728  0.0000E+00  0.0000E+00  0.1111E+00  0.1111E+00
    -13.574  0.0000E+00  0.0000E+00  0.1111E+00  0.1111E+00
    -13.419  0.0000E+00  0.0000E+00  0.1111E+00  0.1111E+00
    -13.265  0.0000E+00  0.0000E+00  0.1111E+00  0.1111E+00
    -13.111  0.0000E+00  0.0000E+00  0.1111E+00  0.1111E+00
    -12.957  0.0000E+00  0.0000E+00  0.1111E+00  0.1111E+00
    -12.803  0.0000E+00  0.0000E+00  0.1111E+00  0.1111E+00
    -12.649  0.0000E+00  0.0000E+00  0.1111E+00  0.1111E+00
    -12.495  0.0000E+00  0.0000E+00  0.1111E+00  0.1111E+00
    -12.341  0.0000E+00  0.0000E+00  0.1111E+00  0.1111E+00
    -12.187  0.0000E+00  0.0000E+00  0.1111E+00  0.1111E+00
    -12.033  0.0000E+00  0.0000E+00  0.1111E+00  0.1111E+00
    -11.879  0.0000E+00  0.0000E+00  0.1111E+00  0.1111E+00
    -11.725  0.0000E+00  0.0000E+00  0.1111E+00  0.1111E+00
    -11.571  0.0000E+00  0.0000E+00  0.1111E+00  0.1111E+00
    -11.417  0.0000E+00  0.0000E+00  0.1111E+00  0.1111E+00
    -11.263  0.0000E+00  0.0000E+00  0.1111E+00  0.1111E+00
    -11.109  0.0000E+00  0.0000E+00  0.1111E+00  0.1111E+00
    -10.955  0.0000E+00  0.0000E+00  0.1111E+00  0.1111E+00
    -10.801  0.0000E+00  0.0000E+00  0.1111E+00  0.1111E+00
    -10.647  0.0000E+00  0.0000E+00  0.1111E+00  0.1111E+00
    -10.493  0.0000E+00  0.0000E+00  0.1111E+00  0.1111E+00
    -10.339  0.0000E+00  0.0000E+00  0.1111E+00  0.1111E+00
    -10.185  0.0000E+00  0.0000E+00  0.1111E+00  0.1111E+00
    -10.031  0.0000E+00  0.0000E+00  0.1111E+00  0.1111E+00
     -9.877  0.0000E+00  0.0000E+00  0.1111E+00  0.1111E+00
     -9.723  0.0000E+00  0.0000E+00  0.1111E+00  0.1111E+00
     -9.568  0.0000E+00  0.0000E+00  0.1111E+00  0.1111E+00
     -9.414  0.0000E+00  0.0000E+00  0.1111E+00  0.1111E+00
     -9.260  0.0000E+00  0.0000E+00  0.1111E+00  0.1111E+00
     -9.106  0.0000E+00  0.0000E+00  0.1111E+00  0.1111E+00
     -8.952  0.0000E+00  0.0000E+00  0.1111E+00  0.1111E+00
     -8.798  0.0000E+00  0.0000E+00  0.1111E+00  0.1111E+00
     -8.644  0.0000E+00  0.0000E+00  0.1111E+00  0.1111E+00
     -8.490  0.0000E+00  0.0000E+00  0.1111E+00  0.1111E+00
     -8.336  0.0000E+00  0.0000E+00  0.1111E+00  0.1111E+00
     -8.182  0.0000E+00  0.0000E+00  0.1111E+00  0.1111E+00
     -8.028  0.0000E+00  0.0000E+00  0.1111E+00  0.1111E+00
     -7.874  0.0000E+00  0.0000E+00  0.1111E+00  0.1111E+00
     -7.720  0.0000E+00  0.0000E+00  0.1111E+00  0.1111E+00
     -7.566  0.0000E+00  0.0000E+00  0.1111E+00  0.1111E+00
     -7.412  0.0000E+00  0.0000E+00  0.1111E+00  0.1111E+00
     -7.258  0.0000E+00  0.0000E+00  0.1111E+00  0.1111E+00
     -7.104  0.9476E-02  0.9528E-02  0.1116E+00  0.1116E+00
     -6.950  0.2123E-01  0.2131E-01  0.1139E+00  0.1139E+00
     -6.796  0.2216E-01  0.2217E-01  0.1177E+00  0.1177E+00
     -6.642  0.0000E+00  0.0000E+00  0.1212E+00  0.1212E+00
     -6.488  0.0000E+00  0.0000E+00  0.1212E+00  0.1212E+00
     -6.334  0.0000E+00  0.0000E+00  0.1212E+00  0.1212E+00
     -6.180  0.0000E+00  0.0000E+00  0.1212E+00  0.1212E+00
     -6.026  0.0000E+00  0.0000E+00  0.1212E+00  0.1212E+00
     -5.871  0.0000E+00  0.0000E+00  0.1212E+00  0.1212E+00
     -5.717  0.0000E+00  0.0000E+00  0.1212E+00  0.1212E+00
     -5.563  0.0000E+00  0.0000E+00  0.1212E+00  0.1212E+00
     -5.409  0.0000E+00  0.0000E+00  0.1212E+00  0.1212E+00
     -5.255  0.0000E+00  0.0000E+00  0.1212E+00  0.1212E+00
     -5.101  0.0000E+00  0.0000E+00  0.1212E+00  0.1212E+00
     -4.947  0.0000E+00  0.0000E+00  0.1212E+00  0.1212E+00
     -4.793  0.0000E+00  0.0000E+00  0.1212E+00  0.1212E+00
     -4.639  0.3192E-02  0.2972E-02  0.1218E+00  0.1217E+00
     -4.485  0.4133E-02  0.3916E-02  0.1223E+00  0.1222E+00
     -4.331  0.5081E-02  0.4864E-02  0.1231E+00  0.1229E+00
     -4.177  0.5357E-02  0.5226E-02  0.1238E+00  0.1236E+00
     -4.023  0.6009E-02  0.5882E-02  0.1247E+00  0.1245E+00
     -3.869  0.6906E-02  0.6555E-02  0.1257E+00  0.1255E+00
     -3.715  0.7646E-02  0.7670E-02  0.1271E+00  0.1269E+00
     -3.561  0.7601E-02  0.8010E-02  0.1287E+00  0.1284E+00
     -3.407  0.7695E-02  0.7792E-02  0.1298E+00  0.1296E+00
     -3.253  0.0000E+00  0.1202E-01  0.1313E+00  0.1312E+00
     -3.099  0.0000E+00  0.0000E+00  0.1313E+00  0.1313E+00
     -2.945  0.0000E+00  0.0000E+00  0.1313E+00  0.1313E+00
     -2.791  0.0000E+00  0.0000E+00  0.1313E+00  0.1313E+00
     -2.637  0.5042E-02  0.4613E-02  0.1318E+00  0.1317E+00
     -2.483  0.2689E-01  0.1311E-01  0.1333E+00  0.1326E+00
     -2.329  0.1755E-01  0.1764E-01  0.1366E+00  0.1362E+00
     -2.174  0.2653E-01  0.2377E-01  0.1397E+00  0.1391E+00
     -2.020  0.2550E-01  0.2499E-01  0.1438E+00  0.1432E+00
     -1.866  0.4316E-01  0.3968E-01  0.1479E+00  0.1471E+00
     -1.712  0.3507E-01  0.3342E-01  0.1532E+00  0.1525E+00
     -1.558  0.2824E-01  0.2850E-01  0.1582E+00  0.1575E+00
     -1.404  0.5134E-01  0.1247E-01  0.1614E+00  0.1608E+00
     -1.250  0.0000E+00  0.0000E+00  0.1616E+00  0.1616E+00
     -1.096  0.1050E-01  0.9317E-02  0.1625E+00  0.1623E+00
     -0.942  0.1468E-01  0.1530E-01  0.1651E+00  0.1648E+00
     -0.788  0.1170E-01  0.1216E-01  0.1671E+00  0.1668E+00
     -0.634  0.3749E-01  0.3647E-01  0.1718E+00  0.1712E+00
     -0.480  0.2068E-01  0.3577E-01  0.1772E+00  0.1767E+00
     -0.326  0.9127E-02  0.9879E-02  0.1799E+00  0.1795E+00
     -0.172  0.5759E-02  0.6042E-02  0.1809E+00  0.1807E+00
     -0.018  0.0000E+00  0.4025E-02  0.1818E+00  0.1814E+00
      0.136  0.0000E+00  0.0000E+00  0.1818E+00  0.1818E+00
      0.290  0.0000E+00  0.0000E+00  0.1818E+00  0.1818E+00
      0.444  0.0000E+00  0.0000E+00  0.1818E+00  0.1818E+00
      0.598  0.0000E+00  0.0000E+00  0.1818E+00  0.1818E+00
      0.752  0.0000E+00  0.0000E+00  0.1818E+00  0.1818E+00
      0.906  0.0000E+00  0.0000E+00  0.1818E+00  0.1818E+00
      1.060  0.0000E+00  0.0000E+00  0.1818E+00  0.1818E+00
      1.214  0.2943E-02  0.0000E+00  0.1822E+00  0.1818E+00
      1.368  0.3872E-02  0.5584E-02  0.1827E+00  0.1820E+00
      1.523  0.5838E-02  0.3591E-02  0.1843E+00  0.1826E+00
      1.677  0.5890E-02  0.1403E-01  0.1852E+00  0.1840E+00
      1.831  0.5895E-02  0.5657E-02  0.1861E+00  0.1850E+00
      1.985  0.1924E-01  0.5709E-02  0.1876E+00  0.1859E+00
      2.139  0.1473E-01  0.1557E-01  0.1907E+00  0.1868E+00
      2.293  0.1125E-01  0.1642E-01  0.1930E+00  0.1897E+00
      2.447  0.1076E-01  0.1167E-01  0.1947E+00  0.1918E+00
      2.601  0.1252E-01  0.1053E-01  0.1966E+00  0.1938E+00
      2.755  0.1242E-01  0.1009E-01  0.1987E+00  0.1953E+00
      2.909  0.4085E-02  0.1129E-01  0.2007E+00  0.1973E+00
      3.063  0.3327E-02  0.2729E-01  0.2012E+00  0.1997E+00
      3.217  0.2569E-02  0.3720E-02  0.2017E+00  0.2008E+00
      3.371  0.7369E-02  0.8581E-02  0.2028E+00  0.2015E+00
      3.525  0.2826E-01  0.3185E-01  0.2050E+00  0.2032E+00
      3.679  0.9755E-02  0.1497E-01  0.2075E+00  0.2067E+00
      3.833  0.1118E-01  0.8847E-02  0.2089E+00  0.2083E+00
      3.987  0.1742E-01  0.2551E-01  0.2117E+00  0.2107E+00
      4.141  0.2041E-01  0.2149E-01  0.2147E+00  0.2138E+00
      4.295  0.3306E-01  0.3577E-01  0.2184E+00  0.2176E+00
      4.449  0.1980E-01  0.2875E-01  0.2229E+00  0.2219E+00
      4.603  0.2768E-01  0.2402E-01  0.2264E+00  0.2246E+00
      4.757  0.2521E-01  0.2436E-01  0.2297E+00  0.2287E+00
      4.911  0.2536E-01  0.1719E-01  0.2327E+00  0.2319E+00
      5.065  0.2860E-01  0.2860E-01  0.2375E+00  0.2359E+00
      5.219  0.3462E-01  0.3399E-01  0.2423E+00  0.2409E+00
      5.374  0.3270E-01  0.3082E-01  0.2467E+00  0.2456E+00
      5.528  0.1743E-01  0.2498E-01  0.2514E+00  0.2509E+00
      5.682  0.2090E-01  0.1106E-01  0.2531E+00  0.2526E+00
      5.836  0.1559E-01  0.2077E-01  0.2568E+00  0.2562E+00
      5.990  0.1341E-01  0.1340E-01  0.2596E+00  0.2591E+00
      6.144  0.3559E-01  0.2649E-01  0.2624E+00  0.2614E+00
      6.298  0.1530E-01  0.1651E-01  0.2669E+00  0.2663E+00
      6.452  0.2772E-01  0.2013E-01  0.2696E+00  0.2687E+00
      6.606  0.2482E-01  0.2656E-01  0.2748E+00  0.2738E+00
      6.760  0.1503E-01  0.1616E-01  0.2778E+00  0.2770E+00
      6.914  0.1816E-01  0.1823E-01  0.2808E+00  0.2800E+00
      7.068  0.2789E-01  0.3178E-01  0.2845E+00  0.2835E+00
      7.222  0.1504E-01  0.1381E-01  0.2876E+00  0.2871E+00
      7.376  0.3928E-01  0.3855E-01  0.2916E+00  0.2902E+00
      7.530  0.2866E-01  0.3331E-01  0.2966E+00  0.2955E+00
      7.684  0.2788E-01  0.3437E-01  0.3015E+00  0.3004E+00
      7.838  0.3465E-01  0.3223E-01  0.3056E+00  0.3046E+00
      7.992  0.2987E-01  0.2603E-01  0.3105E+00  0.3097E+00
      8.146  0.2348E-01  0.1349E-01  0.3133E+00  0.3127E+00
      8.300  0.2265E-01  0.2673E-01  0.3180E+00  0.3175E+00
      8.454  0.2053E-01  0.1812E-01  0.3209E+00  0.3203E+00
      8.608  0.2790E-02  0.6820E-02  0.3232E+00  0.3231E+00
      8.762  0.0000E+00  0.0000E+00  0.3232E+00  0.3232E+00
      8.916  0.0000E+00  0.0000E+00  0.3232E+00  0.3232E+00
      9.071  0.0000E+00  0.0000E+00  0.3232E+00  0.3232E+00
      9.225  0.0000E+00  0.0000E+00  0.3232E+00  0.3232E+00
      9.379  0.0000E+00  0.0000E+00  0.3232E+00  0.3232E+00
      9.533  0.0000E+00  0.0000E+00  0.3232E+00  0.3232E+00
      9.687  0.0000E+00  0.0000E+00  0.3232E+00  0.3232E+00
      9.841  0.0000E+00  0.0000E+00  0.3232E+00  0.3232E+00
      9.995  0.0000E+00  0.0000E+00  0.3232E+00  0.3232E+00
     10.149  0.0000E+00  0.0000E+00  0.3232E+00  0.3232E+00
     10.303  0.0000E+00  0.0000E+00  0.3232E+00  0.3232E+00
     10.457  0.0000E+00  0.0000E+00  0.3232E+00  0.3232E+00
     10.611  0.0000E+00  0.0000E+00  0.3232E+00  0.3232E+00
     10.765  0.0000E+00  0.0000E+00  0.3232E+00  0.3232E+00
     10.76497079    -35.44738029  301      2.74860549      1.00000000
    -35.447  0.0000E+00  0.0000E+00  0.0000E+00  0.0000E+00  0.0000E+00  0.0000E+00  0.0000E+00  0.0000E+00  0.0000E+00  0.0000E+00  0.0000E+00  0.0000E+00  0.0000E+00  0.0000E+00  0.0000E+00  0.0000E+00  0.0000E+00  0.0000E+00
    -35.293  0.0000E+00  0.0000E+00  0.0000E+00  0.0000E+00  0.0000E+00  0.0000E+00  0.0000E+00  0.0000E+00  0.0000E+00  0.0000E+00  0.0000E+00  0.0000E+00  0.0000E+00  0.0000E+00  0.0000E+00  0.0000E+00  0.0000E+00  0.0000E+00
    -35.139  0.0000E+00  0.0000E+00  0.0000E+00  0.0000E+00  0.0000E+00  0.0000E+00  0.0000E+00  0.0000E+00  0.0000E+00  0.0000E+00  0.0000E+00  0.0000E+00  0.0000E+00  0.0000E+00  0.0000E+00  0.0000E+00  0.0000E+00  0.0000E+00
    -34.985  0.0000E+00  0.0000E+00  0.0000E+00  0.0000E+00  0.0000E+00  0.0000E+00  0.0000E+00  0.0000E+00  0.0000E+00  0.0000E+00  0.0000E+00  0.0000E+00  0.0000E+00  0.0000E+00  0.0000E+00  0.0000E+00  0.0000E+00  0.0000E+00
    -34.831  0.0000E+00  0.0000E+00  0.0000E+00  0.0000E+00  0.0000E+00  0.0000E+00  0.0000E+00  0.0000E+00  0.0000E+00  0.0000E+00  0.0000E+00  0.0000E+00  0.0000E+00  0.0000E+00  0.0000E+00  0.0000E+00  0.0000E+00  0.0000E+00
    -34.677  0.0000E+00  0.0000E+00  0.0000E+00  0.0000E+00  0.0000E+00  0.0000E+00  0.0000E+00  0.0000E+00  0.0000E+00  0.0000E+00  0.0000E+00  0.0000E+00  0.0000E+00  0.0000E+00  0.0000E+00  0.0000E+00  0.0000E+00  0.0000E+00
    -34.523  0.0000E+00  0.0000E+00  0.0000E+00  0.0000E+00  0.0000E+00  0.0000E+00  0.0000E+00  0.0000E+00  0.0000E+00  0.0000E+00  0.0000E+00  0.0000E+00  0.0000E+00  0.0000E+00  0.0000E+00  0.0000E+00  0.0000E+00  0.0000E+00
    -34.369  0.0000E+00  0.0000E+00  0.0000E+00  0.0000E+00  0.0000E+00  0.0000E+00  0.0000E+00  0.0000E+00  0.0000E+00  0.0000E+00  0.0000E+00  0.0000E+00  0.0000E+00  0.0000E+00  0.0000E+00  0.0000E+00  0.0000E+00  0.0000E+00
    -34.215  0.0000E+00  0.0000E+00  0.0000E+00  0.0000E+00  0.0000E+00  0.0000E+00  0.0000E+00  0.0000E+00  0.0000E+00  0.0000E+00  0.0000E+00  0.0000E+00  0.0000E+00  0.0000E+00  0.0000E+00  0.0000E+00  0.0000E+00  0.0000E+00
    -34.061  0.0000E+00  0.0000E+00  0.0000E+00  0.0000E+00  0.0000E+00  0.0000E+00  0.0000E+00  0.0000E+00  0.0000E+00  0.0000E+00  0.0000E+00  0.0000E+00  0.0000E+00  0.0000E+00  0.0000E+00  0.0000E+00  0.0000E+00  0.0000E+00
    -33.907  0.0000E+00  0.0000E+00  0.0000E+00  0.0000E+00  0.0000E+00  0.0000E+00  0.0000E+00  0.0000E+00  0.0000E+00  0.0000E+00  0.0000E+00  0.0000E+00  0.0000E+00  0.0000E+00  0.0000E+00  0.0000E+00  0.0000E+00  0.0000E+00
    -33.753  0.0000E+00  0.0000E+00  0.0000E+00  0.0000E+00  0.0000E+00  0.0000E+00  0.0000E+00  0.0000E+00  0.0000E+00  0.0000E+00  0.0000E+00  0.0000E+00  0.0000E+00  0.0000E+00  0.0000E+00  0.0000E+00  0.0000E+00  0.0000E+00
    -33.599  0.0000E+00  0.0000E+00  0.0000E+00  0.0000E+00  0.0000E+00  0.0000E+00  0.0000E+00  0.0000E+00  0.0000E+00  0.0000E+00  0.0000E+00  0.0000E+00  0.0000E+00  0.0000E+00  0.0000E+00  0.0000E+00  0.0000E+00  0.0000E+00
    -33.445  0.0000E+00  0.0000E+00  0.0000E+00  0.0000E+00  0.0000E+00  0.0000E+00  0.0000E+00  0.0000E+00  0.0000E+00  0.0000E+00  0.0000E+00  0.0000E+00  0.0000E+00  0.0000E+00  0.0000E+00  0.0000E+00  0.0000E+00  0.0000E+00
    -33.291  0.0000E+00  0.0000E+00  0.0000E+00  0.0000E+00  0.0000E+00  0.0000E+00  0.0000E+00  0.0000E+00  0.0000E+00  0.0000E+00  0.0000E+00  0.0000E+00  0.0000E+00  0.0000E+00  0.0000E+00  0.0000E+00  0.0000E+00  0.0000E+00
    -33.137  0.0000E+00  0.0000E+00  0.0000E+00  0.0000E+00  0.0000E+00  0.0000E+00  0.0000E+00  0.0000E+00  0.0000E+00  0.0000E+00  0.0000E+00  0.0000E+00  0.0000E+00  0.0000E+00  0.0000E+00  0.0000E+00  0.0000E+00  0.0000E+00
    -32.983  0.0000E+00  0.0000E+00  0.0000E+00  0.0000E+00  0.0000E+00  0.0000E+00  0.0000E+00  0.0000E+00  0.0000E+00  0.0000E+00  0.0000E+00  0.0000E+00  0.0000E+00  0.0000E+00  0.0000E+00  0.0000E+00  0.0000E+00  0.0000E+00
    -32.829  0.0000E+00  0.0000E+00  0.0000E+00  0.0000E+00  0.0000E+00  0.0000E+00  0.0000E+00  0.0000E+00  0.0000E+00  0.0000E+00  0.0000E+00  0.0000E+00  0.0000E+00  0.0000E+00  0.0000E+00  0.0000E+00  0.0000E+00  0.0000E+00
    -32.675  0.0000E+00  0.0000E+00  0.0000E+00  0.0000E+00  0.0000E+00  0.0000E+00  0.0000E+00  0.0000E+00  0.0000E+00  0.0000E+00  0.0000E+00  0.0000E+00  0.0000E+00  0.0000E+00  0.0000E+00  0.0000E+00  0.0000E+00  0.0000E+00
    -32.521  0.0000E+00  0.0000E+00  0.0000E+00  0.0000E+00  0.0000E+00  0.0000E+00  0.0000E+00  0.0000E+00  0.0000E+00  0.0000E+00  0.0000E+00  0.0000E+00  0.0000E+00  0.0000E+00  0.0000E+00  0.0000E+00  0.0000E+00  0.0000E+00
    -32.367  0.0000E+00  0.0000E+00  0.0000E+00  0.0000E+00  0.0000E+00  0.0000E+00  0.0000E+00  0.0000E+00  0.0000E+00  0.0000E+00  0.0000E+00  0.0000E+00  0.0000E+00  0.0000E+00  0.0000E+00  0.0000E+00  0.0000E+00  0.0000E+00
    -32.213  0.0000E+00  0.0000E+00  0.0000E+00  0.0000E+00  0.0000E+00  0.0000E+00  0.0000E+00  0.0000E+00  0.0000E+00  0.0000E+00  0.0000E+00  0.0000E+00  0.0000E+00  0.0000E+00  0.0000E+00  0.0000E+00  0.0000E+00  0.0000E+00
    -32.058  0.0000E+00  0.0000E+00  0.0000E+00  0.0000E+00  0.0000E+00  0.0000E+00  0.0000E+00  0.0000E+00  0.0000E+00  0.0000E+00  0.0000E+00  0.0000E+00  0.0000E+00  0.0000E+00  0.0000E+00  0.0000E+00  0.0000E+00  0.0000E+00
    -31.904  0.0000E+00  0.0000E+00  0.0000E+00  0.0000E+00  0.0000E+00  0.0000E+00  0.0000E+00  0.0000E+00  0.0000E+00  0.0000E+00  0.0000E+00  0.0000E+00  0.0000E+00  0.0000E+00  0.0000E+00  0.0000E+00  0.0000E+00  0.0000E+00
    -31.750  0.0000E+00  0.0000E+00  0.0000E+00  0.0000E+00  0.0000E+00  0.0000E+00  0.0000E+00  0.0000E+00  0.0000E+00  0.0000E+00  0.0000E+00  0.0000E+00  0.0000E+00  0.0000E+00  0.0000E+00  0.0000E+00  0.0000E+00  0.0000E+00
    -31.596  0.0000E+00  0.0000E+00  0.0000E+00  0.0000E+00  0.0000E+00  0.0000E+00  0.0000E+00  0.0000E+00  0.0000E+00  0.0000E+00  0.0000E+00  0.0000E+00  0.0000E+00  0.0000E+00  0.0000E+00  0.0000E+00  0.0000E+00  0.0000E+00
    -31.442  0.0000E+00  0.0000E+00  0.0000E+00  0.0000E+00  0.0000E+00  0.0000E+00  0.0000E+00  0.0000E+00  0.0000E+00  0.0000E+00  0.0000E+00  0.0000E+00  0.0000E+00  0.0000E+00  0.0000E+00  0.0000E+00  0.0000E+00  0.0000E+00
    -31.288  0.0000E+00  0.0000E+00  0.0000E+00  0.0000E+00  0.0000E+00  0.0000E+00  0.0000E+00  0.0000E+00  0.0000E+00  0.0000E+00  0.0000E+00  0.0000E+00  0.0000E+00  0.0000E+00  0.0000E+00  0.0000E+00  0.0000E+00  0.0000E+00
    -31.134  0.0000E+00  0.0000E+00  0.0000E+00  0.0000E+00  0.0000E+00  0.0000E+00  0.0000E+00  0.0000E+00  0.0000E+00  0.0000E+00  0.0000E+00  0.0000E+00  0.0000E+00  0.0000E+00  0.0000E+00  0.0000E+00  0.0000E+00  0.0000E+00
    -30.980  0.0000E+00  0.0000E+00  0.0000E+00  0.0000E+00  0.0000E+00  0.0000E+00  0.0000E+00  0.0000E+00  0.0000E+00  0.0000E+00  0.0000E+00  0.0000E+00  0.0000E+00  0.0000E+00  0.0000E+00  0.0000E+00  0.0000E+00  0.0000E+00
    -30.826  0.0000E+00  0.0000E+00  0.0000E+00  0.0000E+00  0.0000E+00  0.0000E+00  0.0000E+00  0.0000E+00  0.0000E+00  0.0000E+00  0.0000E+00  0.0000E+00  0.0000E+00  0.0000E+00  0.0000E+00  0.0000E+00  0.0000E+00  0.0000E+00
    -30.672  0.0000E+00  0.0000E+00  0.0000E+00  0.0000E+00  0.0000E+00  0.0000E+00  0.0000E+00  0.0000E+00  0.0000E+00  0.0000E+00  0.0000E+00  0.0000E+00  0.0000E+00  0.0000E+00  0.0000E+00  0.0000E+00  0.0000E+00  0.0000E+00
    -30.518  0.0000E+00  0.0000E+00  0.0000E+00  0.0000E+00  0.0000E+00  0.0000E+00  0.0000E+00  0.0000E+00  0.0000E+00  0.0000E+00  0.0000E+00  0.0000E+00  0.0000E+00  0.0000E+00  0.0000E+00  0.0000E+00  0.0000E+00  0.0000E+00
    -30.364  0.0000E+00  0.0000E+00  0.0000E+00  0.0000E+00  0.0000E+00  0.0000E+00  0.0000E+00  0.0000E+00  0.0000E+00  0.0000E+00  0.0000E+00  0.0000E+00  0.0000E+00  0.0000E+00  0.0000E+00  0.0000E+00  0.0000E+00  0.0000E+00
    -30.210  0.0000E+00  0.0000E+00  0.0000E+00  0.0000E+00  0.0000E+00  0.0000E+00  0.0000E+00  0.0000E+00  0.0000E+00  0.0000E+00  0.0000E+00  0.0000E+00  0.0000E+00  0.0000E+00  0.0000E+00  0.0000E+00  0.0000E+00  0.0000E+00
    -30.056  0.0000E+00  0.0000E+00  0.0000E+00  0.0000E+00  0.0000E+00  0.0000E+00  0.0000E+00  0.0000E+00  0.0000E+00  0.0000E+00  0.0000E+00  0.0000E+00  0.0000E+00  0.0000E+00  0.0000E+00  0.0000E+00  0.0000E+00  0.0000E+00
    -29.902  0.0000E+00  0.0000E+00  0.0000E+00  0.0000E+00  0.0000E+00  0.0000E+00  0.0000E+00  0.0000E+00  0.0000E+00  0.0000E+00  0.0000E+00  0.0000E+00  0.0000E+00  0.0000E+00  0.0000E+00  0.0000E+00  0.0000E+00  0.0000E+00
    -29.748  0.0000E+00  0.0000E+00  0.0000E+00  0.0000E+00  0.0000E+00  0.0000E+00  0.0000E+00  0.0000E+00  0.0000E+00  0.0000E+00  0.0000E+00  0.0000E+00  0.0000E+00  0.0000E+00  0.0000E+00  0.0000E+00  0.0000E+00  0.0000E+00
    -29.594  0.0000E+00  0.0000E+00  0.0000E+00  0.0000E+00  0.0000E+00  0.0000E+00  0.0000E+00  0.0000E+00  0.0000E+00  0.0000E+00  0.0000E+00  0.0000E+00  0.0000E+00  0.0000E+00  0.0000E+00  0.0000E+00  0.0000E+00  0.0000E+00
    -29.440  0.0000E+00  0.0000E+00  0.0000E+00  0.0000E+00  0.0000E+00  0.0000E+00  0.0000E+00  0.0000E+00  0.0000E+00  0.0000E+00  0.0000E+00  0.0000E+00  0.0000E+00  0.0000E+00  0.0000E+00  0.0000E+00  0.0000E+00  0.0000E+00
    -29.286  0.0000E+00  0.0000E+00  0.0000E+00  0.0000E+00  0.0000E+00  0.0000E+00  0.0000E+00  0.0000E+00  0.0000E+00  0.0000E+00  0.0000E+00  0.0000E+00  0.0000E+00  0.0000E+00  0.0000E+00  0.0000E+00  0.0000E+00  0.0000E+00
    -29.132  0.0000E+00  0.0000E+00  0.0000E+00  0.0000E+00  0.0000E+00  0.0000E+00  0.0000E+00  0.0000E+00  0.0000E+00  0.0000E+00  0.0000E+00  0.0000E+00  0.0000E+00  0.0000E+00  0.0000E+00  0.0000E+00  0.0000E+00  0.0000E+00
    -28.978  0.0000E+00  0.0000E+00  0.0000E+00  0.0000E+00  0.0000E+00  0.0000E+00  0.0000E+00  0.0000E+00  0.0000E+00  0.0000E+00  0.0000E+00  0.0000E+00  0.0000E+00  0.0000E+00  0.0000E+00  0.0000E+00  0.0000E+00  0.0000E+00
    -28.824  0.0000E+00  0.0000E+00  0.0000E+00  0.0000E+00  0.0000E+00  0.0000E+00  0.0000E+00  0.0000E+00  0.0000E+00  0.0000E+00  0.0000E+00  0.0000E+00  0.0000E+00  0.0000E+00  0.0000E+00  0.0000E+00  0.0000E+00  0.0000E+00
    -28.670  0.0000E+00  0.0000E+00  0.0000E+00  0.0000E+00  0.0000E+00  0.0000E+00  0.0000E+00  0.0000E+00  0.0000E+00  0.0000E+00  0.0000E+00  0.0000E+00  0.0000E+00  0.0000E+00  0.0000E+00  0.0000E+00  0.0000E+00  0.0000E+00
    -28.516  0.0000E+00  0.0000E+00  0.0000E+00  0.0000E+00  0.0000E+00  0.0000E+00  0.0000E+00  0.0000E+00  0.0000E+00  0.0000E+00  0.0000E+00  0.0000E+00  0.0000E+00  0.0000E+00  0.0000E+00  0.0000E+00  0.0000E+00  0.0000E+00
    -28.361  0.0000E+00  0.0000E+00  0.0000E+00  0.0000E+00  0.0000E+00  0.0000E+00  0.0000E+00  0.0000E+00  0.0000E+00  0.0000E+00  0.0000E+00  0.0000E+00  0.0000E+00  0.0000E+00  0.0000E+00  0.0000E+00  0.0000E+00  0.0000E+00
    -28.207  0.0000E+00  0.0000E+00  0.0000E+00  0.0000E+00  0.0000E+00  0.0000E+00  0.0000E+00  0.0000E+00  0.0000E+00  0.0000E+00  0.0000E+00  0.0000E+00  0.0000E+00  0.0000E+00  0.0000E+00  0.0000E+00  0.0000E+00  0.0000E+00
    -28.053  0.0000E+00  0.1157E-03  0.0000E+00  0.3194E-04  0.0000E+00  0.3465E-04  0.0000E+00  0.2934E-04  0.0000E+00  0.9858E-05  0.0000E+00  0.9111E-05  0.0000E+00  0.1858E-05  0.0000E+00  0.1010E-04  0.0000E+00  0.1502E-05
    -27.899  0.0000E+00  0.0000E+00  0.0000E+00  0.0000E+00  0.0000E+00  0.0000E+00  0.0000E+00  0.0000E+00  0.0000E+00  0.0000E+00  0.0000E+00  0.0000E+00  0.0000E+00  0.0000E+00  0.0000E+00  0.0000E+00  0.0000E+00  0.0000E+00
    -27.745  0.0000E+00  0.0000E+00  0.0000E+00  0.0000E+00  0.0000E+00  0.0000E+00  0.0000E+00  0.0000E+00  0.0000E+00  0.0000E+00  0.0000E+00  0.0000E+00  0.0000E+00  0.0000E+00  0.0000E+00  0.0000E+00  0.0000E+00  0.0000E+00