Automatically generated mesh
      36
Reciprocal lattice
    0.08333333333333    0.08333333333333    0.25000000000000             2
    0.25000000000000    0.08333333333333    0.25000000000000             2
    0.41666666666667    0.08333333333333    0.25000000000000             2
   -0.41666666666667    0.08333333333333    0.25000000000000             2
   -0.25000000000000    0.08333333333333    0.25000000000000             2
   -0.08333333333333    0.08333333333333    0.25000000000000             2
    0.08333333333333    0.25000000000000    0.25000000000000             2
    0.25000000000000    0.25000000000000    0.25000000000000             2
    0.41666666666667    0.25000000000000    0.25000000000000             2
   -0.41666666666667    0.25000000000000    0.25000000000000             2
   -0.25000000000000    0.25000000000000    0.25000000000000             2
   -0.08333333333333    0.25000000000000    0.25000000000000             2
    0.08333333333333    0.41666666666667    0.25000000000000             2
    0.25000000000000    0.41666666666667    0.25000000000000             2
    0.41666666666667    0.41666666666667    0.25000000000000             2
   -0.41666666666667    0.41666666666667    0.25000000000000             2
   -0.25000000000000    0.41666666666667    0.25000000000000             2
   -0.08333333333333    0.41666666666667    0.25000000000000             2
    0.08333333333333   -0.41666666666667    0.25000000000000             2
    0.25000000000000   -0.41666666666667    0.25000000000000             2
    0.41666666666667   -0.41666666666667    0.25000000000000             2
   -0.41666666666667   -0.41666666666667    0.25000000000000             2
   -0.25000000000000   -0.41666666666667    0.25000000000000             2
   -0.08333333333333   -0.41666666666667    0.25000000000000             2
    0.08333333333333   -0.25000000000000    0.25000000000000             2
    0.25000000000000   -0.25000000000000    0.25000000000000             2
    0.41666666666667   -0.25000000000000    0.25000000000000             2
   -0.41666666666667   -0.25000000000000    0.25000000000000             2
   -0.25000000000000   -0.25000000000000    0.25000000000000             2
   -0.08333333333333   -0.25000000000000    0.25000000000000             2
    0.08333333333333   -0.08333333333333    0.25000000000000             2
    0.25000000000000   -0.08333333333333    0.25000000000000             2
    0.41666666666667   -0.08333333333333    0.25000000000000             2
   -0.41666666666667   -0.08333333333333    0.25000000000000             2
   -0.25000000000000   -0.08333333333333    0.25000000000000             2
   -0.08333333333333   -0.08333333333333    0.25000000000000             2
Tetrahedra
       216    0.00231481481481
         2         1         2         8        36
         2         1         7         8        36
         2         7         8        30        36
         2         2         8        35        36
         2         8        29        35        36
         2         8        29        30        36
         2         2         3         9        35
         2         2         8         9        35
         2         8         9        29        35
         2         3         9        34        35
         2         9        28        34        35
         2         9        28        29        35
         2         3         4        10        34
         2         3         9        10        34
         2         9        10        28        34
         2         4        10        33        34
         2        10        27        33        34
         2        10        27        28        34
         2         4         5        11        33
         2         4        10        11        33
         2        10        11        27        33
         2         5        11        32        33
         2        11        26        32        33
         2        11        26        27        33
         2         5         6        12        32
         2         5        11        12        32
         2        11        12        26        32
         2         6        12        31        32
         2        12        25        31        32
         2        12        25        26        32
         2         1         6         7        31
         2         6         7        12        31
         2         7        12        25        31
         2         1         7        31        36
         2         7        30        31        36
         2         7        25        30        31
         2         7         8        14        30
         2         7        13        14        30
         2        13        14        24        30
         2         8        14        29        30
         2        14        23        29        30
         2        14        23        24        30
         2         8         9        15        29
         2         8        14        15        29
         2        14        15        23        29
         2         9        15        28        29
         2        15        22        28        29
         2        15        22        23        29
         2         9        10        16        28
         2         9        15        16        28
         2        15        16        22        28
         2        10        16        27        28
         2        16        21        27        28
         2        16        21        22        28
         2        10        11        17        27
         2        10        16        17        27
         2        16        17        21        27
         2        11        17        26        27
         2        17        20        26        27
         2        17        20        21        27
         2        11        12        18        26
         2        11        17        18        26
         2        17        18        20        26
         2        12        18        25        26
         2        18        19        25        26
         2        18        19        20        26
         2         7        12        13        25
         2        12        13        18        25
         2        13        18        19        25
         2         7        13        25        30
         2        13        24        25        30
         2        13        19        24        25
         2        13        14        20        24
         2        13        19        20        24
         2        18        19        20        24
         2        14        20        23        24
         2        17        20        23        24
         2        17        18        20        24
         2        14        15        21        23
         2        14        20        21        23
         2        17        20        21        23
         2        15        21        22        23
         2        16        21        22        23
         2        16        17        21        23
         2        15        16        22        22
         2        15        21        22        22
         2        16        21        22        22
         2        13        18        19        19
         2        18        19        19        24
         2        13        19        19        24
         2         2         6        31        32
         2         1         2         6        31
         2         1         2         6        36
         2         2         5         6        32
         2         2         5         6        35
         2         2         6        35        36
         2         3         5        32        33
         2         2         3         5        32
         2         2         3         5        35
         2         3         4         5        33
         2         3         4         5        34
         2         3         5        34        35
         2         4         4        33        34
         2         3         4         4        33
         2         3         4         4        34
         2         1         1        31        36
         2         1         1         6        36
         2         1         1         6        31
         2         1        29        35        36
         2         1        29        30        36
         2         1         7        29        30
         2         1         2        29        35
         2         1         2         8        29
         2         1         7         8        29
         2         2        28        34        35
         2         2        28        29        35
         2         2         8        28        29
         2         2         3        28        34
         2         2         3         9        28
         2         2         8         9        28
         2         3        27        33        34
         2         3        27        28        34
         2         3         9        27        28
         2         3         4        27        33
         2         3         4        10        27
         2         3         9        10        27
         2         4        26        32        33
         2         4        26        27        33
         2         4        10        26        27
         2         4         5        26        32
         2         4         5        11        26
         2         4        10        11        26
         2         5        25        31        32
         2         5        25        26        32
         2         5        11        25        26
         2         5         6        25        31
         2         5         6        12        25
         2         5        11        12        25
         2         6        30        31        36
         2         6        25        30        31
         2         6        12        25        30
         2         1         6        30        36
         2         1         6         7        30
         2         6         7        12        30
         2         7        23        29        30
         2         7        23        24        30
         2         7        13        23        24
         2         7         8        23        29
         2         7         8        14        23
         2         7        13        14        23
         2         8        22        28        29
         2         8        22        23        29
         2         8        14        22        23
         2         8         9        22        28
         2         8         9        15        22
         2         8        14        15        22
         2         9        21        27        28
         2         9        21        22        28
         2         9        15        21        22
         2         9        10        21        27
         2         9        10        16        21
         2         9        15        16        21
         2        10        20        26        27
         2        10        20        21        27
         2        10        16        20        21
         2        10        11        20        26
         2        10        11        17        20
         2        10        16        17        20
         2        11        19        25        26
         2        11        19        20        26
         2        11        17        19        20
         2        11        12        19        25
         2        11        12        18        19
         2        11        17        18        19
         2        12        24        25        30
         2        12        19        24        25
         2        12        18        19        24
         2         7        12        24        30
         2         7        12        13        24
         2        12        13        18        24
         2        13        17        23        24
         2        13        17        18        24
         2        13        17        18        19
         2        13        14        17        23
         2        13        14        17        20
         2        13        17        19        20
         2        14        16        22        23
         2        14        16        17        23
         2        14        16        17        20
         2        14        15        16        22
         2        14        15        16        21
         2        14        16        20        21
         2        15        15        21        22
         2        15        15        16        22
         2        15        15        16        21
         2        18        18        19        24
         2        13        18        18        19
         2        13        18        18        24
         2         5         6        31        35
         2         6        31        35        36
         2         1        31        35        36
         2         5        31        32        35
         2         2        31        32        35
         2         1         2        31        35
         2         4         5        32        34
         2         5        32        34        35
         2         2        32        34        35
         2         4        32        33        34
         2         3        32        33        34
         2         2         3        32        34
         2         3         4        33        33
         2         4        33        33        34
         2         3        33        33        34
         2         1         6        36        36
         2         1        31        36        36
         2         6        31        36        36
