  16  16   0   0
  0.5758741E+01  0.4124520E-09  0.5078925E-09  0.5078925E-09  0.5000000E-15
  1.000000000000000E-004
  CAR 
 unknown system                          
     15.79973629    -13.08546439  301     -5.68144310      1.00000000
    -13.085  0.0000E+00  0.0000E+00
    -12.989  0.0000E+00  0.0000E+00
    -12.893  0.0000E+00  0.0000E+00
    -12.797  0.0000E+00  0.0000E+00
    -12.700  0.0000E+00  0.0000E+00
    -12.604  0.3072E-31  0.2957E-32
    -12.508  0.7452E-25  0.7175E-26
    -12.411  0.2668E-19  0.2568E-20
    -12.315  0.1381E-14  0.1330E-15
    -12.219  0.9936E-11  0.9569E-12
    -12.123  0.9315E-08  0.8978E-09
    -12.026  0.1006E-05  0.9778E-07
    -11.930  0.8532E-05  0.9192E-06
    -11.834 -0.5249E-04 -0.4135E-05
    -11.737  0.5955E-03  0.5320E-04
    -11.641  0.4749E-02  0.5104E-03
    -11.545  0.4633E-02  0.9565E-03
    -11.449  0.8942E-02  0.1818E-02
    -11.352  0.1073E-01  0.2851E-02
    -11.256  0.4421E-02  0.3277E-02
    -11.160  0.1640E-01  0.4856E-02
    -11.064  0.1150E-01  0.5963E-02
    -10.967  0.1185E-01  0.7104E-02
    -10.871  0.1291E-01  0.8347E-02
    -10.775  0.1728E-01  0.1001E-01
    -10.678  0.1365E-01  0.1132E-01
    -10.582  0.1728E-01  0.1299E-01
    -10.486  0.2233E-01  0.1514E-01
    -10.390  0.1324E-01  0.1641E-01
    -10.293  0.1540E-01  0.1790E-01
    -10.197  0.2326E-01  0.2014E-01
    -10.101  0.2588E-01  0.2263E-01
    -10.004  0.2087E-01  0.2464E-01
     -9.908  0.1500E-01  0.2608E-01
     -9.812  0.2003E-01  0.2801E-01
     -9.716  0.2986E-01  0.3088E-01
     -9.619  0.2866E-01  0.3364E-01
     -9.523  0.2420E-01  0.3597E-01
     -9.427  0.2644E-01  0.3852E-01
     -9.330  0.1913E-01  0.4036E-01
     -9.234  0.2830E-01  0.4309E-01
     -9.138  0.3960E-01  0.4690E-01
     -9.042  0.2276E-01  0.4909E-01
     -8.945  0.3391E-01  0.5236E-01
     -8.849  0.3053E-01  0.5530E-01
     -8.753  0.3328E-01  0.5850E-01
     -8.656  0.3522E-01  0.6189E-01
     -8.560  0.4023E-01  0.6576E-01
     -8.464  0.3086E-01  0.6874E-01
     -8.368  0.2883E-01  0.7151E-01
     -8.271  0.4034E-01  0.7540E-01
     -8.175  0.6367E-01  0.8153E-01
     -8.079  0.3975E-01  0.8535E-01
     -7.982  0.3581E-01  0.8880E-01
     -7.886  0.4856E-01  0.9348E-01
     -7.790  0.3841E-01  0.9718E-01
     -7.694  0.5325E-01  0.1023E+00
     -7.597  0.6845E-01  0.1089E+00
     -7.501  0.7250E-01  0.1159E+00
     -7.405  0.5635E-01  0.1213E+00
     -7.308  0.5905E-01  0.1270E+00
     -7.212  0.7026E-01  0.1337E+00
     -7.116  0.8549E-01  0.1420E+00
     -7.020  0.9431E-01  0.1511E+00
     -6.923  0.7237E-01  0.1580E+00
     -6.827  0.5979E-01  0.1638E+00
     -6.731  0.8665E-01  0.1721E+00
     -6.634  0.7628E-01  0.1795E+00
     -6.538  0.8795E-01  0.1879E+00
     -6.442  0.5814E-01  0.1935E+00
     -6.346  0.1045E+00  0.2036E+00
     -6.249  0.8380E-01  0.2117E+00
     -6.153  0.9026E-01  0.2204E+00
     -6.057  0.1232E+00  0.2322E+00
     -5.960  0.1442E+00  0.2461E+00
     -5.864  0.1221E+00  0.2579E+00
     -5.768  0.6950E-01  0.2646E+00
     -5.672  0.2246E-01  0.2667E+00
     -5.575 -0.5418E-03  0.2667E+00
     -5.479  0.1699E-04  0.2667E+00
     -5.383  0.4226E-04  0.2667E+00
     -5.286  0.7011E-06  0.2667E+00
     -5.190  0.1331E-08  0.2667E+00
     -5.094  0.3353E-12  0.2667E+00
     -4.998  0.1167E-16  0.2667E+00
     -4.901  0.0000E+00  0.2667E+00
     -4.805  0.0000E+00  0.2667E+00
     -4.709  0.0000E+00  0.2667E+00
     -4.612  0.0000E+00  0.2667E+00
     -4.516  0.0000E+00  0.2667E+00
     -4.420  0.0000E+00  0.2667E+00
     -4.324  0.0000E+00  0.2667E+00
     -4.227  0.0000E+00  0.2667E+00
     -4.131  0.0000E+00  0.2667E+00
     -4.035  0.0000E+00  0.2667E+00
     -3.938  0.0000E+00  0.2667E+00
     -3.842  0.0000E+00  0.2667E+00
     -3.746  0.0000E+00  0.2667E+00
     -3.650  0.0000E+00  0.2667E+00
     -3.553  0.0000E+00  0.2667E+00
     -3.457  0.0000E+00  0.2667E+00
     -3.361  0.0000E+00  0.2667E+00
     -3.264  0.0000E+00  0.2667E+00
     -3.168  0.0000E+00  0.2667E+00
     -3.072  0.0000E+00  0.2667E+00
     -2.976  0.0000E+00  0.2667E+00
     -2.879  0.0000E+00  0.2667E+00
     -2.783  0.0000E+00  0.2667E+00
     -2.687  0.0000E+00  0.2667E+00
     -2.591  0.0000E+00  0.2667E+00
     -2.494  0.0000E+00  0.2667E+00
     -2.398  0.0000E+00  0.2667E+00
     -2.302  0.0000E+00  0.2667E+00
     -2.205  0.0000E+00  0.2667E+00
     -2.109  0.0000E+00  0.2667E+00
     -2.013  0.0000E+00  0.2667E+00
     -1.917  0.0000E+00  0.2667E+00
     -1.820  0.0000E+00  0.2667E+00
     -1.724  0.0000E+00  0.2667E+00
     -1.628  0.0000E+00  0.2667E+00
     -1.531  0.0000E+00  0.2667E+00
     -1.435  0.0000E+00  0.2667E+00
     -1.339  0.0000E+00  0.2667E+00
     -1.243  0.0000E+00  0.2667E+00
     -1.146  0.0000E+00  0.2667E+00
     -1.050  0.0000E+00  0.2667E+00
     -0.954  0.0000E+00  0.2667E+00
     -0.857  0.0000E+00  0.2667E+00
     -0.761  0.0000E+00  0.2667E+00
     -0.665  0.0000E+00  0.2667E+00
     -0.569  0.0000E+00  0.2667E+00
     -0.472  0.0000E+00  0.2667E+00
     -0.376  0.0000E+00  0.2667E+00
     -0.280  0.0000E+00  0.2667E+00
     -0.183  0.0000E+00  0.2667E+00
     -0.087  0.0000E+00  0.2667E+00
      0.009  0.0000E+00  0.2667E+00
      0.105  0.0000E+00  0.2667E+00
      0.202  0.0000E+00  0.2667E+00
      0.298  0.0000E+00  0.2667E+00
      0.394  0.0000E+00  0.2667E+00
      0.491  0.0000E+00  0.2667E+00
      0.587  0.0000E+00  0.2667E+00
      0.683  0.0000E+00  0.2667E+00
      0.779  0.0000E+00  0.2667E+00
      0.876  0.0000E+00  0.2667E+00
      0.972  0.0000E+00  0.2667E+00
      1.068  0.0000E+00  0.2667E+00
      1.165  0.0000E+00  0.2667E+00
      1.261  0.0000E+00  0.2667E+00
      1.357  0.0000E+00  0.2667E+00
      1.453  0.5274E-35  0.2667E+00
      1.550  0.3549E-28  0.2667E+00
      1.646  0.3553E-22  0.2667E+00
      1.742  0.5200E-17  0.2667E+00
      1.839  0.1083E-12  0.2667E+00
      1.935  0.3032E-09  0.2667E+00
      2.031  0.1017E-06  0.2667E+00
      2.127  0.2876E-05  0.2667E+00
      2.224 -0.9067E-05  0.2667E+00
      2.320  0.2496E-04  0.2667E+00
      2.416  0.1548E-02  0.2668E+00
      2.513  0.1401E-02  0.2670E+00
      2.609  0.3520E-02  0.2673E+00
      2.705  0.1732E-01  0.2690E+00
      2.801  0.2597E-01  0.2715E+00
      2.898  0.3527E-01  0.2749E+00
      2.994  0.3334E-01  0.2781E+00
      3.090  0.2791E-01  0.2808E+00
      3.187  0.5116E-01  0.2857E+00
      3.283  0.5762E-01  0.2912E+00
      3.379  0.4299E-01  0.2954E+00
      3.475  0.4217E-01  0.2994E+00
      3.572  0.5543E-01  0.3048E+00
      3.668  0.6981E-01  0.3115E+00
      3.764  0.1036E+00  0.3215E+00
      3.861  0.5603E-01  0.3269E+00
      3.957  0.6645E-01  0.3333E+00
      4.053  0.8376E-01  0.3413E+00
      4.149  0.7759E-01  0.3488E+00
      4.246  0.6756E-01  0.3553E+00
      4.342  0.7390E-01  0.3624E+00
      4.438  0.7891E-01  0.3700E+00
      4.535  0.6991E-01  0.3767E+00
      4.631  0.6554E-01  0.3831E+00
      4.727  0.6598E-01  0.3894E+00
      4.823  0.5605E-01  0.3948E+00
      4.920  0.5028E-01  0.3996E+00
      5.016  0.3933E-01  0.4034E+00
      5.112  0.2714E-01  0.4060E+00
      5.208  0.3824E-01  0.4097E+00
      5.305  0.3019E-01  0.4126E+00
      5.401  0.2973E-01  0.4155E+00
      5.497  0.5572E-01  0.4209E+00
      5.594  0.4652E-01  0.4253E+00
      5.690  0.3079E-01  0.4283E+00
      5.786  0.5982E-01  0.4341E+00
      5.882  0.6467E-01  0.4403E+00
      5.979  0.6645E-01  0.4467E+00
      6.075  0.6859E-01  0.4533E+00
      6.171  0.5467E-01  0.4586E+00
      6.268  0.6428E-01  0.4647E+00
      6.364  0.5613E-01  0.4701E+00
      6.460  0.6271E-01  0.4762E+00
      6.556  0.4473E-01  0.4805E+00
      6.653  0.4856E-01  0.4852E+00
      6.749  0.3749E-01  0.4888E+00
      6.845  0.2753E-01  0.4914E+00
      6.942  0.6483E-01  0.4977E+00
      7.038  0.6471E-01  0.5039E+00
      7.134  0.2303E-01  0.5061E+00
      7.230  0.3575E-01  0.5096E+00
      7.327  0.4138E-01  0.5135E+00
      7.423  0.3358E-01  0.5168E+00
      7.519  0.2143E-01  0.5188E+00
      7.616  0.5517E-01  0.5242E+00
      7.712  0.4389E-01  0.5284E+00
      7.808  0.2306E-01  0.5306E+00
      7.904  0.1668E-01  0.5322E+00
      8.001  0.7840E-02  0.5330E+00
      8.097  0.3671E-01  0.5365E+00
      8.193  0.3056E-01  0.5394E+00
      8.290  0.3808E-01  0.5431E+00
      8.386  0.2160E-01  0.5452E+00
      8.482  0.1874E-01  0.5470E+00
      8.578  0.1007E-01  0.5480E+00
      8.675  0.2076E-01  0.5500E+00
      8.771  0.3055E-01  0.5529E+00
      8.867  0.2697E-01  0.5555E+00
      8.964  0.1652E-01  0.5571E+00
      9.060  0.2125E-01  0.5591E+00
      9.156  0.1164E-01  0.5603E+00
      9.252  0.1272E-01  0.5615E+00
      9.349  0.3410E-01  0.5648E+00
      9.445  0.2779E-01  0.5674E+00
      9.541  0.5080E-01  0.5723E+00
      9.638  0.4275E-01  0.5764E+00
      9.734  0.4720E-01  0.5810E+00
      9.830  0.4394E-01  0.5852E+00
      9.926  0.2637E-01  0.5878E+00
     10.023  0.3629E-01  0.5913E+00
     10.119  0.3282E-01  0.5944E+00
     10.215  0.4143E-01  0.5984E+00
     10.312  0.3613E-01  0.6019E+00
     10.408  0.5274E-01  0.6070E+00
     10.504  0.5539E-01  0.6123E+00
     10.600  0.5239E-01  0.6173E+00
     10.697  0.3784E-01  0.6210E+00
     10.793  0.2932E-01  0.6238E+00
     10.889  0.1210E-01  0.6250E+00
     10.986  0.3220E-01  0.6281E+00
     11.082  0.2766E-01  0.6307E+00
     11.178  0.3041E-01  0.6337E+00
     11.274  0.3001E-01  0.6365E+00
     11.371  0.3672E-01  0.6401E+00
     11.467  0.1625E-01  0.6416E+00
     11.563  0.3194E-01  0.6447E+00
     11.660  0.3043E-01  0.6477E+00
     11.756  0.1417E-01  0.6490E+00
     11.852  0.3373E-01  0.6523E+00
     11.948  0.3674E-01  0.6558E+00
     12.045  0.1351E-01  0.6571E+00
     12.141  0.1254E-01  0.6583E+00
     12.237  0.9218E-02  0.6592E+00
     12.334  0.1224E-01  0.6604E+00
     12.430  0.2198E-02  0.6606E+00
     12.526  0.9085E-02  0.6615E+00
     12.622  0.1227E-01  0.6626E+00
     12.719  0.4423E-02  0.6631E+00
     12.815  0.6816E-02  0.6637E+00
     12.911  0.3195E-02  0.6640E+00
     13.008  0.1134E-01  0.6651E+00
     13.104  0.2473E-02  0.6654E+00
     13.200  0.3552E-02  0.6657E+00
     13.296  0.2526E-02  0.6659E+00
     13.393 -0.7482E-04  0.6659E+00
     13.489  0.1202E-02  0.6661E+00
     13.585  0.3204E-02  0.6664E+00
     13.681  0.2527E-02  0.6666E+00
     13.778 -0.2808E-03  0.6666E+00
     13.874  0.2302E-04  0.6666E+00
     13.970  0.2013E-05  0.6666E+00
     14.067  0.8340E-08  0.6666E+00
     14.163  0.7845E-07  0.6666E+00
     14.259  0.3077E-05  0.6666E+00
     14.355 -0.2636E-04  0.6666E+00
     14.452  0.1633E-03  0.6666E+00
     14.548  0.7087E-03  0.6667E+00
     14.644  0.1101E-04  0.6667E+00
     14.741 -0.6585E-05  0.6667E+00
     14.837  0.1549E-05  0.6667E+00
     14.933  0.1768E-07  0.6667E+00
     15.029  0.1946E-10  0.6667E+00
     15.126  0.2715E-14  0.6667E+00
     15.222  0.9490E-19  0.6667E+00
     15.318  0.0000E+00  0.6667E+00
     15.415  0.0000E+00  0.6667E+00
     15.511  0.0000E+00  0.6667E+00
     15.607  0.0000E+00  0.6667E+00
     15.703  0.0000E+00  0.6667E+00
     15.800  0.0000E+00  0.6667E+00
