Automatically generated mesh
      90
Reciprocal lattice
    0.00000000000000    0.00000000000000    0.00000000000000             1
    0.10000000000000    0.00000000000000    0.00000000000000             2
    0.20000000000000    0.00000000000000    0.00000000000000             2
    0.30000000000000    0.00000000000000    0.00000000000000             2
    0.40000000000000    0.00000000000000    0.00000000000000             2
    0.50000000000000    0.00000000000000    0.00000000000000             1
    0.00000000000000    0.11111111111111    0.00000000000000             6
    0.10000000000000    0.11111111111111    0.00000000000000            12
    0.20000000000000    0.11111111111111    0.00000000000000            12
    0.30000000000000    0.11111111111111    0.00000000000000            12
    0.40000000000000    0.11111111111111    0.00000000000000            12
    0.50000000000000    0.11111111111111    0.00000000000000             6
    0.00000000000000    0.22222222222222    0.00000000000000             6
    0.10000000000000    0.22222222222222    0.00000000000000            12
    0.20000000000000    0.22222222222222    0.00000000000000            12
    0.30000000000000    0.22222222222222    0.00000000000000            12
    0.40000000000000    0.22222222222222    0.00000000000000            12
    0.50000000000000    0.22222222222222    0.00000000000000             6
    0.00000000000000    0.33333333333333    0.00000000000000             6
    0.10000000000000    0.33333333333333    0.00000000000000            12
    0.20000000000000    0.33333333333333    0.00000000000000            12
    0.30000000000000    0.33333333333333    0.00000000000000            12
    0.40000000000000    0.33333333333333    0.00000000000000            12
    0.50000000000000    0.33333333333333    0.00000000000000             6
    0.00000000000000    0.44444444444445    0.00000000000000             6
    0.10000000000000    0.44444444444445    0.00000000000000            12
    0.20000000000000    0.44444444444445    0.00000000000000            12
    0.30000000000000    0.44444444444445    0.00000000000000            12
    0.40000000000000    0.44444444444445    0.00000000000000            12
    0.50000000000000    0.44444444444445    0.00000000000000             6
    0.00000000000000    0.11111111111111    0.11111111111111             6
    0.10000000000000    0.11111111111111    0.11111111111111            12
    0.20000000000000    0.11111111111111    0.11111111111111            12
    0.30000000000000    0.11111111111111    0.11111111111111            12
    0.40000000000000    0.11111111111111    0.11111111111111            12
    0.50000000000000    0.11111111111111    0.11111111111111             6
    0.00000000000000    0.22222222222222    0.11111111111111             6
    0.10000000000000    0.22222222222222    0.11111111111111            12
    0.20000000000000    0.22222222222222    0.11111111111111            12
    0.30000000000000    0.22222222222222    0.11111111111111            12
    0.40000000000000    0.22222222222222    0.11111111111111            12
    0.50000000000000    0.22222222222222    0.11111111111111             6
    0.00000000000000    0.33333333333333    0.11111111111111             6
    0.10000000000000    0.33333333333333    0.11111111111111            12
    0.20000000000000    0.33333333333333    0.11111111111111            12
    0.30000000000000    0.33333333333333    0.11111111111111            12
    0.40000000000000    0.33333333333333    0.11111111111111            12
    0.50000000000000    0.33333333333333    0.11111111111111             6
    0.00000000000000    0.44444444444445    0.11111111111111             6
    0.10000000000000    0.44444444444445    0.11111111111111            12
    0.20000000000000    0.44444444444445    0.11111111111111            12
    0.30000000000000    0.44444444444445    0.11111111111111            12
    0.40000000000000    0.44444444444445    0.11111111111111            12
    0.50000000000000    0.44444444444445    0.11111111111111             6
    0.00000000000000   -0.44444444444444    0.11111111111111             6
    0.10000000000000   -0.44444444444444    0.11111111111111            12
    0.20000000000000   -0.44444444444444    0.11111111111111            12
    0.30000000000000   -0.44444444444444    0.11111111111111            12
    0.40000000000000   -0.44444444444444    0.11111111111111            12
    0.50000000000000   -0.44444444444444    0.11111111111111             6
    0.00000000000000   -0.33333333333333    0.11111111111111             6
    0.10000000000000   -0.33333333333333    0.11111111111111            12
    0.20000000000000   -0.33333333333333    0.11111111111111            12
    0.30000000000000   -0.33333333333333    0.11111111111111            12
    0.40000000000000   -0.33333333333333    0.11111111111111            12
    0.50000000000000   -0.33333333333333    0.11111111111111             6
    0.00000000000000    0.22222222222222    0.22222222222222             6
    0.10000000000000    0.22222222222222    0.22222222222222            12
    0.20000000000000    0.22222222222222    0.22222222222222            12
    0.30000000000000    0.22222222222222    0.22222222222222            12
    0.40000000000000    0.22222222222222    0.22222222222222            12
    0.50000000000000    0.22222222222222    0.22222222222222             6
    0.00000000000000    0.33333333333333    0.22222222222222             6
    0.10000000000000    0.33333333333333    0.22222222222222            12
    0.20000000000000    0.33333333333333    0.22222222222222            12
    0.30000000000000    0.33333333333333    0.22222222222222            12
    0.40000000000000    0.33333333333333    0.22222222222222            12
    0.50000000000000    0.33333333333333    0.22222222222222             6
    0.00000000000000    0.44444444444445    0.22222222222222             6
    0.10000000000000    0.44444444444445    0.22222222222222            12
    0.20000000000000    0.44444444444445    0.22222222222222            12
    0.30000000000000    0.44444444444445    0.22222222222222            12
    0.40000000000000    0.44444444444445    0.22222222222222            12
    0.50000000000000    0.44444444444445    0.22222222222222             6
    0.00000000000000    0.33333333333333    0.33333333333333             2
    0.10000000000000    0.33333333333333    0.33333333333333             4
    0.20000000000000    0.33333333333333    0.33333333333333             4
    0.30000000000000    0.33333333333333    0.33333333333333             4
    0.40000000000000    0.33333333333333    0.33333333333333             4
    0.50000000000000    0.33333333333333    0.33333333333333             2
