       N       E                     dE             d eps       ncg     rms          rms(c)
DAV:   1     0.112248133975E+03    0.11225E+03   -0.12050E+04 15216   0.615E+02
DAV:   2    -0.617330828415E+02   -0.17398E+03   -0.16848E+03 17896   0.233E+02
DAV:   3    -0.721432216323E+02   -0.10410E+02   -0.10345E+02 22536   0.466E+01
DAV:   4    -0.725589802553E+02   -0.41576E+00   -0.41427E+00 22824   0.799E+00
DAV:   5    -0.725666217349E+02   -0.76415E-02   -0.76409E-02 20528   0.875E-01    0.393E+01
DAV:   6    -0.699622419043E+02    0.26044E+01   -0.33722E+00 21784   0.114E+01    0.179E+01
DAV:   7    -0.690145335421E+02    0.94771E+00   -0.15415E+00 21600   0.535E+00    0.643E+00
DAV:   8    -0.689864375663E+02    0.28096E-01   -0.32732E-01 21736   0.306E+00    0.197E+00
DAV:   9    -0.689896276474E+02   -0.31901E-02   -0.16604E-02 17808   0.652E-01    0.129E+00
DAV:  10    -0.689939824575E+02   -0.43548E-02   -0.92877E-03 19376   0.569E-01    0.106E-01
DAV:  11    -0.689944778421E+02   -0.49538E-03   -0.16102E-03 19704   0.197E-01    0.121E-01
DAV:  12    -0.689946324139E+02   -0.15457E-03   -0.14659E-04 14320   0.715E-02    0.499E-02
DAV:  13    -0.689946593228E+02   -0.26909E-04   -0.52446E-05 11456   0.434E-02
   1 F= -.68994659E+02 E0= -.68994850E+02  d E =-.689947E+02
       N       E                     dE             d eps       ncg     rms          rms(c)
DAV:   1    -0.689957209331E+02   -0.10885E-02   -0.34385E-02 16184   0.120E+00    0.117E-01
DAV:   2    -0.689957382496E+02   -0.17316E-04   -0.27926E-03 18184   0.267E-01    0.656E-02
DAV:   3    -0.689956553549E+02    0.82895E-04   -0.12393E-04 14760   0.674E-02
   2 F= -.68995655E+02 E0= -.68995857E+02  d E =-.996032E-03
       N       E                     dE             d eps       ncg     rms          rms(c)
DAV:   1    -0.689957748141E+02   -0.36565E-04   -0.21449E-02 15768   0.951E-01    0.917E-02
DAV:   2    -0.689957846458E+02   -0.98317E-05   -0.17492E-03 18264   0.208E-01    0.536E-02
DAV:   3    -0.689957334757E+02    0.51170E-04   -0.78694E-05 13168   0.538E-02
   3 F= -.68995733E+02 E0= -.68995943E+02  d E =-.107415E-02
       N       E                     dE             d eps       ncg     rms          rms(c)
DAV:   1    -0.689960666933E+02   -0.28205E-03   -0.25930E-03 14792   0.281E-01    0.350E-02
DAV:   2    -0.689960519682E+02    0.14725E-04   -0.78354E-05 12712   0.538E-02
   4 F= -.68996052E+02 E0= -.68996263E+02  d E =-.318493E-03
       N       E                     dE             d eps       ncg     rms          rms(c)
DAV:   1    -0.689970791333E+02   -0.10124E-02   -0.24491E-02 14520   0.852E-01    0.121E-01
DAV:   2    -0.689968966446E+02    0.18249E-03   -0.79964E-04 20080   0.162E-01    0.593E-02
DAV:   3    -0.689968055035E+02    0.91141E-04   -0.14130E-04 11824   0.651E-02
   5 F= -.68996806E+02 E0= -.68997022E+02  d E =-.107203E-02
       N       E                     dE             d eps       ncg     rms          rms(c)
DAV:   1    -0.689971855712E+02   -0.28893E-03   -0.28576E-03 16520   0.372E-01    0.267E-02
DAV:   2    -0.689972082095E+02   -0.22638E-04   -0.27879E-04 14600   0.837E-02
   6 F= -.68997208E+02 E0= -.68997422E+02  d E =-.402706E-03
       N       E                     dE             d eps       ncg     rms          rms(c)
DAV:   1    -0.689974566012E+02   -0.27103E-03   -0.13859E-02 16368   0.814E-01    0.559E-02
DAV:   2    -0.689975616910E+02   -0.10509E-03   -0.13396E-03 18080   0.184E-01    0.366E-02
DAV:   3    -0.689975518148E+02    0.98762E-05   -0.18739E-05  9776   0.301E-02
   7 F= -.68997552E+02 E0= -.68997761E+02  d E =-.746311E-03
