       N       E                     dE             d eps       ncg     rms          rms(c)
DAV:   1     0.119069136557E+03    0.11907E+03   -0.11662E+04 15440   0.679E+02
DAV:   2    -0.547017630062E+02   -0.17377E+03   -0.16835E+03 18736   0.259E+02
DAV:   3    -0.652164793614E+02   -0.10515E+02   -0.10458E+02 24352   0.522E+01
DAV:   4    -0.656605030352E+02   -0.44402E+00   -0.44284E+00 23928   0.875E+00
DAV:   5    -0.656675408911E+02   -0.70379E-02   -0.70371E-02 22596   0.910E-01    0.379E+01
DAV:   6    -0.625182435548E+02    0.31493E+01   -0.69485E+00 22432   0.169E+01    0.154E+01
DAV:   7    -0.617520205693E+02    0.76622E+00   -0.17582E+00 21664   0.670E+00    0.830E+00
DAV:   8    -0.616876247318E+02    0.64396E-01   -0.52942E-01 21408   0.396E+00    0.212E+00
DAV:   9    -0.616864432227E+02    0.11815E-02   -0.33448E-02 18828   0.124E+00    0.661E-01
DAV:  10    -0.616874961104E+02   -0.10529E-02   -0.10560E-02 22776   0.522E-01    0.192E-01
DAV:  11    -0.616879743822E+02   -0.47827E-03   -0.99995E-04 17520   0.227E-01    0.614E-02
DAV:  12    -0.616881629739E+02   -0.18859E-03   -0.29512E-04 18820   0.101E-01    0.365E-02
DAV:  13    -0.616881750372E+02   -0.12063E-04   -0.29531E-05 10668   0.344E-02
   1 F= -.61688175E+02 E0= -.61688185E+02  d E =-.616882E+02
       N       E                     dE             d eps       ncg     rms          rms(c)
DAV:   1    -0.617188873526E+02   -0.30724E-01   -0.11183E+00 14912   0.685E+00    0.573E-01
DAV:   2    -0.617218583171E+02   -0.29710E-02   -0.66146E-02 20336   0.168E+00    0.320E-01
DAV:   3    -0.617211435441E+02    0.71477E-03   -0.20418E-03 22016   0.268E-01    0.155E-01
DAV:   4    -0.617209787481E+02    0.16480E-03   -0.64081E-04 19768   0.161E-01    0.677E-02
DAV:   5    -0.617209911506E+02   -0.12403E-04   -0.13320E-04 13456   0.643E-02
   2 F= -.61720991E+02 E0= -.61720991E+02  d E =-.328161E-01
       N       E                     dE             d eps       ncg     rms          rms(c)
DAV:   1    -0.617262882864E+02   -0.53095E-02   -0.48586E-01 14896   0.452E+00    0.378E-01
DAV:   2    -0.617275932805E+02   -0.13050E-02   -0.28702E-02 20344   0.111E+00    0.214E-01
DAV:   3    -0.617272954199E+02    0.29786E-03   -0.88318E-04 21724   0.175E-01    0.105E-01
DAV:   4    -0.617272256994E+02    0.69721E-04   -0.26937E-04 17624   0.106E-01
   3 F= -.61727226E+02 E0= -.61727235E+02  d E =-.390507E-01
       N       E                     dE             d eps       ncg     rms          rms(c)
DAV:   1    -0.617440308516E+02   -0.16735E-01   -0.32569E-01 14904   0.354E+00    0.271E-01
DAV:   2    -0.617446758003E+02   -0.64495E-03   -0.17036E-02 19632   0.829E-01    0.180E-01
DAV:   3    -0.617444770895E+02    0.19871E-03   -0.60052E-04 21708   0.137E-01    0.952E-02
DAV:   4    -0.617444225961E+02    0.54493E-04   -0.21095E-04 15404   0.901E-02
   4 F= -.61744423E+02 E0= -.61744432E+02  d E =-.171969E-01
       N       E                     dE             d eps       ncg     rms          rms(c)
DAV:   1    -0.617585800391E+02   -0.14103E-01   -0.20656E+00 14896   0.892E+00    0.692E-01
DAV:   2    -0.617628236411E+02   -0.42436E-02   -0.10847E-01 19616   0.209E+00    0.446E-01
DAV:   3    -0.617615488583E+02    0.12748E-02   -0.37494E-03 22012   0.346E-01    0.232E-01
DAV:   4    -0.617612104770E+02    0.33838E-03   -0.13577E-03 19768   0.224E-01    0.585E-02
DAV:   5    -0.617612353000E+02   -0.24823E-04   -0.20671E-04 14592   0.813E-02
   5 F= -.61761235E+02 E0= -.61761244E+02  d E =-.340096E-01
       N       E                     dE             d eps       ncg     rms          rms(c)
DAV:   1    -0.617775879405E+02   -0.16377E-01   -0.59958E-01 14896   0.502E+00    0.341E-01
DAV:   2    -0.617793847510E+02   -0.17968E-02   -0.36870E-02 19480   0.124E+00    0.261E-01
DAV:   3    -0.617792069543E+02    0.17780E-03   -0.11112E-03 21944   0.190E-01    0.155E-01
DAV:   4    -0.617791002320E+02    0.10672E-03   -0.33648E-04 18728   0.122E-01    0.403E-02
DAV:   5    -0.617791071591E+02   -0.69271E-05   -0.62413E-05 10040   0.490E-02
   6 F= -.61779107E+02 E0= -.61779116E+02  d E =-.178719E-01
       N       E                     dE             d eps       ncg     rms          rms(c)
DAV:   1    -0.617974961941E+02   -0.18396E-01   -0.53713E+00 14896   0.150E+01    0.102E+00
DAV:   2    -0.618135232423E+02   -0.16027E-01   -0.33108E-01 19464   0.373E+00    0.788E-01
DAV:   3    -0.618118655043E+02    0.16577E-02   -0.98648E-03 22036   0.570E-01    0.465E-01
DAV:   4    -0.618108779999E+02    0.98750E-03   -0.29620E-03 19936   0.361E-01    0.123E-01
DAV:   5    -0.618109440309E+02   -0.66031E-04   -0.61827E-04 17780   0.143E-01
   7 F= -.61810944E+02 E0= -.61810951E+02  d E =-.497087E-01
       N       E                     dE             d eps       ncg     rms          rms(c)
DAV:   1    -0.618113809395E+02   -0.50294E-03   -0.97260E-01 14896   0.641E+00    0.443E-01
DAV:   2    -0.618143896853E+02   -0.30087E-02   -0.60513E-02 19568   0.159E+00    0.344E-01
DAV:   3    -0.618140884342E+02    0.30125E-03   -0.17840E-03 21764   0.240E-01    0.206E-01
DAV:   4    -0.618139125591E+02    0.17588E-03   -0.56840E-04 19808   0.160E-01    0.534E-02
DAV:   5    -0.618139248197E+02   -0.12261E-04   -0.10803E-04 11560   0.631E-02
   8 F= -.61813925E+02 E0= -.61813931E+02  d E =-.526895E-01
       N       E                     dE             d eps       ncg     rms          rms(c)
DAV:   1    -0.618321792155E+02   -0.18267E-01   -0.12118E+00 14896   0.790E+00    0.524E-01
DAV:   2    -0.618373375198E+02   -0.51583E-02   -0.91531E-02 18840   0.193E+00    0.347E-01
DAV:   3    -0.618370759829E+02    0.26154E-03   -0.22244E-03 21848   0.278E-01    0.207E-01
DAV:   4    -0.618369163869E+02    0.15960E-03   -0.70630E-04 19356   0.170E-01    0.580E-02
DAV:   5    -0.618369280903E+02   -0.11703E-04   -0.95339E-05 10460   0.645E-02
   9 F= -.61836928E+02 E0= -.61836936E+02  d E =-.230033E-01
       N       E                     dE             d eps       ncg     rms          rms(c)
DAV:   1    -0.618394977430E+02   -0.25814E-02   -0.15177E+00 14912   0.884E+00    0.585E-01
DAV:   2    -0.618460227742E+02   -0.65250E-02   -0.11500E-01 18760   0.216E+00    0.385E-01
DAV:   3    -0.618456914273E+02    0.33135E-03   -0.27514E-03 21796   0.310E-01    0.231E-01
DAV:   4    -0.618454922031E+02    0.19922E-03   -0.89322E-04 20372   0.192E-01    0.644E-02
DAV:   5    -0.618455073704E+02   -0.15167E-04   -0.12483E-04 12132   0.704E-02
  10 F= -.61845507E+02 E0= -.61845519E+02  d E =-.315826E-01
       N       E                     dE             d eps       ncg     rms          rms(c)
DAV:   1    -0.618638905984E+02   -0.18398E-01   -0.73641E-01 14928   0.626E+00    0.671E-01
DAV:   2    -0.618647029540E+02   -0.81236E-03   -0.66930E-02 19944   0.170E+00    0.303E-01
DAV:   3    -0.618643310472E+02    0.37191E-03   -0.23542E-03 19668   0.295E-01    0.157E-01
DAV:   4    -0.618641685070E+02    0.16254E-03   -0.67791E-04 23928   0.145E-01    0.120E-01
DAV:   5    -0.618641828518E+02   -0.14345E-04   -0.76403E-05 10972   0.465E-02
  11 F= -.61864183E+02 E0= -.61864200E+02  d E =-.186755E-01
       N       E                     dE             d eps       ncg     rms          rms(c)
DAV:   1    -0.618789712624E+02   -0.14803E-01   -0.33769E+00 14896   0.134E+01    0.142E+00
DAV:   2    -0.618823171881E+02   -0.33459E-02   -0.30584E-01 19932   0.365E+00    0.652E-01
DAV:   3    -0.618805618810E+02    0.17553E-02   -0.10798E-02 19612   0.629E-01    0.332E-01
DAV:   4    -0.618798128593E+02    0.74902E-03   -0.31181E-03 25216   0.300E-01    0.253E-01
DAV:   5    -0.618798883121E+02   -0.75453E-04   -0.36484E-04 20096   0.929E-02
  12 F= -.61879888E+02 E0= -.61879923E+02  d E =-.343809E-01
       N       E                     dE             d eps       ncg     rms          rms(c)
DAV:   1    -0.618948573875E+02   -0.15045E-01   -0.76478E-01 15308   0.627E+00    0.636E-01
DAV:   2    -0.618961751864E+02   -0.13178E-02   -0.67618E-02 19384   0.166E+00    0.327E-01
DAV:   3    -0.618957313212E+02    0.44387E-03   -0.21755E-03 20396   0.280E-01    0.172E-01
DAV:   4    -0.618955638809E+02    0.16744E-03   -0.77019E-04 23752   0.155E-01    0.110E-01
DAV:   5    -0.618955805086E+02   -0.16628E-04   -0.99117E-05 11680   0.548E-02
  13 F= -.61895581E+02 E0= -.61895617E+02  d E =-.156922E-01
       N       E                     dE             d eps       ncg     rms          rms(c)
DAV:   1    -0.619004134255E+02   -0.48495E-02   -0.94224E-01 15072   0.695E+00    0.706E-01
DAV:   2    -0.619021437862E+02   -0.17304E-02   -0.84002E-02 19280   0.185E+00    0.351E-01
DAV:   3    -0.619017173858E+02    0.42640E-03   -0.26380E-03 19988   0.311E-01    0.185E-01
DAV:   4    -0.619014461210E+02    0.27126E-03   -0.94778E-04 23548   0.172E-01    0.120E-01
DAV:   5    -0.619014671956E+02   -0.21075E-04   -0.13066E-04 13984   0.606E-02
  14 F= -.61901467E+02 E0= -.61901504E+02  d E =-.215789E-01
       N       E                     dE             d eps       ncg     rms          rms(c)
DAV:   1    -0.619125550813E+02   -0.11109E-01   -0.26382E-01 14928   0.293E+00    0.302E-01
DAV:   2    -0.619124218058E+02    0.13328E-03   -0.86472E-03 20008   0.703E-01    0.169E-01
DAV:   3    -0.619124045505E+02    0.17255E-04   -0.41047E-04 18368   0.118E-01
  15 F= -.61912405E+02 E0= -.61912405E+02  d E =-.109374E-01
       N       E                     dE             d eps       ncg     rms          rms(c)
DAV:   1    -0.619350613148E+02   -0.22640E-01   -0.23693E+00 14896   0.876E+00    0.853E-01
DAV:   2    -0.619346201240E+02    0.44119E-03   -0.77525E-02 20016   0.211E+00    0.520E-01
DAV:   3    -0.619340481134E+02    0.57201E-03   -0.37559E-03 20256   0.352E-01    0.291E-01
DAV:   4    -0.619338143362E+02    0.23378E-03   -0.14685E-03 23772   0.205E-01    0.134E-01
DAV:   5    -0.619338526556E+02   -0.38319E-04   -0.20425E-04 18144   0.756E-02
  16 F= -.61933853E+02 E0= -.61933853E+02  d E =-.323855E-01
       N       E                     dE             d eps       ncg     rms          rms(c)
DAV:   1    -0.619233816783E+02    0.10433E-01   -0.95446E+00 14896   0.175E+01    0.169E+00
DAV:   2    -0.619231023402E+02    0.27934E-03   -0.32281E-01 20184   0.425E+00    0.105E+00
DAV:   3    -0.619204273170E+02    0.26750E-02   -0.15267E-02 19856   0.711E-01    0.589E-01
DAV:   4    -0.619193137916E+02    0.11135E-02   -0.59860E-03 23784   0.424E-01    0.257E-01
DAV:   5    -0.619194771276E+02   -0.16334E-03   -0.97304E-04 20264   0.161E-01    0.189E-01
DAV:   6    -0.619195237434E+02   -0.46616E-04   -0.17025E-04 13488   0.762E-02
  17 F= -.61919524E+02 E0= -.61919577E+02  d E =-.180565E-01
       N       E                     dE             d eps       ncg     rms          rms(c)
DAV:   1    -0.619396311028E+02   -0.20154E-01   -0.46268E+00 14896   0.122E+01    0.123E+00
DAV:   2    -0.619398882635E+02   -0.25716E-03   -0.15975E-01 20064   0.295E+00    0.715E-01
DAV:   3    -0.619385937048E+02    0.12946E-02   -0.69083E-03 19960   0.482E-01    0.400E-01
DAV:   4    -0.619380687240E+02    0.52498E-03   -0.27447E-03 23652   0.293E-01    0.187E-01
DAV:   5    -0.619381620094E+02   -0.93285E-04   -0.47668E-04 20132   0.109E-01
  18 F= -.61938162E+02 E0= -.61938206E+02  d E =-.366948E-01
       N       E                     dE             d eps       ncg     rms          rms(c)
DAV:   1    -0.619467029191E+02   -0.86342E-02   -0.51315E-01 16840   0.538E+00    0.264E-01
DAV:   2    -0.619498556863E+02   -0.31528E-02   -0.40098E-02 16940   0.111E+00    0.132E-01
DAV:   3    -0.619498778181E+02   -0.22132E-04   -0.55024E-04 21176   0.141E-01
  19 F= -.61949878E+02 E0= -.61949878E+02  d E =-.117158E-01
       N       E                     dE             d eps       ncg     rms          rms(c)
DAV:   1    -0.619353842823E+02    0.14471E-01   -0.45641E+00 15528   0.161E+01    0.832E-01
DAV:   2    -0.619652028909E+02   -0.29819E-01   -0.38254E-01 16976   0.341E+00    0.416E-01
DAV:   3    -0.619649129300E+02    0.28996E-03   -0.55773E-03 22296   0.441E-01    0.259E-01
DAV:   4    -0.619647695942E+02    0.14334E-03   -0.15776E-03 19888   0.259E-01    0.395E-02
DAV:   5    -0.619647851404E+02   -0.15546E-04   -0.20219E-04 13984   0.921E-02
  20 F= -.61964785E+02 E0= -.61964838E+02  d E =-.266231E-01
       N       E                     dE             d eps       ncg     rms          rms(c)
DAV:   1    -0.619716581973E+02   -0.68886E-02   -0.27584E-01 14944   0.328E+00    0.313E-01
DAV:   2    -0.619720409464E+02   -0.38275E-03   -0.11381E-02 20280   0.726E-01    0.119E-01
DAV:   3    -0.619719352026E+02    0.10574E-03   -0.37861E-04 19088   0.120E-01    0.734E-02
DAV:   4    -0.619719152332E+02    0.19969E-04   -0.17326E-04 12932   0.818E-02
  21 F= -.61971915E+02 E0= -.61971969E+02  d E =-.713009E-02
       N       E                     dE             d eps       ncg     rms          rms(c)
DAV:   1    -0.619752565494E+02   -0.33213E-02   -0.64269E-01 14896   0.502E+00    0.480E-01
DAV:   2    -0.619761554893E+02   -0.89894E-03   -0.26411E-02 20352   0.110E+00    0.183E-01
DAV:   3    -0.619759188639E+02    0.23663E-03   -0.90772E-04 21544   0.183E-01    0.113E-01
DAV:   4    -0.619758790785E+02    0.39785E-04   -0.41661E-04 17820   0.120E-01
  22 F= -.61975879E+02 E0= -.61975936E+02  d E =-.110939E-01
       N       E                     dE             d eps       ncg     rms          rms(c)
DAV:   1    -0.619824739009E+02   -0.65550E-02   -0.25312E-01 14904   0.323E+00    0.297E-01
DAV:   2    -0.619827056144E+02   -0.23171E-03   -0.11182E-02 19944   0.719E-01    0.114E-01
DAV:   3    -0.619826269975E+02    0.78617E-04   -0.42310E-04 19000   0.121E-01
  23 F= -.61982627E+02 E0= -.61982685E+02  d E =-.674792E-02
       N       E                     dE             d eps       ncg     rms          rms(c)
DAV:   1    -0.619946775431E+02   -0.11972E-01   -0.22628E+00 14896   0.967E+00    0.920E-01
DAV:   2    -0.619964435445E+02   -0.17660E-02   -0.10049E-01 20040   0.216E+00    0.340E-01
DAV:   3    -0.619956630295E+02    0.78052E-03   -0.39003E-03 20864   0.362E-01    0.214E-01
DAV:   4    -0.619954574622E+02    0.20557E-03   -0.14415E-03 26608   0.215E-01    0.146E-01
DAV:   5    -0.619954919274E+02   -0.34465E-04   -0.10706E-04 12232   0.577E-02
  24 F= -.61995492E+02 E0= -.61995554E+02  d E =-.196128E-01
       N       E                     dE             d eps       ncg     rms          rms(c)
DAV:   1    -0.619826310921E+02    0.12826E-01   -0.91339E+00 14896   0.194E+01    0.193E+00
DAV:   2    -0.619902601252E+02   -0.76290E-02   -0.41360E-01 20208   0.436E+00    0.670E-01
DAV:   3    -0.619868999894E+02    0.33601E-02   -0.15369E-02 20508   0.731E-01    0.415E-01
DAV:   4    -0.619859676878E+02    0.93230E-03   -0.59947E-03 26296   0.444E-01    0.286E-01
DAV:   5    -0.619861016022E+02   -0.13391E-03   -0.52588E-04 19776   0.124E-01    0.167E-01
DAV:   6    -0.619861700517E+02   -0.68449E-04   -0.10017E-04 12048   0.629E-02
  25 F= -.61986170E+02 E0= -.61986240E+02  d E =-.102910E-01
       N       E                     dE             d eps       ncg     rms          rms(c)
DAV:   1    -0.619964834148E+02   -0.10382E-01   -0.46581E+00 14896   0.139E+01    0.130E+00
DAV:   2    -0.620004277827E+02   -0.39444E-02   -0.21230E-01 20144   0.315E+00    0.490E-01
DAV:   3    -0.619985752032E+02    0.18526E-02   -0.81807E-03 20984   0.544E-01    0.304E-01
DAV:   4    -0.619979447508E+02    0.63045E-03   -0.30978E-03 24672   0.317E-01    0.202E-01
DAV:   5    -0.619979986180E+02   -0.53867E-04   -0.31622E-04 18872   0.949E-02
  26 F= -.61997999E+02 E0= -.61998063E+02  d E =-.221195E-01
       N       E                     dE             d eps       ncg     rms          rms(c)
DAV:   1    -0.619997191052E+02   -0.17744E-02   -0.11832E+00 17024   0.821E+00    0.433E-01
DAV:   2    -0.620073135785E+02   -0.75945E-02   -0.97805E-02 16976   0.173E+00    0.281E-01
DAV:   3    -0.620070886369E+02    0.22494E-03   -0.14497E-03 21948   0.237E-01    0.164E-01
DAV:   4    -0.620070817787E+02    0.68582E-05   -0.47648E-04 17448   0.155E-01
  27 F= -.62007082E+02 E0= -.62007082E+02  d E =-.908316E-02
       N       E                     dE             d eps       ncg     rms          rms(c)
DAV:   1    -0.620070740972E+02    0.14540E-04   -0.14105E-02 17504   0.911E-01    0.516E-02
DAV:   2    -0.620070606882E+02    0.13409E-04   -0.11660E-03 17176   0.187E-01    0.336E-02
DAV:   3    -0.620070603941E+02    0.29414E-06   -0.16248E-05  9940   0.270E-02
  28 F= -.62007060E+02 E0= -.62007125E+02  d E =-.906178E-02
       N       E                     dE             d eps       ncg     rms          rms(c)
DAV:   1    -0.620146381929E+02   -0.75775E-02   -0.60742E-01 15288   0.524E+00    0.344E-01
DAV:   2    -0.620165418014E+02   -0.19036E-02   -0.31655E-02 18672   0.106E+00    0.214E-01
DAV:   3    -0.620163107280E+02    0.23107E-03   -0.73555E-04 20188   0.165E-01    0.110E-01
DAV:   4    -0.620162562938E+02    0.54434E-04   -0.25504E-04 15472   0.113E-01
  29 F= -.62016256E+02 E0= -.62016318E+02  d E =-.919590E-02
       N       E                     dE             d eps       ncg     rms          rms(c)
DAV:   1    -0.620175325311E+02   -0.12218E-02   -0.25857E+00 15272   0.108E+01    0.698E-01
DAV:   2    -0.620257696425E+02   -0.82371E-02   -0.13483E-01 18528   0.219E+00    0.437E-01
DAV:   3    -0.620248272091E+02    0.94243E-03   -0.30984E-03 21012   0.335E-01    0.230E-01
DAV:   4    -0.620245929432E+02    0.23427E-03   -0.11587E-03 19896   0.232E-01    0.320E-02
DAV:   5    -0.620246143020E+02   -0.21359E-04   -0.18683E-04 14384   0.832E-02
  30 F= -.62024614E+02 E0= -.62024614E+02  d E =-.175539E-01
       N       E                     dE             d eps       ncg     rms          rms(c)
DAV:   1    -0.620290353304E+02   -0.44424E-02   -0.68912E-01 17024   0.606E+00    0.345E-01
DAV:   2    -0.620331879939E+02   -0.41527E-02   -0.53001E-02 17032   0.125E+00    0.176E-01
DAV:   3    -0.620330358092E+02    0.15218E-03   -0.87279E-04 21612   0.175E-01    0.975E-02
DAV:   4    -0.620329985999E+02    0.37209E-04   -0.24255E-04 15040   0.102E-01
  31 F= -.62032999E+02 E0= -.62033055E+02  d E =-.838430E-02
       N       E                     dE             d eps       ncg     rms          rms(c)
DAV:   1    -0.620321692658E+02    0.86654E-03   -0.52793E-01 17024   0.532E+00    0.299E-01
DAV:   2    -0.620353433938E+02   -0.31741E-02   -0.40509E-02 17060   0.109E+00    0.154E-01
DAV:   3    -0.620352298137E+02    0.11358E-03   -0.67400E-04 21400   0.154E-01    0.859E-02
DAV:   4    -0.620352018535E+02    0.27960E-04   -0.18310E-04 13656   0.899E-02
  32 F= -.62035202E+02 E0= -.62035258E+02  d E =-.105876E-01
       N       E                     dE             d eps       ncg     rms          rms(c)
DAV:   1    -0.620388252927E+02   -0.35955E-02   -0.24385E-01 17064   0.332E+00    0.222E-01
DAV:   2    -0.620396761703E+02   -0.85088E-03   -0.12735E-02 17992   0.658E-01    0.121E-01
DAV:   3    -0.620395980717E+02    0.78099E-04   -0.27076E-04 19288   0.102E-01
  33 F= -.62039598E+02 E0= -.62039654E+02  d E =-.439622E-02
       N       E                     dE             d eps       ncg     rms          rms(c)
DAV:   1    -0.620401713675E+02   -0.49520E-03   -0.69211E-01 17024   0.558E+00    0.371E-01
DAV:   2    -0.620425086565E+02   -0.23373E-02   -0.35879E-02 18016   0.110E+00    0.200E-01
DAV:   3    -0.620422865808E+02    0.22208E-03   -0.82528E-04 21044   0.172E-01    0.105E-01
DAV:   4    -0.620422556065E+02    0.30974E-04   -0.22478E-04 16656   0.973E-02
  34 F= -.62042256E+02 E0= -.62042313E+02  d E =-.705375E-02
       N       E                     dE             d eps       ncg     rms          rms(c)
DAV:   1    -0.620454842817E+02   -0.31977E-02   -0.10094E-01 15044   0.202E+00    0.123E-01
DAV:   2    -0.620456869340E+02   -0.20265E-03   -0.37436E-03 20020   0.383E-01    0.670E-02
DAV:   3    -0.620456556174E+02    0.31317E-04   -0.84636E-05 11824   0.573E-02
  35 F= -.62045656E+02 E0= -.62045713E+02  d E =-.340001E-02
       N       E                     dE             d eps       ncg     rms          rms(c)
DAV:   1    -0.620508299164E+02   -0.51430E-02   -0.90575E-01 14896   0.603E+00    0.365E-01
DAV:   2    -0.620526964875E+02   -0.18666E-02   -0.33701E-02 20088   0.115E+00    0.196E-01
DAV:   3    -0.620524284975E+02    0.26799E-03   -0.87831E-04 20336   0.169E-01    0.102E-01
DAV:   4    -0.620523693227E+02    0.59175E-04   -0.27934E-04 16512   0.105E-01
  36 F= -.62052369E+02 E0= -.62052369E+02  d E =-.101137E-01
       N       E                     dE             d eps       ncg     rms          rms(c)
DAV:   1    -0.620392968907E+02    0.13132E-01   -0.36518E+00 14896   0.121E+01    0.741E-01
DAV:   2    -0.620469686552E+02   -0.76718E-02   -0.13821E-01 20240   0.232E+00    0.392E-01
DAV:   3    -0.620458098330E+02    0.11588E-02   -0.35383E-03 19968   0.343E-01    0.205E-01
DAV:   4    -0.620454753402E+02    0.33449E-03   -0.12548E-03 20000   0.220E-01    0.459E-02
DAV:   5    -0.620454979964E+02   -0.22656E-04   -0.15450E-04 13908   0.746E-02
  37 F= -.62045498E+02 E0= -.62045559E+02  d E =-.324239E-02
       N       E                     dE             d eps       ncg     rms          rms(c)
DAV:   1    -0.620499246271E+02   -0.44493E-02   -0.20735E+00 14896   0.911E+00    0.549E-01
DAV:   2    -0.620541704708E+02   -0.42458E-02   -0.77765E-02 20072   0.175E+00    0.302E-01
DAV:   3    -0.620534743433E+02    0.69613E-03   -0.19624E-03 19552   0.259E-01    0.155E-01
DAV:   4    -0.620533147317E+02    0.15961E-03   -0.71687E-04 19824   0.166E-01    0.345E-02
DAV:   5    -0.620533258120E+02   -0.11080E-04   -0.80785E-05 11000   0.568E-02
  38 F= -.62053326E+02 E0= -.62053385E+02  d E =-.110702E-01
       N       E                     dE             d eps       ncg     rms          rms(c)
DAV:   1    -0.620572571948E+02   -0.39425E-02   -0.21216E-01 14896   0.268E+00    0.175E-01
DAV:   2    -0.620575404932E+02   -0.28330E-03   -0.61380E-03 20584   0.532E-01    0.102E-01
DAV:   3    -0.620574687952E+02    0.71698E-04   -0.14359E-04 13076   0.742E-02
  39 F= -.62057469E+02 E0= -.62057469E+02  d E =-.414298E-02
       N       E                     dE             d eps       ncg     rms          rms(c)
DAV:   1    -0.620603267156E+02   -0.27862E-02   -0.18914E+00 14896   0.801E+00    0.518E-01
DAV:   2    -0.620627858487E+02   -0.24591E-02   -0.53974E-02 20696   0.156E+00    0.307E-01
DAV:   3    -0.620622053640E+02    0.58048E-03   -0.16726E-03 21324   0.222E-01    0.170E-01
DAV:   4    -0.620620645258E+02    0.14084E-03   -0.76517E-04 20040   0.160E-01    0.317E-02
DAV:   5    -0.620620798719E+02   -0.15346E-04   -0.13273E-04 14392   0.618E-02
  40 F= -.62062080E+02 E0= -.62062080E+02  d E =-.875406E-02
       N       E                     dE             d eps       ncg     rms          rms(c)
DAV:   1    -0.620657048073E+02   -0.36403E-02   -0.32781E-01 14904   0.351E+00    0.250E-01
DAV:   2    -0.620663234920E+02   -0.61868E-03   -0.11807E-02 19752   0.717E-01    0.129E-01
DAV:   3    -0.620662555664E+02    0.67926E-04   -0.34443E-04 19828   0.981E-02
  41 F= -.62066256E+02 E0= -.62066317E+02  d E =-.417569E-02
       N       E                     dE             d eps       ncg     rms          rms(c)
DAV:   1    -0.620689272681E+02   -0.26038E-02   -0.29300E+00 14896   0.105E+01    0.746E-01
DAV:   2    -0.620743365332E+02   -0.54093E-02   -0.10550E-01 19864   0.214E+00    0.386E-01
DAV:   3    -0.620736976944E+02    0.63884E-03   -0.31837E-03 21780   0.292E-01    0.214E-01
DAV:   4    -0.620735204586E+02    0.17724E-03   -0.82846E-04 19968   0.177E-01    0.592E-02
DAV:   5    -0.620735391155E+02   -0.18657E-04   -0.10848E-04 11396   0.644E-02
  42 F= -.62073539E+02 E0= -.62073607E+02  d E =-.114592E-01
       N       E                     dE             d eps       ncg     rms          rms(c)
DAV:   1    -0.620776488627E+02   -0.41284E-02   -0.36651E-01 14908   0.428E+00    0.264E-01
DAV:   2    -0.620793714792E+02   -0.17226E-02   -0.23754E-02 18008   0.943E-01    0.130E-01
DAV:   3    -0.620793115538E+02    0.59925E-04   -0.51166E-04 22392   0.128E-01
  43 F= -.62079312E+02 E0= -.62079384E+02  d E =-.577244E-02
       N       E                     dE             d eps       ncg     rms          rms(c)
DAV:   1    -0.620790635297E+02    0.30795E-03   -0.56656E-01 14896   0.531E+00    0.328E-01
DAV:   2    -0.620816390631E+02   -0.25755E-02   -0.36349E-02 18168   0.116E+00    0.166E-01
DAV:   3    -0.620815514499E+02    0.87613E-04   -0.80165E-04 22756   0.158E-01
  44 F= -.62081551E+02 E0= -.62081628E+02  d E =-.801233E-02
       N       E                     dE             d eps       ncg     rms          rms(c)
DAV:   1    -0.620849829003E+02   -0.33438E-02   -0.22941E-01 14920   0.286E+00    0.207E-01
DAV:   2    -0.620854000809E+02   -0.41718E-03   -0.82969E-03 20208   0.586E-01    0.118E-01
DAV:   3    -0.620853570432E+02    0.43038E-04   -0.25653E-04 17812   0.807E-02
  45 F= -.62085357E+02 E0= -.62085435E+02  d E =-.380559E-02
       N       E                     dE             d eps       ncg     rms          rms(c)
DAV:   1    -0.620894035503E+02   -0.40035E-02   -0.20978E+00 14896   0.865E+00    0.604E-01
DAV:   2    -0.620934833017E+02   -0.40798E-02   -0.76261E-02 20024   0.178E+00    0.346E-01
DAV:   3    -0.620930956609E+02    0.38764E-03   -0.23596E-03 21716   0.238E-01    0.198E-01
DAV:   4    -0.620929476916E+02    0.14797E-03   -0.60464E-04 19952   0.157E-01    0.339E-02
DAV:   5    -0.620929603977E+02   -0.12706E-04   -0.91751E-05 11748   0.571E-02
  46 F= -.62092960E+02 E0= -.62093039E+02  d E =-.114089E-01
       N       E                     dE             d eps       ncg     rms          rms(c)
DAV:   1    -0.620770868450E+02    0.15861E-01   -0.84418E+00 14896   0.173E+01    0.119E+00
DAV:   2    -0.620940814001E+02   -0.16995E-01   -0.31186E-01 19912   0.358E+00    0.692E-01
DAV:   3    -0.620925009760E+02    0.15804E-02   -0.94809E-03 21964   0.479E-01    0.398E-01
DAV:   4    -0.620918861263E+02    0.61485E-03   -0.24453E-03 19888   0.314E-01    0.663E-02
DAV:   5    -0.620919365958E+02   -0.50469E-04   -0.38565E-04 16796   0.113E-01
  47 F= -.62091937E+02 E0= -.62092015E+02  d E =-.103851E-01
       N       E                     dE             d eps       ncg     rms          rms(c)
DAV:   1    -0.620911736491E+02    0.71248E-03   -0.25567E+00 14896   0.954E+00    0.673E-01
DAV:   2    -0.620958187849E+02   -0.46451E-02   -0.91087E-02 19864   0.198E+00    0.407E-01
DAV:   3    -0.620952994281E+02    0.51936E-03   -0.27055E-03 21540   0.260E-01    0.235E-01
DAV:   4    -0.620950635234E+02    0.23590E-03   -0.76498E-04 19920   0.175E-01    0.418E-02
DAV:   5    -0.620950765058E+02   -0.12982E-04   -0.11032E-04 11956   0.645E-02
  48 F= -.62095077E+02 E0= -.62095155E+02  d E =-.135251E-01
       N       E                     dE             d eps       ncg     rms          rms(c)
DAV:   1    -0.621012221958E+02   -0.61587E-02   -0.32536E-01 14896   0.341E+00    0.263E-01
DAV:   2    -0.621017214284E+02   -0.49923E-03   -0.12247E-02 20416   0.743E-01    0.151E-01
DAV:   3    -0.621016280771E+02    0.93351E-04   -0.39215E-04 20400   0.107E-01
  49 F= -.62101628E+02 E0= -.62101706E+02  d E =-.655157E-02
       N       E                     dE             d eps       ncg     rms          rms(c)
DAV:   1    -0.621112692999E+02   -0.95479E-02   -0.29196E+00 14896   0.102E+01    0.788E-01
DAV:   2    -0.621157720366E+02   -0.45027E-02   -0.11079E-01 20648   0.222E+00    0.461E-01
DAV:   3    -0.621149796438E+02    0.79239E-03   -0.37040E-03 21796   0.322E-01    0.264E-01
DAV:   4    -0.621146815749E+02    0.29807E-03   -0.12195E-03 20412   0.213E-01    0.844E-02
DAV:   5    -0.621147147763E+02   -0.33201E-04   -0.25464E-04 15484   0.882E-02
  50 F= -.62114715E+02 E0= -.62114791E+02  d E =-.196383E-01
       N       E                     dE             d eps       ncg     rms          rms(c)
DAV:   1    -0.620928497823E+02    0.21832E-01   -0.11797E+01 14896   0.205E+01    0.159E+00
DAV:   2    -0.621124721916E+02   -0.19622E-01   -0.46256E-01 20600   0.451E+00    0.927E-01
DAV:   3    -0.621091507665E+02    0.33214E-02   -0.14883E-02 21612   0.655E-01    0.534E-01
DAV:   4    -0.621078728709E+02    0.12779E-02   -0.51771E-03 20128   0.444E-01    0.161E-01
DAV:   5    -0.621080094781E+02   -0.13661E-03   -0.11367E-03 19416   0.185E-01    0.110E-01
DAV:   6    -0.621080188747E+02   -0.93965E-05   -0.87335E-05 11124   0.693E-02
  51 F= -.62108019E+02 E0= -.62108107E+02  d E =-.129424E-01
       N       E                     dE             d eps       ncg     rms          rms(c)
DAV:   1    -0.621122072746E+02   -0.41978E-02   -0.52064E+00 14896   0.136E+01    0.107E+00
DAV:   2    -0.621198419301E+02   -0.76347E-02   -0.19701E-01 20392   0.306E+00    0.678E-01
DAV:   3    -0.621183539004E+02    0.14880E-02   -0.64078E-03 21916   0.441E-01    0.397E-01
DAV:   4    -0.621176166473E+02    0.73725E-03   -0.24519E-03 19744   0.304E-01    0.111E-01
DAV:   5    -0.621176748410E+02   -0.58194E-04   -0.55630E-04 17600   0.128E-01
  52 F= -.62117675E+02 E0= -.62117752E+02  d E =-.225983E-01
       N       E                     dE             d eps       ncg     rms          rms(c)
DAV:   1    -0.621235866432E+02   -0.59700E-02   -0.44630E-01 14896   0.449E+00    0.334E-01
DAV:   2    -0.621248979336E+02   -0.13113E-02   -0.23982E-02 19416   0.995E-01    0.150E-01
DAV:   3    -0.621247635234E+02    0.13441E-03   -0.63302E-04 22068   0.148E-01    0.825E-02
DAV:   4    -0.621247087476E+02    0.54776E-04   -0.16696E-04 13400   0.877E-02
  53 F= -.62124709E+02 E0= -.62124790E+02  d E =-.703391E-02
       N       E                     dE             d eps       ncg     rms          rms(c)
DAV:   1    -0.621251909895E+02   -0.42747E-03   -0.40152E+00 14896   0.135E+01    0.996E-01
DAV:   2    -0.621369096862E+02   -0.11719E-01   -0.21820E-01 19384   0.299E+00    0.439E-01
DAV:   3    -0.621357540221E+02    0.11557E-02   -0.60024E-03 22196   0.444E-01    0.250E-01
DAV:   4    -0.621353530004E+02    0.40102E-03   -0.18909E-03 24768   0.269E-01    0.127E-01
DAV:   5    -0.621353963545E+02   -0.43354E-04   -0.26876E-04 16936   0.892E-02
  54 F= -.62135396E+02 E0= -.62135498E+02  d E =-.177215E-01
       N       E                     dE             d eps       ncg     rms          rms(c)
DAV:   1    -0.621422610880E+02   -0.69081E-02   -0.30109E-01 14912   0.355E+00    0.266E-01
DAV:   2    -0.621429280120E+02   -0.66692E-03   -0.13287E-02 19336   0.761E-01    0.128E-01
DAV:   3    -0.621426722073E+02    0.25580E-03   -0.38076E-04 20576   0.108E-01    0.687E-02
DAV:   4    -0.621426401750E+02    0.32032E-04   -0.10205E-04 11112   0.704E-02
  55 F= -.62142640E+02 E0= -.62142748E+02  d E =-.724382E-02
       N       E                     dE             d eps       ncg     rms          rms(c)
DAV:   1    -0.621554805306E+02   -0.12808E-01   -0.27145E+00 14896   0.106E+01    0.795E-01
DAV:   2    -0.621614724253E+02   -0.59919E-02   -0.12066E-01 19440   0.228E+00    0.356E-01
DAV:   3    -0.621607034567E+02    0.76897E-03   -0.34742E-03 22172   0.325E-01    0.200E-01
DAV:   4    -0.621604402992E+02    0.26316E-03   -0.10332E-03 24160   0.197E-01    0.835E-02
DAV:   5    -0.621604601236E+02   -0.19824E-04   -0.11902E-04 11972   0.619E-02
  56 F= -.62160460E+02 E0= -.62160591E+02  d E =-.250638E-01
       N       E                     dE             d eps       ncg     rms          rms(c)
DAV:   1    -0.621573433647E+02    0.30969E-02   -0.10886E+01 14896   0.212E+01    0.165E+00
DAV:   2    -0.621814907233E+02   -0.24147E-01   -0.49477E-01 19472   0.464E+00    0.711E-01
DAV:   3    -0.621783683960E+02    0.31223E-02   -0.13953E-02 21764   0.655E-01    0.398E-01
DAV:   4    -0.621775105018E+02    0.85789E-03   -0.43844E-03 24708   0.408E-01    0.168E-01
DAV:   5    -0.621775912591E+02   -0.80757E-04   -0.56878E-04 19728   0.126E-01
  57 F= -.62177591E+02 E0= -.62177591E+02  d E =-.421949E-01
       N       E                     dE             d eps       ncg     rms          rms(c)
DAV:   1    -0.621875061321E+02   -0.99956E-02   -0.99422E-01 14928   0.618E+00    0.391E-01
DAV:   2    -0.621892408039E+02   -0.17347E-02   -0.35573E-02 20176   0.125E+00    0.242E-01
DAV:   3    -0.621889594407E+02    0.28136E-03   -0.10020E-03 21980   0.172E-01    0.141E-01
DAV:   4    -0.621888402509E+02    0.11919E-03   -0.38930E-04 19264   0.127E-01    0.284E-02
DAV:   5    -0.621888455072E+02   -0.52562E-05   -0.52968E-05 10400   0.472E-02
  58 F= -.62188846E+02 E0= -.62188987E+02  d E =-.112542E-01
       N       E                     dE             d eps       ncg     rms          rms(c)
DAV:   1    -0.621950883704E+02   -0.62481E-02   -0.89350E+00 14896   0.185E+01    0.118E+00
DAV:   2    -0.622110612122E+02   -0.15973E-01   -0.32757E-01 20128   0.380E+00    0.732E-01
DAV:   3    -0.622086728066E+02    0.23884E-02   -0.91147E-03 21872   0.523E-01    0.434E-01
DAV:   4    -0.622075846140E+02    0.10882E-02   -0.35806E-03 20152   0.387E-01    0.858E-02
DAV:   5    -0.622076331130E+02   -0.48499E-04   -0.53945E-04 17256   0.139E-01
  59 F= -.62207633E+02 E0= -.62207739E+02  d E =-.300419E-01
       N       E                     dE             d eps       ncg     rms          rms(c)
DAV:   1    -0.622162784287E+02   -0.86938E-02   -0.17663E-01 16260   0.279E+00    0.240E-01
DAV:   2    -0.622167814163E+02   -0.50299E-03   -0.95573E-03 19352   0.603E-01    0.123E-01
DAV:   3    -0.622166892507E+02    0.92166E-04   -0.29319E-04 19492   0.103E-01
  60 F= -.62216689E+02 E0= -.62216792E+02  d E =-.905614E-02
