Automatically generated mesh
      22
Reciprocal lattice
    0.00000000000000    0.00000000000000    0.00000000000000             1
    0.25000000000000    0.00000000000000    0.00000000000000             2
    0.50000000000000    0.00000000000000    0.00000000000000             1
    0.00000000000000    0.20000000000000    0.00000000000000             2
    0.25000000000000    0.20000000000000    0.00000000000000             2
    0.50000000000000    0.20000000000000    0.00000000000000             2
   -0.25000000000000    0.20000000000000    0.00000000000000             2
    0.00000000000000    0.40000000000000    0.00000000000000             2
    0.25000000000000    0.40000000000000    0.00000000000000             2
    0.50000000000000    0.40000000000000    0.00000000000000             2
   -0.25000000000000    0.40000000000000    0.00000000000000             2
    0.00000000000000    0.00000000000000    0.50000000000000             1
    0.25000000000000    0.00000000000000    0.50000000000000             2
    0.50000000000000    0.00000000000000    0.50000000000000             1
    0.00000000000000    0.20000000000000    0.50000000000000             2
    0.25000000000000    0.20000000000000    0.50000000000000             2
    0.50000000000000    0.20000000000000    0.50000000000000             2
   -0.25000000000000    0.20000000000000    0.50000000000000             2
    0.00000000000000    0.40000000000000    0.50000000000000             2
    0.25000000000000    0.40000000000000    0.50000000000000             2
    0.50000000000000    0.40000000000000    0.50000000000000             2
   -0.25000000000000    0.40000000000000    0.50000000000000             2
Tetrahedra
       120    0.00416666666667
         2         1         4         5        16
         2         1         2         5        16
         2         1         2        13        16
         2         1         4        15        16
         2         1        12        15        16
         2         1        12        13        16
         2         2         5         6        17
         2         2         3         6        17
         2         2         3        14        17
         2         2         5        16        17
         2         2        13        16        17
         2         2        13        14        17
         2         3         6         7        18
         2         2         3         7        18
         2         2         3        13        18
         2         3         6        17        18
         2         3        14        17        18
         2         3        13        14        18
         2         2         4         7        15
         2         1         2         4        15
         2         1         2        12        15
         2         2         7        15        18
         2         2        13        15        18
         2         2        12        13        15
         2         4         8         9        20
         2         4         5         9        20
         2         4         5        16        20
         2         4         8        19        20
         2         4        15        19        20
         2         4        15        16        20
         2         5         9        10        21
         2         5         6        10        21
         2         5         6        17        21
         2         5         9        20        21
         2         5        16        20        21
         2         5        16        17        21
         2         6        10        11        22
         2         6         7        11        22
         2         6         7        18        22
         2         6        10        21        22
         2         6        17        21        22
         2         6        17        18        22
         2         7         8        11        19
         2         4         7         8        19
         2         4         7        15        19
         2         7        11        19        22
         2         7        18        19        22
         2         7        15        18        19
         2         8         8        11        22
         2         8         9        11        22
         2         8         9        20        22
         2         8         8        19        22
         2         8        19        19        22
         2         8        19        20        22
         2         9        10        11        21
         2         9        10        10        21
         2         9        10        21        21
         2         9        11        21        22
         2         9        20        21        22
         2         9        20        21        21
         2         9        10        10        20
         2         9        10        11        20
         2        10        11        20        22
         2        10        10        20        21
         2        10        20        21        21
         2        10        20        21        22
         2         8         9        11        19
         2         8         8        11        19
         2         8        11        19        19
         2         9        11        19        20
         2        11        19        20        22
         2        11        19        19        22
         2         4         7         8        18
         2         7         8        11        18
         2         8        11        18        22
         2         4         8        15        18
         2         8        15        18        19
         2         8        18        19        22
         2         6         7        11        17
         2         6        10        11        17
         2        10        11        17        21
         2         7        11        17        18
         2        11        17        18        22
         2        11        17        21        22
         2         5         6        10        16
         2         5         9        10        16
         2         9        10        16        20
         2         6        10        16        17
         2        10        16        17        21
         2        10        16        20        21
         2         4         5         9        15
         2         4         8         9        15
         2         8         9        15        19
         2         5         9        15        16
         2         9        15        16        20
         2         9        15        19        20
         2         1         2         4        13
         2         2         4         7        13
         2         4         7        13        18
         2         1         4        12        13
         2         4        12        13        15
         2         4        13        15        18
         2         2         3         7        14
         2         3         6         7        14
         2         6         7        14        17
         2         2         7        13        14
         2         7        13        14        18
         2         7        14        17        18
         2         2         3         6        13
         2         2         5         6        13
         2         5         6        13        16
         2         3         6        13        14
         2         6        13        14        17
         2         6        13        16        17
         2         1         2         5        12
         2         1         4         5        12
         2         4         5        12        15
         2         2         5        12        13
         2         5        12        13        16
         2         5        12        15        16
