  13  13   1   0
  0.8308272E+01  0.4878994E-09  0.5157286E-09  0.5207584E-09  0.5000000E-15
  1.000000000000000E-004
  CAR 
 unknown system                          
     13.21936338    -36.99436791  301     -0.96601571      1.00000000
    -36.994  0.0000E+00  0.0000E+00  0.0000E+00  0.0000E+00
    -36.827  0.0000E+00  0.0000E+00  0.0000E+00  0.0000E+00
    -36.660  0.0000E+00  0.0000E+00  0.0000E+00  0.0000E+00
    -36.492  0.0000E+00  0.0000E+00  0.0000E+00  0.0000E+00
    -36.325  0.0000E+00  0.0000E+00  0.0000E+00  0.0000E+00
    -36.157  0.0000E+00  0.0000E+00  0.0000E+00  0.0000E+00
    -35.990  0.0000E+00  0.0000E+00  0.0000E+00  0.0000E+00
    -35.823  0.0000E+00  0.0000E+00  0.0000E+00  0.0000E+00
    -35.655  0.0000E+00  0.0000E+00  0.0000E+00  0.0000E+00
    -35.488  0.0000E+00  0.0000E+00  0.0000E+00  0.0000E+00
    -35.321  0.0000E+00  0.0000E+00  0.0000E+00  0.0000E+00
    -35.153  0.0000E+00  0.0000E+00  0.0000E+00  0.0000E+00
    -34.986  0.0000E+00  0.0000E+00  0.0000E+00  0.0000E+00
    -34.818  0.0000E+00  0.0000E+00  0.0000E+00  0.0000E+00
    -34.651  0.0000E+00  0.0000E+00  0.1010E-01  0.1010E-01
    -34.484  0.0000E+00  0.0000E+00  0.1010E-01  0.1010E-01
    -34.316  0.0000E+00  0.0000E+00  0.1010E-01  0.1010E-01
    -34.149  0.0000E+00  0.0000E+00  0.1010E-01  0.1010E-01
    -33.982  0.0000E+00  0.0000E+00  0.1010E-01  0.1010E-01
    -33.814  0.0000E+00  0.0000E+00  0.1010E-01  0.1010E-01
    -33.647  0.0000E+00  0.0000E+00  0.1010E-01  0.1010E-01
    -33.479  0.0000E+00  0.0000E+00  0.1010E-01  0.1010E-01
    -33.312  0.0000E+00  0.0000E+00  0.1010E-01  0.1010E-01
    -33.145  0.0000E+00  0.0000E+00  0.1010E-01  0.1010E-01
    -32.977  0.0000E+00  0.0000E+00  0.1010E-01  0.1010E-01
    -32.810  0.0000E+00  0.0000E+00  0.1010E-01  0.1010E-01
    -32.643  0.0000E+00  0.0000E+00  0.1010E-01  0.1010E-01
    -32.475  0.0000E+00  0.0000E+00  0.1010E-01  0.1010E-01
    -32.308  0.0000E+00  0.0000E+00  0.1010E-01  0.1010E-01
    -32.140  0.0000E+00  0.0000E+00  0.1010E-01  0.1010E-01
    -31.973  0.0000E+00  0.0000E+00  0.1010E-01  0.1010E-01
    -31.806  0.0000E+00  0.0000E+00  0.1010E-01  0.1010E-01
    -31.638  0.0000E+00  0.0000E+00  0.1010E-01  0.1010E-01
    -31.471  0.0000E+00  0.0000E+00  0.1010E-01  0.1010E-01
    -31.303  0.0000E+00  0.0000E+00  0.1010E-01  0.1010E-01
    -31.136  0.0000E+00  0.0000E+00  0.1010E-01  0.1010E-01
    -30.969  0.0000E+00  0.0000E+00  0.1010E-01  0.1010E-01
    -30.801  0.0000E+00  0.0000E+00  0.1010E-01  0.1010E-01
    -30.634  0.0000E+00  0.0000E+00  0.1010E-01  0.1010E-01
    -30.467  0.0000E+00  0.0000E+00  0.1010E-01  0.1010E-01
    -30.299  0.0000E+00  0.0000E+00  0.1010E-01  0.1010E-01
    -30.132  0.0000E+00  0.0000E+00  0.1010E-01  0.1010E-01
    -29.964  0.0000E+00  0.0000E+00  0.2020E-01  0.2020E-01
    -29.797  0.0000E+00  0.0000E+00  0.3030E-01  0.3030E-01
    -29.630  0.0000E+00  0.0000E+00  0.4040E-01  0.4040E-01
    -29.462  0.0000E+00  0.0000E+00  0.4040E-01  0.4040E-01
    -29.295  0.0000E+00  0.0000E+00  0.4040E-01  0.4040E-01
    -29.128  0.0000E+00  0.0000E+00  0.4040E-01  0.4040E-01
    -28.960  0.0000E+00  0.0000E+00  0.4040E-01  0.4040E-01
    -28.793  0.0000E+00  0.0000E+00  0.4040E-01  0.4040E-01
    -28.625  0.0000E+00  0.0000E+00  0.4040E-01  0.4040E-01
    -28.458  0.0000E+00  0.0000E+00  0.4040E-01  0.4040E-01
    -28.291  0.0000E+00  0.0000E+00  0.4040E-01  0.4040E-01
    -28.123  0.0000E+00  0.0000E+00  0.4040E-01  0.4040E-01
    -27.956  0.0000E+00  0.0000E+00  0.4040E-01  0.4040E-01
    -27.789  0.0000E+00  0.0000E+00  0.4040E-01  0.4040E-01
    -27.621  0.0000E+00  0.0000E+00  0.4040E-01  0.4040E-01
    -27.454  0.0000E+00  0.0000E+00  0.4040E-01  0.4040E-01
    -27.286  0.0000E+00  0.0000E+00  0.4040E-01  0.4040E-01
    -27.119  0.0000E+00  0.0000E+00  0.4040E-01  0.4040E-01
    -26.952  0.0000E+00  0.0000E+00  0.4040E-01  0.4040E-01
    -26.784  0.0000E+00  0.0000E+00  0.4040E-01  0.4040E-01
    -26.617  0.0000E+00  0.0000E+00  0.4040E-01  0.4040E-01
    -26.449  0.0000E+00  0.0000E+00  0.4040E-01  0.4040E-01
    -26.282  0.0000E+00  0.0000E+00  0.4040E-01  0.4040E-01
    -26.115  0.0000E+00  0.0000E+00  0.4040E-01  0.4040E-01
    -25.947  0.0000E+00  0.0000E+00  0.4040E-01  0.4040E-01
    -25.780  0.0000E+00  0.0000E+00  0.4040E-01  0.4040E-01
    -25.613  0.0000E+00  0.0000E+00  0.4040E-01  0.4040E-01
    -25.445  0.0000E+00  0.0000E+00  0.4040E-01  0.4040E-01
    -25.278  0.0000E+00  0.0000E+00  0.4040E-01  0.4040E-01
    -25.110  0.0000E+00  0.0000E+00  0.4040E-01  0.4040E-01
    -24.943  0.0000E+00  0.0000E+00  0.4040E-01  0.4040E-01
    -24.776  0.0000E+00  0.0000E+00  0.4040E-01  0.4040E-01
    -24.608  0.0000E+00  0.0000E+00  0.4040E-01  0.4040E-01
    -24.441  0.0000E+00  0.0000E+00  0.4040E-01  0.4040E-01
    -24.274  0.0000E+00  0.0000E+00  0.4040E-01  0.4040E-01
    -24.106  0.0000E+00  0.0000E+00  0.4040E-01  0.4040E-01
    -23.939  0.0000E+00  0.0000E+00  0.4040E-01  0.4040E-01
    -23.771  0.0000E+00  0.0000E+00  0.4040E-01  0.4040E-01
    -23.604  0.0000E+00  0.0000E+00  0.4040E-01  0.4040E-01
    -23.437  0.0000E+00  0.0000E+00  0.4040E-01  0.4040E-01
    -23.269  0.0000E+00  0.0000E+00  0.4040E-01  0.4040E-01
    -23.102  0.0000E+00  0.0000E+00  0.4040E-01  0.4040E-01
    -22.935  0.0000E+00  0.0000E+00  0.4040E-01  0.4040E-01
    -22.767  0.0000E+00  0.0000E+00  0.4040E-01  0.4040E-01
    -22.600  0.0000E+00  0.0000E+00  0.4040E-01  0.4040E-01
    -22.432  0.0000E+00  0.0000E+00  0.4040E-01  0.4040E-01
    -22.265  0.0000E+00  0.0000E+00  0.4040E-01  0.4040E-01
    -22.098  0.0000E+00  0.0000E+00  0.4040E-01  0.4040E-01
    -21.930  0.0000E+00  0.0000E+00  0.4040E-01  0.4040E-01
    -21.763  0.0000E+00  0.0000E+00  0.4040E-01  0.4040E-01
    -21.595  0.0000E+00  0.0000E+00  0.4040E-01  0.4040E-01
    -21.428  0.0000E+00  0.0000E+00  0.4040E-01  0.4040E-01
    -21.261  0.0000E+00  0.0000E+00  0.4040E-01  0.4040E-01
    -21.093  0.0000E+00  0.0000E+00  0.4040E-01  0.4040E-01
    -20.926  0.0000E+00  0.0000E+00  0.4040E-01  0.4040E-01
    -20.759  0.0000E+00  0.0000E+00  0.4040E-01  0.4040E-01
    -20.591  0.0000E+00  0.0000E+00  0.4040E-01  0.4040E-01
    -20.424  0.0000E+00  0.0000E+00  0.4040E-01  0.4040E-01
    -20.256  0.0000E+00  0.0000E+00  0.4040E-01  0.4040E-01
    -20.089  0.0000E+00  0.0000E+00  0.4040E-01  0.4040E-01
    -19.922  0.0000E+00  0.0000E+00  0.4040E-01  0.4040E-01
    -19.754  0.0000E+00  0.0000E+00  0.4040E-01  0.4040E-01
    -19.587  0.0000E+00  0.0000E+00  0.4040E-01  0.4040E-01
    -19.420  0.0000E+00  0.0000E+00  0.4040E-01  0.4040E-01
    -19.252  0.0000E+00  0.0000E+00  0.4040E-01  0.4040E-01
    -19.085  0.0000E+00  0.0000E+00  0.4040E-01  0.4040E-01
    -18.917  0.0000E+00  0.0000E+00  0.4040E-01  0.4040E-01
    -18.750  0.0000E+00  0.0000E+00  0.4040E-01  0.4040E-01
    -18.583  0.0000E+00  0.0000E+00  0.4040E-01  0.4040E-01
    -18.415  0.0000E+00  0.0000E+00  0.4040E-01  0.4040E-01
    -18.248  0.0000E+00  0.0000E+00  0.4040E-01  0.4040E-01
    -18.081  0.0000E+00  0.0000E+00  0.4040E-01  0.4040E-01
    -17.913  0.0000E+00  0.0000E+00  0.4040E-01  0.4040E-01
    -17.746  0.0000E+00  0.0000E+00  0.4040E-01  0.4040E-01
    -17.578  0.0000E+00  0.0000E+00  0.4040E-01  0.4040E-01
    -17.411  0.0000E+00  0.0000E+00  0.4040E-01  0.4040E-01
    -17.244  0.0000E+00  0.0000E+00  0.4040E-01  0.4040E-01
    -17.076  0.0000E+00  0.0000E+00  0.4040E-01  0.4040E-01
    -16.909  0.0000E+00  0.0000E+00  0.4040E-01  0.4040E-01
    -16.741  0.0000E+00  0.0000E+00  0.5051E-01  0.5051E-01
    -16.574  0.0000E+00  0.0000E+00  0.7071E-01  0.7071E-01
    -16.407  0.0000E+00  0.0000E+00  0.7071E-01  0.7071E-01
    -16.239  0.0000E+00  0.0000E+00  0.7071E-01  0.7071E-01
    -16.072  0.0000E+00  0.0000E+00  0.7071E-01  0.7071E-01
    -15.905  0.0000E+00  0.0000E+00  0.7071E-01  0.7071E-01
    -15.737  0.0000E+00  0.0000E+00  0.7071E-01  0.7071E-01
    -15.570  0.0000E+00  0.0000E+00  0.7071E-01  0.7071E-01
    -15.402  0.0000E+00  0.0000E+00  0.7071E-01  0.7071E-01
    -15.235  0.0000E+00  0.0000E+00  0.7071E-01  0.7071E-01
    -15.068  0.0000E+00  0.0000E+00  0.7071E-01  0.7071E-01
    -14.900  0.0000E+00  0.0000E+00  0.7071E-01  0.7071E-01
    -14.733  0.0000E+00  0.0000E+00  0.7071E-01  0.7071E-01
    -14.566  0.0000E+00  0.0000E+00  0.7071E-01  0.7071E-01
    -14.398  0.0000E+00  0.0000E+00  0.7071E-01  0.7071E-01
    -14.231  0.0000E+00  0.0000E+00  0.7071E-01  0.7071E-01
    -14.063  0.0000E+00  0.0000E+00  0.7071E-01  0.7071E-01
    -13.896  0.0000E+00  0.0000E+00  0.7071E-01  0.7071E-01
    -13.729  0.0000E+00  0.0000E+00  0.7071E-01  0.7071E-01
    -13.561  0.0000E+00  0.0000E+00  0.7071E-01  0.7071E-01
    -13.394  0.0000E+00  0.0000E+00  0.7071E-01  0.7071E-01
    -13.227  0.0000E+00  0.0000E+00  0.7071E-01  0.7071E-01
    -13.059  0.0000E+00  0.0000E+00  0.7071E-01  0.7071E-01
    -12.892  0.0000E+00  0.0000E+00  0.7071E-01  0.7071E-01
    -12.724  0.0000E+00  0.0000E+00  0.7071E-01  0.7071E-01
    -12.557  0.0000E+00  0.0000E+00  0.7071E-01  0.7071E-01
    -12.390  0.0000E+00  0.0000E+00  0.7071E-01  0.7071E-01
    -12.222  0.0000E+00  0.0000E+00  0.7071E-01  0.7071E-01
    -12.055  0.0000E+00  0.0000E+00  0.7071E-01  0.7071E-01
    -11.888  0.0000E+00  0.0000E+00  0.7071E-01  0.7071E-01
    -11.720  0.0000E+00  0.0000E+00  0.7071E-01  0.7071E-01
    -11.553  0.0000E+00  0.0000E+00  0.7071E-01  0.7071E-01
    -11.385  0.0000E+00  0.0000E+00  0.7071E-01  0.7071E-01
    -11.218  0.0000E+00  0.0000E+00  0.7071E-01  0.7071E-01
    -11.051  0.0000E+00  0.0000E+00  0.7071E-01  0.7071E-01
    -10.883  0.0000E+00  0.0000E+00  0.7071E-01  0.7071E-01
    -10.716  0.0000E+00  0.0000E+00  0.7071E-01  0.7071E-01
    -10.548  0.0000E+00  0.0000E+00  0.7071E-01  0.7071E-01
    -10.381  0.0000E+00  0.0000E+00  0.7071E-01  0.7071E-01
    -10.214  0.0000E+00  0.0000E+00  0.7071E-01  0.7071E-01
    -10.046  0.0000E+00  0.0000E+00  0.7071E-01  0.7071E-01
     -9.879  0.0000E+00  0.0000E+00  0.7071E-01  0.7071E-01
     -9.712  0.0000E+00  0.0000E+00  0.7071E-01  0.7071E-01
     -9.544  0.0000E+00  0.0000E+00  0.7071E-01  0.7071E-01
     -9.377  0.0000E+00  0.0000E+00  0.7071E-01  0.7071E-01
     -9.209  0.0000E+00  0.0000E+00  0.7071E-01  0.7071E-01
     -9.042  0.0000E+00  0.0000E+00  0.7071E-01  0.7071E-01
     -8.875  0.1871E-03  0.1871E-03  0.7071E-01  0.7071E-01
     -8.707  0.5307E-02  0.5307E-02  0.7113E-01  0.7113E-01
     -8.540  0.1242E-01  0.1242E-01  0.7249E-01  0.7249E-01
     -8.373  0.1816E-01  0.1816E-01  0.7529E-01  0.7529E-01
     -8.205  0.1330E-01  0.1330E-01  0.7758E-01  0.7758E-01
     -8.038  0.1033E-01  0.1033E-01  0.8055E-01  0.8055E-01
     -7.870  0.0000E+00  0.0000E+00  0.8081E-01  0.8081E-01
     -7.703  0.1678E-01  0.1678E-01  0.8129E-01  0.8129E-01
     -7.536  0.1203E-01  0.1203E-01  0.8443E-01  0.8443E-01
     -7.368  0.1628E-01  0.1628E-01  0.8653E-01  0.8653E-01
     -7.201  0.1322E-01  0.1322E-01  0.9067E-01  0.9067E-01
     -7.034  0.0000E+00  0.0000E+00  0.9091E-01  0.9091E-01
     -6.866  0.0000E+00  0.0000E+00  0.9091E-01  0.9091E-01
     -6.699  0.0000E+00  0.0000E+00  0.9091E-01  0.9091E-01
     -6.531  0.0000E+00  0.0000E+00  0.9091E-01  0.9091E-01
     -6.364  0.0000E+00  0.0000E+00  0.9091E-01  0.9091E-01
     -6.197  0.0000E+00  0.0000E+00  0.9091E-01  0.9091E-01
     -6.029  0.0000E+00  0.0000E+00  0.9091E-01  0.9091E-01
     -5.862  0.0000E+00  0.0000E+00  0.9091E-01  0.9091E-01
     -5.694  0.0000E+00  0.0000E+00  0.9091E-01  0.9091E-01
     -5.527  0.0000E+00  0.0000E+00  0.9091E-01  0.9091E-01
     -5.360  0.0000E+00  0.0000E+00  0.9091E-01  0.9091E-01
     -5.192  0.0000E+00  0.0000E+00  0.9091E-01  0.9091E-01
     -5.025  0.0000E+00  0.0000E+00  0.9091E-01  0.9091E-01
     -4.858  0.0000E+00  0.0000E+00  0.9091E-01  0.9091E-01
     -4.690  0.0000E+00  0.0000E+00  0.9091E-01  0.9091E-01
     -4.523  0.2336E-02  0.2336E-02  0.9100E-01  0.9100E-01
     -4.355  0.1034E-01  0.1034E-01  0.9183E-01  0.9183E-01
     -4.188  0.2407E-01  0.2407E-01  0.9600E-01  0.9600E-01
     -4.021  0.1371E-01  0.1371E-01  0.9936E-01  0.9936E-01
     -3.853  0.4082E-02  0.4082E-02  0.1008E+00  0.1008E+00
     -3.686  0.5596E-02  0.5596E-02  0.1012E+00  0.1012E+00
     -3.519  0.2763E-01  0.2763E-01  0.1038E+00  0.1038E+00
     -3.351  0.2082E-01  0.2082E-01  0.1088E+00  0.1088E+00
     -3.184  0.3730E-02  0.3730E-02  0.1111E+00  0.1111E+00
     -3.016  0.2477E-01  0.2477E-01  0.1128E+00  0.1128E+00
     -2.849  0.3205E-01  0.3205E-01  0.1186E+00  0.1186E+00
     -2.682  0.3979E-02  0.3979E-02  0.1213E+00  0.1213E+00
     -2.514  0.4374E-01  0.4374E-01  0.1250E+00  0.1250E+00
     -2.347  0.1351E-01  0.1351E-01  0.1309E+00  0.1309E+00
     -2.180  0.1522E-01  0.1522E-01  0.1320E+00  0.1320E+00
     -2.012  0.2765E-01  0.2765E-01  0.1371E+00  0.1371E+00
     -1.845  0.3448E-01  0.3448E-01  0.1411E+00  0.1411E+00
     -1.677  0.3101E-01  0.3101E-01  0.1482E+00  0.1482E+00
     -1.510  0.5709E-02  0.5709E-02  0.1512E+00  0.1512E+00
     -1.343  0.2007E-01  0.2007E-01  0.1533E+00  0.1533E+00
     -1.175  0.8150E-01  0.8150E-01  0.1596E+00  0.1596E+00
     -1.008  0.3153E-04  0.3153E-04  0.1616E+00  0.1616E+00
     -0.840  0.0000E+00  0.0000E+00  0.1616E+00  0.1616E+00
     -0.673  0.0000E+00  0.0000E+00  0.1616E+00  0.1616E+00
     -0.506  0.0000E+00  0.0000E+00  0.1616E+00  0.1616E+00
     -0.338  0.0000E+00  0.0000E+00  0.1616E+00  0.1616E+00
     -0.171  0.0000E+00  0.0000E+00  0.1616E+00  0.1616E+00
     -0.004  0.0000E+00  0.0000E+00  0.1616E+00  0.1616E+00
      0.164  0.0000E+00  0.0000E+00  0.1616E+00  0.1616E+00
      0.331  0.0000E+00  0.0000E+00  0.1616E+00  0.1616E+00
      0.499  0.0000E+00  0.0000E+00  0.1616E+00  0.1616E+00
      0.666  0.0000E+00  0.0000E+00  0.1616E+00  0.1616E+00
      0.833  0.0000E+00  0.0000E+00  0.1616E+00  0.1616E+00
      1.001  0.0000E+00  0.0000E+00  0.1616E+00  0.1616E+00
      1.168  0.0000E+00  0.0000E+00  0.1616E+00  0.1616E+00
      1.335  0.0000E+00  0.0000E+00  0.1616E+00  0.1616E+00
      1.503  0.0000E+00  0.0000E+00  0.1616E+00  0.1616E+00
      1.670  0.0000E+00  0.0000E+00  0.1616E+00  0.1616E+00
      1.838  0.0000E+00  0.0000E+00  0.1616E+00  0.1616E+00
      2.005  0.0000E+00  0.0000E+00  0.1616E+00  0.1616E+00
      2.172  0.0000E+00  0.0000E+00  0.1616E+00  0.1616E+00
      2.340  0.0000E+00  0.0000E+00  0.1616E+00  0.1616E+00
      2.507  0.0000E+00  0.0000E+00  0.1616E+00  0.1616E+00
      2.674  0.0000E+00  0.0000E+00  0.1616E+00  0.1616E+00
      2.842  0.1378E-01  0.1378E-01  0.1624E+00  0.1624E+00
      3.009  0.3367E-01  0.3367E-01  0.1672E+00  0.1672E+00
      3.177  0.1317E-01  0.1317E-01  0.1715E+00  0.1715E+00
      3.344  0.2820E-01  0.2820E-01  0.1743E+00  0.1743E+00
      3.511  0.2431E-01  0.2431E-01  0.1796E+00  0.1796E+00
      3.679  0.7911E-02  0.7911E-02  0.1820E+00  0.1820E+00
      3.846  0.3516E-01  0.3516E-01  0.1865E+00  0.1865E+00
      4.014  0.1489E-01  0.1489E-01  0.1911E+00  0.1911E+00
      4.181  0.2535E-01  0.2535E-01  0.1944E+00  0.1944E+00
      4.348  0.1933E-01  0.1933E-01  0.1981E+00  0.1981E+00
      4.516  0.1846E-01  0.1846E-01  0.2016E+00  0.2016E+00
      4.683  0.1517E-01  0.1517E-01  0.2042E+00  0.2042E+00
      4.850  0.3277E-01  0.3277E-01  0.2082E+00  0.2082E+00
      5.018  0.1482E-01  0.1482E-01  0.2125E+00  0.2125E+00
      5.185  0.3263E-01  0.3263E-01  0.2156E+00  0.2156E+00
      5.353  0.1454E-01  0.1454E-01  0.2215E+00  0.2215E+00
      5.520  0.2069E-01  0.2069E-01  0.2235E+00  0.2235E+00
      5.687  0.3078E-01  0.3078E-01  0.2288E+00  0.2288E+00
      5.855  0.5498E-02  0.5498E-02  0.2325E+00  0.2325E+00
      6.022  0.3502E-01  0.3502E-01  0.2352E+00  0.2352E+00
      6.189  0.2467E-01  0.2467E-01  0.2406E+00  0.2406E+00
      6.357  0.1254E-01  0.1254E-01  0.2434E+00  0.2434E+00
      6.524  0.4426E-01  0.4426E-01  0.2485E+00  0.2485E+00
      6.692  0.9486E-02  0.9486E-02  0.2530E+00  0.2530E+00
      6.859  0.2562E-01  0.2562E-01  0.2551E+00  0.2551E+00
      7.026  0.2438E-01  0.2438E-01  0.2607E+00  0.2607E+00
      7.194  0.1509E-01  0.1509E-01  0.2631E+00  0.2631E+00
      7.361  0.2969E-01  0.2969E-01  0.2672E+00  0.2672E+00
      7.528  0.1450E-01  0.1450E-01  0.2716E+00  0.2716E+00
      7.696  0.2257E-01  0.2257E-01  0.2735E+00  0.2735E+00
      7.863  0.2706E-01  0.2706E-01  0.2792E+00  0.2792E+00
      8.031  0.1019E-01  0.1019E-01  0.2818E+00  0.2818E+00
      8.198  0.2062E-01  0.2062E-01  0.2841E+00  0.2841E+00
      8.365  0.2717E-01  0.2717E-01  0.2887E+00  0.2887E+00
      8.533  0.1252E-01  0.1252E-01  0.2921E+00  0.2921E+00
      8.700  0.1115E-01  0.1115E-01  0.2941E+00  0.2941E+00
      8.868  0.1492E-01  0.1492E-01  0.2963E+00  0.2963E+00
      9.035  0.2452E-01  0.2452E-01  0.2996E+00  0.2996E+00
      9.202  0.1753E-01  0.1753E-01  0.3029E+00  0.3029E+00
      9.370  0.1289E-01  0.1289E-01  0.3054E+00  0.3054E+00
      9.537  0.1326E-01  0.1326E-01  0.3075E+00  0.3075E+00
      9.704  0.2361E-01  0.2361E-01  0.3105E+00  0.3105E+00
      9.872  0.1180E-01  0.1180E-01  0.3134E+00  0.3134E+00
     10.039  0.8908E-02  0.8908E-02  0.3151E+00  0.3151E+00
     10.207  0.1274E-01  0.1274E-01  0.3167E+00  0.3167E+00
     10.374  0.1451E-01  0.1451E-01  0.3192E+00  0.3192E+00
     10.541  0.1026E-01  0.1026E-01  0.3212E+00  0.3212E+00
     10.709  0.5882E-02  0.5882E-02  0.3226E+00  0.3226E+00
     10.876  0.4882E-03  0.4882E-03  0.3232E+00  0.3232E+00
     11.043  0.0000E+00  0.0000E+00  0.3232E+00  0.3232E+00
     11.211  0.0000E+00  0.0000E+00  0.3232E+00  0.3232E+00
     11.378  0.0000E+00  0.0000E+00  0.3232E+00  0.3232E+00
     11.546  0.0000E+00  0.0000E+00  0.3232E+00  0.3232E+00
     11.713  0.0000E+00  0.0000E+00  0.3232E+00  0.3232E+00
     11.880  0.0000E+00  0.0000E+00  0.3232E+00  0.3232E+00
     12.048  0.0000E+00  0.0000E+00  0.3232E+00  0.3232E+00
     12.215  0.0000E+00  0.0000E+00  0.3232E+00  0.3232E+00
     12.382  0.0000E+00  0.0000E+00  0.3232E+00  0.3232E+00
     12.550  0.0000E+00  0.0000E+00  0.3232E+00  0.3232E+00
     12.717  0.0000E+00  0.0000E+00  0.3232E+00  0.3232E+00
     12.885  0.0000E+00  0.0000E+00  0.3232E+00  0.3232E+00
     13.052  0.0000E+00  0.0000E+00  0.3232E+00  0.3232E+00
     13.219  0.0000E+00  0.0000E+00  0.3232E+00  0.3232E+00
     13.21936338    -36.99436791  301     -0.96601571      1.00000000
    -36.994  0.0000E+00  0.0000E+00  0.0000E+00  0.0000E+00  0.0000E+00  0.0000E+00  0.0000E+00  0.0000E+00  0.0000E+00  0.0000E+00  0.0000E+00  0.0000E+00  0.0000E+00  0.0000E+00  0.0000E+00  0.0000E+00  0.0000E+00  0.0000E+00
    -36.827  0.0000E+00  0.0000E+00  0.0000E+00  0.0000E+00  0.0000E+00  0.0000E+00  0.0000E+00  0.0000E+00  0.0000E+00  0.0000E+00  0.0000E+00  0.0000E+00  0.0000E+00  0.0000E+00  0.0000E+00  0.0000E+00  0.0000E+00  0.0000E+00
    -36.660  0.0000E+00  0.0000E+00  0.0000E+00  0.0000E+00  0.0000E+00  0.0000E+00  0.0000E+00  0.0000E+00  0.0000E+00  0.0000E+00  0.0000E+00  0.0000E+00  0.0000E+00  0.0000E+00  0.0000E+00  0.0000E+00  0.0000E+00  0.0000E+00
    -36.492  0.0000E+00  0.0000E+00  0.0000E+00  0.0000E+00  0.0000E+00  0.0000E+00  0.0000E+00  0.0000E+00  0.0000E+00  0.0000E+00  0.0000E+00  0.0000E+00  0.0000E+00  0.0000E+00  0.0000E+00  0.0000E+00  0.0000E+00  0.0000E+00
    -36.325  0.0000E+00  0.0000E+00  0.0000E+00  0.0000E+00  0.0000E+00  0.0000E+00  0.0000E+00  0.0000E+00  0.0000E+00  0.0000E+00  0.0000E+00  0.0000E+00  0.0000E+00  0.0000E+00  0.0000E+00  0.0000E+00  0.0000E+00  0.0000E+00
    -36.157  0.0000E+00  0.0000E+00  0.0000E+00  0.0000E+00  0.0000E+00  0.0000E+00  0.0000E+00  0.0000E+00  0.0000E+00  0.0000E+00  0.0000E+00  0.0000E+00  0.0000E+00  0.0000E+00  0.0000E+00  0.0000E+00  0.0000E+00  0.0000E+00
    -35.990  0.0000E+00  0.0000E+00  0.0000E+00  0.0000E+00  0.0000E+00  0.0000E+00  0.0000E+00  0.0000E+00  0.0000E+00  0.0000E+00  0.0000E+00  0.0000E+00  0.0000E+00  0.0000E+00  0.0000E+00  0.0000E+00  0.0000E+00  0.0000E+00
    -35.823  0.0000E+00  0.0000E+00  0.0000E+00  0.0000E+00  0.0000E+00  0.0000E+00  0.0000E+00  0.0000E+00  0.0000E+00  0.0000E+00  0.0000E+00  0.0000E+00  0.0000E+00  0.0000E+00  0.0000E+00  0.0000E+00  0.0000E+00  0.0000E+00
    -35.655  0.0000E+00  0.0000E+00  0.0000E+00  0.0000E+00  0.0000E+00  0.0000E+00  0.0000E+00  0.0000E+00  0.0000E+00  0.0000E+00  0.0000E+00  0.0000E+00  0.0000E+00  0.0000E+00  0.0000E+00  0.0000E+00  0.0000E+00  0.0000E+00
    -35.488  0.0000E+00  0.0000E+00  0.0000E+00  0.0000E+00  0.0000E+00  0.0000E+00  0.0000E+00  0.0000E+00  0.0000E+00  0.0000E+00  0.0000E+00  0.0000E+00  0.0000E+00  0.0000E+00  0.0000E+00  0.0000E+00  0.0000E+00  0.0000E+00
    -35.321  0.0000E+00  0.0000E+00  0.0000E+00  0.0000E+00  0.0000E+00  0.0000E+00  0.0000E+00  0.0000E+00  0.0000E+00  0.0000E+00  0.0000E+00  0.0000E+00  0.0000E+00  0.0000E+00  0.0000E+00  0.0000E+00  0.0000E+00  0.0000E+00
    -35.153  0.0000E+00  0.0000E+00  0.0000E+00  0.0000E+00  0.0000E+00  0.0000E+00  0.0000E+00  0.0000E+00  0.0000E+00  0.0000E+00  0.0000E+00  0.0000E+00  0.0000E+00  0.0000E+00  0.0000E+00  0.0000E+00  0.0000E+00  0.0000E+00
    -34.986  0.0000E+00  0.0000E+00  0.0000E+00  0.0000E+00  0.0000E+00  0.0000E+00  0.0000E+00  0.0000E+00  0.0000E+00  0.0000E+00  0.0000E+00  0.0000E+00  0.0000E+00  0.0000E+00  0.0000E+00  0.0000E+00  0.0000E+00  0.0000E+00
    -34.818  0.0000E+00  0.0000E+00  0.0000E+00  0.0000E+00  0.0000E+00  0.0000E+00  0.0000E+00  0.0000E+00  0.0000E+00  0.0000E+00  0.0000E+00  0.0000E+00  0.0000E+00  0.0000E+00  0.0000E+00  0.0000E+00  0.0000E+00  0.0000E+00
    -34.651  0.0000E+00  0.0000E+00  0.0000E+00  0.0000E+00  0.0000E+00  0.0000E+00  0.0000E+00  0.0000E+00  0.0000E+00  0.0000E+00  0.0000E+00  0.0000E+00  0.0000E+00  0.0000E+00  0.0000E+00  0.0000E+00  0.0000E+00  0.0000E+00
    -34.484  0.0000E+00  0.0000E+00  0.0000E+00  0.0000E+00  0.0000E+00  0.0000E+00  0.0000E+00  0.0000E+00  0.0000E+00  0.0000E+00  0.0000E+00  0.0000E+00  0.0000E+00  0.0000E+00  0.0000E+00  0.0000E+00  0.0000E+00  0.0000E+00
    -34.316  0.0000E+00  0.0000E+00  0.0000E+00  0.0000E+00  0.0000E+00  0.0000E+00  0.0000E+00  0.0000E+00  0.0000E+00  0.0000E+00  0.0000E+00  0.0000E+00  0.0000E+00  0.0000E+00  0.0000E+00  0.0000E+00  0.0000E+00  0.0000E+00
    -34.149  0.0000E+00  0.0000E+00  0.0000E+00  0.0000E+00  0.0000E+00  0.0000E+00  0.0000E+00  0.0000E+00  0.0000E+00  0.0000E+00  0.0000E+00  0.0000E+00  0.0000E+00  0.0000E+00  0.0000E+00  0.0000E+00  0.0000E+00  0.0000E+00
    -33.982  0.0000E+00  0.0000E+00  0.0000E+00  0.0000E+00  0.0000E+00  0.0000E+00  0.0000E+00  0.0000E+00  0.0000E+00  0.0000E+00  0.0000E+00  0.0000E+00  0.0000E+00  0.0000E+00  0.0000E+00  0.0000E+00  0.0000E+00  0.0000E+00
    -33.814  0.0000E+00  0.0000E+00  0.0000E+00  0.0000E+00  0.0000E+00  0.0000E+00  0.0000E+00  0.0000E+00  0.0000E+00  0.0000E+00  0.0000E+00  0.0000E+00  0.0000E+00  0.0000E+00  0.0000E+00  0.0000E+00  0.0000E+00  0.0000E+00
    -33.647  0.0000E+00  0.0000E+00  0.0000E+00  0.0000E+00  0.0000E+00  0.0000E+00  0.0000E+00  0.0000E+00  0.0000E+00  0.0000E+00  0.0000E+00  0.0000E+00  0.0000E+00  0.0000E+00  0.0000E+00  0.0000E+00  0.0000E+00  0.0000E+00
    -33.479  0.0000E+00  0.0000E+00  0.0000E+00  0.0000E+00  0.0000E+00  0.0000E+00  0.0000E+00  0.0000E+00  0.0000E+00  0.0000E+00  0.0000E+00  0.0000E+00  0.0000E+00  0.0000E+00  0.0000E+00  0.0000E+00  0.0000E+00  0.0000E+00
    -33.312  0.0000E+00  0.0000E+00  0.0000E+00  0.0000E+00  0.0000E+00  0.0000E+00  0.0000E+00  0.0000E+00  0.0000E+00  0.0000E+00  0.0000E+00  0.0000E+00  0.0000E+00  0.0000E+00  0.0000E+00  0.0000E+00  0.0000E+00  0.0000E+00
    -33.145  0.0000E+00  0.0000E+00  0.0000E+00  0.0000E+00  0.0000E+00  0.0000E+00  0.0000E+00  0.0000E+00  0.0000E+00  0.0000E+00  0.0000E+00  0.0000E+00  0.0000E+00  0.0000E+00  0.0000E+00  0.0000E+00  0.0000E+00  0.0000E+00
    -32.977  0.0000E+00  0.0000E+00  0.0000E+00  0.0000E+00  0.0000E+00  0.0000E+00  0.0000E+00  0.0000E+00  0.0000E+00  0.0000E+00  0.0000E+00  0.0000E+00  0.0000E+00  0.0000E+00  0.0000E+00  0.0000E+00  0.0000E+00  0.0000E+00
    -32.810  0.0000E+00  0.0000E+00  0.0000E+00  0.0000E+00  0.0000E+00  0.0000E+00  0.0000E+00  0.0000E+00  0.0000E+00  0.0000E+00  0.0000E+00  0.0000E+00  0.0000E+00  0.0000E+00  0.0000E+00  0.0000E+00  0.0000E+00  0.0000E+00
    -32.643  0.0000E+00  0.0000E+00  0.0000E+00  0.0000E+00  0.0000E+00  0.0000E+00  0.0000E+00  0.0000E+00  0.0000E+00  0.0000E+00  0.0000E+00  0.0000E+00  0.0000E+00  0.0000E+00  0.0000E+00  0.0000E+00  0.0000E+00  0.0000E+00
    -32.475  0.0000E+00  0.0000E+00  0.0000E+00  0.0000E+00  0.0000E+00  0.0000E+00  0.0000E+00  0.0000E+00  0.0000E+00  0.0000E+00  0.0000E+00  0.0000E+00  0.0000E+00  0.0000E+00  0.0000E+00  0.0000E+00  0.0000E+00  0.0000E+00
    -32.308  0.0000E+00  0.0000E+00  0.0000E+00  0.0000E+00  0.0000E+00  0.0000E+00  0.0000E+00  0.0000E+00  0.0000E+00  0.0000E+00  0.0000E+00  0.0000E+00  0.0000E+00  0.0000E+00  0.0000E+00  0.0000E+00  0.0000E+00  0.0000E+00
    -32.140  0.0000E+00  0.0000E+00  0.0000E+00  0.0000E+00  0.0000E+00  0.0000E+00  0.0000E+00  0.0000E+00  0.0000E+00  0.0000E+00  0.0000E+00  0.0000E+00  0.0000E+00  0.0000E+00  0.0000E+00  0.0000E+00  0.0000E+00  0.0000E+00
    -31.973  0.0000E+00  0.0000E+00  0.0000E+00  0.0000E+00  0.0000E+00  0.0000E+00  0.0000E+00  0.0000E+00  0.0000E+00  0.0000E+00  0.0000E+00  0.0000E+00  0.0000E+00  0.0000E+00  0.0000E+00  0.0000E+00  0.0000E+00  0.0000E+00
    -31.806  0.0000E+00  0.0000E+00  0.0000E+00  0.0000E+00  0.0000E+00  0.0000E+00  0.0000E+00  0.0000E+00  0.0000E+00  0.0000E+00  0.0000E+00  0.0000E+00  0.0000E+00  0.0000E+00  0.0000E+00  0.0000E+00  0.0000E+00  0.0000E+00
    -31.638  0.0000E+00  0.0000E+00  0.0000E+00  0.0000E+00  0.0000E+00  0.0000E+00  0.0000E+00  0.0000E+00  0.0000E+00  0.0000E+00  0.0000E+00  0.0000E+00  0.0000E+00  0.0000E+00  0.0000E+00  0.0000E+00  0.0000E+00  0.0000E+00
    -31.471  0.0000E+00  0.0000E+00  0.0000E+00  0.0000E+00  0.0000E+00  0.0000E+00  0.0000E+00  0.0000E+00  0.0000E+00  0.0000E+00  0.0000E+00  0.0000E+00  0.0000E+00  0.0000E+00  0.0000E+00  0.0000E+00  0.0000E+00  0.0000E+00
    -31.303  0.0000E+00  0.0000E+00  0.0000E+00  0.0000E+00  0.0000E+00  0.0000E+00  0.0000E+00  0.0000E+00  0.0000E+00  0.0000E+00  0.0000E+00  0.0000E+00  0.0000E+00  0.0000E+00  0.0000E+00  0.0000E+00  0.0000E+00  0.0000E+00
    -31.136  0.0000E+00  0.0000E+00  0.0000E+00  0.0000E+00  0.0000E+00  0.0000E+00  0.0000E+00  0.0000E+00  0.0000E+00  0.0000E+00  0.0000E+00  0.0000E+00  0.0000E+00  0.0000E+00  0.0000E+00  0.0000E+00  0.0000E+00  0.0000E+00
    -30.969  0.0000E+00  0.0000E+00  0.0000E+00  0.0000E+00  0.0000E+00  0.0000E+00  0.0000E+00  0.0000E+00  0.0000E+00  0.0000E+00  0.0000E+00  0.0000E+00  0.0000E+00  0.0000E+00  0.0000E+00  0.0000E+00  0.0000E+00  0.0000E+00
    -30.801  0.0000E+00  0.0000E+00  0.0000E+00  0.0000E+00  0.0000E+00  0.0000E+00  0.0000E+00  0.0000E+00  0.0000E+00  0.0000E+00  0.0000E+00  0.0000E+00  0.0000E+00  0.0000E+00  0.0000E+00  0.0000E+00  0.0000E+00  0.0000E+00
    -30.634  0.0000E+00  0.0000E+00  0.0000E+00  0.0000E+00  0.0000E+00  0.0000E+00  0.0000E+00  0.0000E+00  0.0000E+00  0.0000E+00  0.0000E+00  0.0000E+00  0.0000E+00  0.0000E+00  0.0000E+00  0.0000E+00  0.0000E+00  0.0000E+00
    -30.467  0.0000E+00  0.0000E+00  0.0000E+00  0.0000E+00  0.0000E+00  0.0000E+00  0.0000E+00  0.0000E+00  0.0000E+00  0.0000E+00  0.0000E+00  0.0000E+00  0.0000E+00  0.0000E+00  0.0000E+00  0.0000E+00  0.0000E+00  0.0000E+00
    -30.299  0.0000E+00  0.0000E+00  0.0000E+00  0.0000E+00  0.0000E+00  0.0000E+00  0.0000E+00  0.0000E+00  0.0000E+00  0.0000E+00  0.0000E+00  0.0000E+00  0.0000E+00  0.0000E+00  0.0000E+00  0.0000E+00  0.0000E+00  0.0000E+00
    -30.132  0.0000E+00  0.0000E+00  0.0000E+00  0.0000E+00  0.0000E+00  0.0000E+00  0.0000E+00  0.0000E+00  0.0000E+00  0.0000E+00  0.0000E+00  0.0000E+00  0.0000E+00  0.0000E+00  0.0000E+00  0.0000E+00  0.0000E+00  0.0000E+00
    -29.964  0.0000E+00  0.0000E+00  0.0000E+00  0.0000E+00  0.0000E+00  0.0000E+00  0.0000E+00  0.0000E+00  0.0000E+00  0.0000E+00  0.0000E+00  0.0000E+00  0.0000E+00  0.0000E+00  0.0000E+00  0.0000E+00  0.0000E+00  0.0000E+00
    -29.797  0.0000E+00  0.0000E+00  0.0000E+00  0.0000E+00  0.0000E+00  0.0000E+00  0.0000E+00  0.0000E+00  0.0000E+00  0.0000E+00  0.0000E+00  0.0000E+00  0.0000E+00  0.0000E+00  0.0000E+00  0.0000E+00  0.0000E+00  0.0000E+00
    -29.630  0.0000E+00  0.0000E+00  0.0000E+00  0.0000E+00  0.0000E+00  0.0000E+00  0.0000E+00  0.0000E+00  0.0000E+00  0.0000E+00  0.0000E+00  0.0000E+00  0.0000E+00  0.0000E+00  0.0000E+00  0.0000E+00  0.0000E+00  0.0000E+00
    -29.462  0.0000E+00  0.0000E+00  0.0000E+00  0.0000E+00  0.0000E+00  0.0000E+00  0.0000E+00  0.0000E+00  0.0000E+00  0.0000E+00  0.0000E+00  0.0000E+00  0.0000E+00  0.0000E+00  0.0000E+00  0.0000E+00  0.0000E+00  0.0000E+00
    -29.295  0.0000E+00  0.0000E+00  0.0000E+00  0.0000E+00  0.0000E+00  0.0000E+00  0.0000E+00  0.0000E+00  0.0000E+00  0.0000E+00  0.0000E+00  0.0000E+00  0.0000E+00  0.0000E+00  0.0000E+00  0.0000E+00  0.0000E+00  0.0000E+00
    -29.128  0.0000E+00  0.0000E+00  0.0000E+00  0.0000E+00  0.0000E+00  0.0000E+00  0.0000E+00  0.0000E+00  0.0000E+00  0.0000E+00  0.0000E+00  0.0000E+00  0.0000E+00  0.0000E+00  0.0000E+00  0.0000E+00  0.0000E+00  0.0000E+00
    -28.960  0.0000E+00  0.0000E+00  0.0000E+00  0.0000E+00  0.0000E+00  0.0000E+00  0.0000E+00  0.0000E+00  0.0000E+00  0.0000E+00  0.0000E+00  0.0000E+00  0.0000E+00  0.0000E+00  0.0000E+00  0.0000E+00  0.0000E+00  0.0000E+00
    -28.793  0.0000E+00  0.0000E+00  0.0000E+00  0.0000E+00  0.0000E+00  0.0000E+00  0.0000E+00  0.0000E+00  0.0000E+00  0.0000E+00  0.0000E+00  0.0000E+00  0.0000E+00  0.0000E+00  0.0000E+00  0.0000E+00  0.0000E+00  0.0000E+00
    -28.625  0.0000E+00  0.0000E+00  0.0000E+00  0.0000E+00  0.0000E+00  0.0000E+00  0.0000E+00  0.0000E+00  0.0000E+00  0.0000E+00  0.0000E+00  0.0000E+00  0.0000E+00  0.0000E+00  0.0000E+00  0.0000E+00  0.0000E+00  0.0000E+00