Automatically generated mesh
      63
Reciprocal lattice
    0.00000000000000    0.00000000000000    0.00000000000000             1
    0.20000000000000    0.00000000000000    0.00000000000000             2
    0.40000000000000    0.00000000000000    0.00000000000000             2
    0.00000000000000    0.20000000000000    0.00000000000000             2
    0.20000000000000    0.20000000000000    0.00000000000000             2
    0.40000000000000    0.20000000000000    0.00000000000000             2
   -0.40000000000000    0.20000000000000    0.00000000000000             2
   -0.20000000000000    0.20000000000000    0.00000000000000             2
    0.00000000000000    0.40000000000000    0.00000000000000             2
    0.20000000000000    0.40000000000000    0.00000000000000             2
    0.40000000000000    0.40000000000000    0.00000000000000             2
   -0.40000000000000    0.40000000000000    0.00000000000000             2
   -0.20000000000000    0.40000000000000    0.00000000000000             2
    0.00000000000000    0.00000000000000    0.20000000000000             2
    0.20000000000000    0.00000000000000    0.20000000000000             2
    0.40000000000000    0.00000000000000    0.20000000000000             2
   -0.40000000000000    0.00000000000000    0.20000000000000             2
   -0.20000000000000    0.00000000000000    0.20000000000000             2
    0.00000000000000    0.20000000000000    0.20000000000000             2
    0.20000000000000    0.20000000000000    0.20000000000000             2
    0.40000000000000    0.20000000000000    0.20000000000000             2
   -0.40000000000000    0.20000000000000    0.20000000000000             2
   -0.20000000000000    0.20000000000000    0.20000000000000             2
    0.00000000000000    0.40000000000000    0.20000000000000             2
    0.20000000000000    0.40000000000000    0.20000000000000             2
    0.40000000000000    0.40000000000000    0.20000000000000             2
   -0.40000000000000    0.40000000000000    0.20000000000000             2
   -0.20000000000000    0.40000000000000    0.20000000000000             2
    0.00000000000000   -0.40000000000000    0.20000000000000             2
    0.20000000000000   -0.40000000000000    0.20000000000000             2
    0.40000000000000   -0.40000000000000    0.20000000000000             2
   -0.40000000000000   -0.40000000000000    0.20000000000000             2
   -0.20000000000000   -0.40000000000000    0.20000000000000             2
    0.00000000000000   -0.20000000000000    0.20000000000000             2
    0.20000000000000   -0.20000000000000    0.20000000000000             2
    0.40000000000000   -0.20000000000000    0.20000000000000             2
   -0.40000000000000   -0.20000000000000    0.20000000000000             2
   -0.20000000000000   -0.20000000000000    0.20000000000000             2
    0.00000000000000    0.00000000000000    0.40000000000000             2
    0.20000000000000    0.00000000000000    0.40000000000000             2
    0.40000000000000    0.00000000000000    0.40000000000000             2
   -0.40000000000000    0.00000000000000    0.40000000000000             2
   -0.20000000000000    0.00000000000000    0.40000000000000             2
    0.00000000000000    0.20000000000000    0.40000000000000             2
    0.20000000000000    0.20000000000000    0.40000000000000             2
    0.40000000000000    0.20000000000000    0.40000000000000             2
   -0.40000000000000    0.20000000000000    0.40000000000000             2
   -0.20000000000000    0.20000000000000    0.40000000000000             2
    0.00000000000000    0.40000000000000    0.40000000000000             2
    0.20000000000000    0.40000000000000    0.40000000000000             2
    0.40000000000000    0.40000000000000    0.40000000000000             2
   -0.40000000000000    0.40000000000000    0.40000000000000             2
   -0.20000000000000    0.40000000000000    0.40000000000000             2
    0.00000000000000   -0.40000000000000    0.40000000000000             2
    0.20000000000000   -0.40000000000000    0.40000000000000             2
    0.40000000000000   -0.40000000000000    0.40000000000000             2
   -0.40000000000000   -0.40000000000000    0.40000000000000             2
   -0.20000000000000   -0.40000000000000    0.40000000000000             2
    0.00000000000000   -0.20000000000000    0.40000000000000             2
    0.20000000000000   -0.20000000000000    0.40000000000000             2
    0.40000000000000   -0.20000000000000    0.40000000000000             2
   -0.40000000000000   -0.20000000000000    0.40000000000000             2
   -0.20000000000000   -0.20000000000000    0.40000000000000             2
Tetrahedra
       372    0.00133333333333
         2         1         2         4        15
         2         2         4         5        15
         2         4         5        15        20
         2         1         4        14        15
         2         4        14        15        19
         2         4        15        19        20
         2         2         3         5        16
         2         3         5         6        16
         2         5         6        16        21
         2         2         5        15        16
         2         5        15        16        20
         2         5        16        20        21
         2         3         3         6        17
         2         3         6         7        17
         2         6         7        17        22
         2         3         6        16        17
         2         6        16        17        21
         2         6        17        21        22
         2         2         3         7        18
         2         2         7         8        18
         2         7         8        18        23
         2         3         7        17        18
         2         7        17        18        22
         2         7        18        22        23
         2         1         2         8        14
         2         1         4         8        14
         2         4         8        14        19
         2         2         8        14        18
         2         8        14        18        23
         2         8        14        19        23
         2         4         5         9        20
         2         5         9        10        20
         2         9        10        20        25
         2         4         9        19        20
         2         9        19        20        24
         2         9        20        24        25
         2         5         6        10        21
         2         6        10        11        21
         2        10        11        21        26
         2         5        10        20        21
         2        10        20        21        25
         2        10        21        25        26
         2         6         7        11        22
         2         7        11        12        22
         2        11        12        22        27
         2         6        11        21        22
         2        11        21        22        26
         2        11        22        26        27
         2         7         8        12        23
         2         8        12        13        23
         2        12        13        23        28
         2         7        12        22        23
         2        12        22        23        27
         2        12        23        27        28
         2         4         8        13        19
         2         4         9        13        19
         2         9        13        19        24
         2         8        13        19        23
         2        13        19        23        28
         2        13        19        24        28
         2         9         9        10        25
         2         9        10        13        25
         2         9        13        25        30
         2         9         9        24        25
         2         9        24        25        29
         2         9        25        29        30
         2        10        11        13        26
         2        11        12        13        26
         2        12        13        26        31
         2        10        13        25        26
         2        13        25        26        30
         2        13        26        30        31
         4        11        12        12        27
         2        11        12        27        32
         2        11        12        26        27
         2        12        26        27        31
         2        12        27        31        32
         2        11        12        13        28
         2        10        11        13        28
         2        10        11        28        33
         2        11        12        27        28
         2        11        27        28        32
         2        11        28        32        33
         2         9        10        13        24
         2         9         9        10        24
         2         9        10        24        29
         2        10        13        24        28
         2        10        24        28        33
         2        10        24        29        33
         2         4         9        13        30
         2         4         8        13        30
         2         4         8        30        35
         2         4         9        29        30
         2         4        29        30        34
         2         4        30        34        35
         2         8        12        13        31
         2         7         8        12        31
         2         7         8        31        36
         2         8        13        30        31
         2         8        30        31        35
         2         8        31        35        36
         2         7        11        12        32
         2         6         7        11        32
         2         6         7        32        37
         2         7        12        31        32
         2         7        31        32        36
         2         7        32        36        37
         2         6        10        11        33
         2         5         6        10        33
         2         5         6        33        38
         2         6        11        32        33
         2         6        32        33        37
         2         6        33        37        38
         2         5         9        10        29
         2         4         5         9        29
         2         4         5        29        34
         2         5        10        29        33
         2         5        29        33        38
         2         5        29        34        38
         2         1         4         8        35
         2         1         2         8        35
         2         1         2        15        35
         2         1         4        34        35
         2         1        14        34        35
         2         1        14        15        35
         2         2         7         8        36
         2         2         3         7        36
         2         2         3        16        36
         2         2         8        35        36
         2         2        15        35        36
         2         2        15        16        36
         2         3         6         7        37
         2         3         3         6        37
         2         3         3        17        37
         2         3         7        36        37
         2         3        16        36        37
         2         3        16        17        37
         2         3         5         6        38
         2         2         3         5        38
         2         2         3        18        38
         2         3         6        37        38
         2         3        17        37        38
         2         3        17        18        38
         2         2         4         5        34
         2         1         2         4        34
         2         1         2        14        34
         2         2         5        34        38
         2         2        18        34        38
         2         2        14        18        34
         2        14        15        19        40
         2        15        19        20        40
         2        19        20        40        45
         2        14        19        39        40
         2        19        39        40        44
         2        19        40        44        45
         2        15        16        20        41
         2        16        20        21        41
         2        20        21        41        46
         2        15        20        40        41
         2        20        40        41        45
         2        20        41        45        46
         2        16        17        21        42
         2        17        21        22        42
         2        21        22        42        47
         2        16        21        41        42
         2        21        41        42        46
         2        21        42        46        47
         2        17        18        22        43
         2        18        22        23        43
         2        22        23        43        48
         2        17        22        42        43
         2        22        42        43        47
         2        22        43        47        48
         2        14        18        23        39
         2        14        19        23        39
         2        19        23        39        44
         2        18        23        39        43
         2        23        39        43        48
         2        23        39        44        48
         2        19        20        24        45
         2        20        24        25        45
         2        24        25        45        50
         2        19        24        44        45
         2        24        44        45        49
         2        24        45        49        50
         2        20        21        25        46
         2        21        25        26        46
         2        25        26        46        51
         2        20        25        45        46
         2        25        45        46        50
         2        25        46        50        51
         2        21        22        26        47
         2        22        26        27        47
         2        26        27        47        52
         2        21        26        46        47
         2        26        46        47        51
         2        26        47        51        52
         2        22        23        27        48
         2        23        27        28        48
         2        27        28        48        53
         2        22        27        47        48
         2        27        47        48        52
         2        27        48        52        53
         2        19        23        28        44
         2        19        24        28        44
         2        24        28        44        49
         2        23        28        44        48
         2        28        44        48        53
         2        28        44        49        53
         2        24        25        29        50
         2        25        29        30        50
         2        29        30        50        55
         2        24        29        49        50
         2        29        49        50        54
         2        29        50        54        55
         2        25        26        30        51
         2        26        30        31        51
         2        30        31        51        56
         2        25        30        50        51
         2        30        50        51        55
         2        30        51        55        56
         2        26        27        31        52
         2        27        31        32        52
         2        31        32        52        57
         2        26        31        51        52
         2        31        51        52        56
         2        31        52        56        57
         2        27        28        32        53
         2        28        32        33        53
         2        32        33        53        58
         2        27        32        52        53
         2        32        52        53        57
         2        32        53        57        58
         2        24        28        33        49
         2        24        29        33        49
         2        29        33        49        54
         2        28        33        49        53
         2        33        49        53        58
         2        33        49        54        58
         2        29        30        34        55
         2        30        34        35        55
         2        34        35        55        60
         2        29        34        54        55
         2        34        54        55        59
         2        34        55        59        60
         2        30        31        35        56
         2        31        35        36        56
         2        35        36        56        61
         2        30        35        55        56
         2        35        55        56        60
         2        35        56        60        61
         2        31        32        36        57
         2        32        36        37        57
         2        36        37        57        62
         2        31        36        56        57
         2        36        56        57        61
         2        36        57        61        62
         2        32        33        37        58
         2        33        37        38        58
         2        37        38        58        63
         2        32        37        57        58
         2        37        57        58        62
         2        37        58        62        63
         2        29        33        38        54
         2        29        34        38        54
         2        34        38        54        59
         2        33        38        54        58
         2        38        54        58        63
         2        38        54        59        63
         2        14        34        35        60
         2        14        15        35        60
         2        14        15        40        60
         2        14        34        59        60
         2        14        39        59        60
         2        14        39        40        60
         2        15        35        36        61
         2        15        16        36        61
         2        15        16        41        61
         2        15        35        60        61
         2        15        40        60        61
         2        15        40        41        61
         2        16        36        37        62
         2        16        17        37        62
         2        16        17        42        62
         2        16        36        61        62
         2        16        41        61        62
         2        16        41        42        62
         2        17        37        38        63
         2        17        18        38        63
         2        17        18        43        63
         2        17        37        62        63
         2        17        42        62        63
         2        17        42        43        63
         2        18        34        38        59
         2        14        18        34        59
         2        14        18        39        59
         2        18        38        59        63
         2        18        43        59        63
         2        18        39        43        59
         2        39        40        43        44
         2        40        43        44        45
         2        43        44        45        63
         2        39        39        43        44
         2        39        43        44        59
         2        43        44        59        63
         2        40        41        42        45
         2        41        42        45        46
         2        42        45        46        62
         2        40        42        43        45
         2        42        43        45        63
         2        42        45        62        63
         4        41        41        42        46
         2        41        42        46        47
         2        41        46        47        61
         2        41        42        46        62
         2        41        46        61        62
         2        40        42        43        47
         2        40        43        47        48
         2        40        47        48        60
         2        40        41        42        47
         2        40        41        47        61
         2        40        47        60        61
         2        39        39        43        48
         2        39        39        44        48
         2        39        44        48        59
         2        39        40        43        48
         2        39        40        48        60
         2        39        48        59        60
         2        44        45        49        63
         2        45        49        50        63
         2        49        50        58        63
         2        44        49        59        63
         2        49        54        59        63
         2        49        54        58        63
         2        45        46        50        62
         2        46        50        51        62
         2        50        51        57        62
         2        45        50        62        63
         2        50        58        62        63
         2        50        57        58        62
         2        46        47        51        61
         2        47        51        52        61
         2        51        52        56        61
         2        46        51        61        62
         2        51        57        61        62
         2        51        56        57        61
         2        47        48        52        60
         2        48        52        53        60
         2        52        53        55        60
         2        47        52        60        61
         2        52        56        60        61
         2        52        55        56        60
         2        44        48        53        59
         2        44        49        53        59
         2        49        53        54        59
         2        48        53        59        60
         2        53        55        59        60
         2        53        54        55        59
         2        49        50        54        58
         2        50        54        55        58
         2        53        54        55        58
         4        49        54        54        58
         2        49        53        54        58
         2        50        51        55        57
         2        51        55        56        57
         2        52        55        56        57
         2        50        55        57        58
         2        53        55        57        58
         2        52        53        55        57
         2        51        52        56        56
         2        52        56        56        57
         2        51        56        56        57
