 running on   32 total cores
 distrk:  each k-point on   32 cores,    1 groups
 distr:  one band on    8 cores,    4 groups
 using from now: INCAR     
 vasp.5.4.4.18Apr17-6-g9f103f2a35 (build Nov 01 2019 12:17:22) complex          
  
 POSCAR found type information on POSCAR  H  Nb H  Sr Nb H 
 POSCAR found :  6 types and      10 ions
 LDA part: xc-table for Pade appr. of Perdew
 generate k-points for:    7    9   11
 POSCAR, INCAR and KPOINTS ok, starting setup
 FFT: planning ...
 WAVECAR not read
 entering main loop
       N       E                     dE             d eps       ncg     rms          rms(c)
DAV:   1     0.213300725651E+03    0.21330E+03   -0.13220E+04 20056   0.780E+02
DAV:   2    -0.342634972652E+02   -0.24756E+03   -0.24116E+03 23436   0.353E+02
DAV:   3    -0.490673785854E+02   -0.14804E+02   -0.14602E+02 32824   0.727E+01
DAV:   4    -0.497324002506E+02   -0.66502E+00   -0.66265E+00 31928   0.120E+01
DAV:   5    -0.497461676673E+02   -0.13767E-01   -0.13759E-01 32060   0.151E+00    0.386E+01
DAV:   6    -0.470926795748E+02    0.26535E+01   -0.59846E+00 29760   0.163E+01    0.169E+01
DAV:   7    -0.465928083119E+02    0.49987E+00   -0.20803E+00 28688   0.102E+01    0.604E+00
DAV:   8    -0.465608701050E+02    0.31938E-01   -0.12804E+00 29408   0.809E+00    0.329E+00
DAV:   9    -0.465318513825E+02    0.29019E-01   -0.27827E-01 30464   0.432E+00    0.151E+00
DAV:  10    -0.465334977452E+02   -0.16464E-02   -0.27098E-02 30712   0.101E+00    0.180E-01
DAV:  11    -0.465337760419E+02   -0.27830E-03   -0.33388E-03 26936   0.460E-01    0.111E-01
DAV:  12    -0.465339562077E+02   -0.18017E-03   -0.39522E-04 22128   0.169E-01    0.401E-02
DAV:  13    -0.465340827291E+02   -0.12652E-03   -0.14633E-04 20360   0.781E-02    0.118E-02
DAV:  14    -0.465340972203E+02   -0.14491E-04   -0.17017E-05 14444   0.327E-02
   1 F= -.46534097E+02 E0= -.46534018E+02  d E =-.465341E+02
 curvature:   0.00 expect dE= 0.000E+00 dE for cont linesearch  0.000E+00
 trial: gam= 0.00000 g(F)=  0.399E-03 g(S)=  0.704E-03 ort = 0.000E+00 (trialstep = 0.100E+01)
 search vector abs. value=  0.110E-02
 bond charge predicted
       N       E                     dE             d eps       ncg     rms          rms(c)
DAV:   1    -0.465358068472E+02   -0.17241E-02   -0.68201E-02 20752   0.222E+00    0.440E-01
DAV:   2    -0.465350269792E+02    0.77987E-03   -0.10314E-02 24836   0.798E-01    0.125E-01
DAV:   3    -0.465348918116E+02    0.13517E-03   -0.17241E-03 30528   0.360E-01    0.804E-02
DAV:   4    -0.465347885755E+02    0.10324E-03   -0.57536E-04 16280   0.217E-01    0.663E-02
DAV:   5    -0.465347716667E+02    0.16909E-04   -0.11788E-04 16180   0.781E-02
   2 F= -.46534772E+02 E0= -.46534687E+02  d E =-.674446E-03
 trial-energy change:   -0.000674  1 .order   -0.000744   -0.001103   -0.000385
 step:   1.5360(harm=  1.5360)  dis= 0.00280  next Energy=   -46.534945 (dE=-0.847E-03)
 bond charge predicted
       N       E                     dE             d eps       ncg     rms          rms(c)
DAV:   1    -0.465351201060E+02   -0.33153E-03   -0.19442E-02 20136   0.119E+00    0.225E-01
DAV:   2    -0.465348652628E+02    0.25484E-03   -0.29505E-03 24636   0.430E-01    0.638E-02
DAV:   3    -0.465348129251E+02    0.52338E-04   -0.40365E-04 13972   0.193E-01
   3 F= -.46534813E+02 E0= -.46534723E+02  d E =-.715705E-03
 curvature:  -0.77 expect dE=-0.622E-03 dE for cont linesearch -0.162E-04
 trial: gam= 0.59576 g(F)=  0.565E-03 g(S)=  0.246E-03 ort = 0.153E-03 (trialstep = 0.883E+00)
 search vector abs. value=  0.138E-02
 reached required accuracy - stopping structural energy minimisation
