       N       E                     dE             d eps       ncg     rms          rms(c)
DAV:   1     0.483495113573E+03    0.48350E+03   -0.28484E+04  7168   0.938E+02
DAV:   2    -0.632278916538E+02   -0.54672E+03   -0.50142E+03  7168   0.322E+02
DAV:   3    -0.995396604482E+02   -0.36312E+02   -0.35209E+02 11792   0.851E+01
DAV:   4    -0.100787615871E+03   -0.12480E+01   -0.12374E+01 10240   0.110E+01
DAV:   5    -0.100824613166E+03   -0.36997E-01   -0.36507E-01 11744   0.161E+00    0.536E+01
RMM:   6    -0.102352971082E+03   -0.15284E+01   -0.10686E+01  7896   0.107E+01    0.236E+01
RMM:   7    -0.102344198621E+03    0.87725E-02   -0.29133E+00  7670   0.713E+00    0.715E+00
RMM:   8    -0.102383630273E+03   -0.39432E-01   -0.41395E-01  7782   0.378E+00    0.415E+00
RMM:   9    -0.102378927626E+03    0.47026E-02   -0.75797E-02  7488   0.114E+00    0.193E+00
RMM:  10    -0.102385817966E+03   -0.68903E-02   -0.20965E-02  6918   0.915E-01    0.993E-01
RMM:  11    -0.102389147150E+03   -0.33292E-02   -0.63877E-03  6492   0.403E-01    0.356E-01
RMM:  12    -0.102389624060E+03   -0.47691E-03   -0.16844E-03  5574   0.304E-01
   1 F= -.10238962E+03 E0= -.10238962E+03  d E =-.102390E+03  mag=     0.0088
       N       E                     dE             d eps       ncg     rms          rms(c)
DAV:   1    -0.102750027284E+03   -0.36088E+00   -0.52814E+00  8800   0.128E+01    0.664E+00
RMM:   2    -0.102531138403E+03    0.21889E+00   -0.71327E-01  7882   0.369E+00    0.122E+00
RMM:   3    -0.102503715525E+03    0.27423E-01   -0.60913E-02  7789   0.164E+00    0.714E-01
RMM:   4    -0.102498332906E+03    0.53826E-02   -0.13697E-02  7292   0.595E-01    0.707E-01
RMM:   5    -0.102497332429E+03    0.10005E-02   -0.35772E-03  5761   0.347E-01
   2 F= -.10249733E+03 E0= -.10249733E+03  d E =-.107708E+00  mag=     0.0002
       N       E                     dE             d eps       ncg     rms          rms(c)
DAV:   1    -0.103019415530E+03   -0.52108E+00   -0.10141E+01  7168   0.177E+01    0.894E+00
RMM:   2    -0.102583206986E+03    0.43621E+00   -0.13320E+00  7733   0.511E+00    0.170E+00
RMM:   3    -0.102529949847E+03    0.53257E-01   -0.11629E-01  7711   0.238E+00    0.101E+00
RMM:   4    -0.102520517744E+03    0.94321E-02   -0.28775E-02  7820   0.834E-01    0.102E+00
RMM:   5    -0.102518949606E+03    0.15681E-02   -0.67211E-03  6649   0.472E-01    0.845E-01
RMM:   6    -0.102519409501E+03   -0.45989E-03   -0.88286E-03  7085   0.337E-01
   3 F= -.10251941E+03 E0= -.10251941E+03  d E =-.129785E+00  mag=     0.0000
       N       E                     dE             d eps       ncg     rms          rms(c)
DAV:   1    -0.102392882829E+03    0.12607E+00   -0.14212E+01  8064   0.246E+01    0.267E+00
RMM:   2    -0.102568492443E+03   -0.17561E+00   -0.19668E+00  7577   0.533E+00    0.175E+00
RMM:   3    -0.102562205267E+03    0.62872E-02   -0.15172E-01  7326   0.357E+00    0.593E-01
RMM:   4    -0.102565312402E+03   -0.31071E-02   -0.30537E-02  7221   0.635E-01    0.448E-01
RMM:   5    -0.102565207078E+03    0.10532E-03   -0.93800E-04  5372   0.262E-01
   4 F= -.10256521E+03 E0= -.10256521E+03  d E =-.457976E-01  mag=     0.0000
       N       E                     dE             d eps       ncg     rms          rms(c)
DAV:   1    -0.102560459218E+03    0.48532E-02   -0.17730E+00  8064   0.874E+00    0.864E-01
RMM:   2    -0.102583598652E+03   -0.23139E-01   -0.25892E-01  7365   0.192E+00    0.564E-01
RMM:   3    -0.102582539774E+03    0.10589E-02   -0.19495E-02  6768   0.129E+00    0.224E-01
RMM:   4    -0.102582854149E+03   -0.31438E-03   -0.36460E-03  5668   0.250E-01
   5 F= -.10258285E+03 E0= -.10258285E+03  d E =-.634446E-01  mag=    -0.0000
       N       E                     dE             d eps       ncg     rms          rms(c)
DAV:   1    -0.102618532380E+03   -0.35993E-01   -0.20555E+00  8304   0.735E+00    0.103E+00
RMM:   2    -0.102626775350E+03   -0.82430E-02   -0.16575E-01  7977   0.157E+00    0.793E-01
RMM:   3    -0.102624302772E+03    0.24726E-02   -0.11706E-02  6624   0.932E-01    0.346E-01
RMM:   4    -0.102624282335E+03    0.20437E-04   -0.28442E-03  5803   0.260E-01
   6 F= -.10262428E+03 E0= -.10262428E+03  d E =-.414282E-01  mag=    -0.0000
       N       E                     dE             d eps       ncg     rms          rms(c)
DAV:   1    -0.102626239021E+03   -0.19362E-02   -0.21403E-01  9824   0.237E+00    0.363E-01
RMM:   2    -0.102627182710E+03   -0.94369E-03   -0.17786E-02  7274   0.518E-01    0.238E-01
RMM:   3    -0.102626992846E+03    0.18986E-03   -0.13097E-03  4087   0.359E-01
   7 F= -.10262699E+03 E0= -.10262699E+03  d E =-.441387E-01  mag=    -0.0000
       N       E                     dE             d eps       ncg     rms          rms(c)
DAV:   1    -0.102678741461E+03   -0.51559E-01   -0.16684E+00  8064   0.713E+00    0.179E+00
RMM:   2    -0.102659318868E+03    0.19423E-01   -0.19279E-01  7798   0.196E+00    0.585E-01
RMM:   3    -0.102656432145E+03    0.28867E-02   -0.12761E-02  6977   0.923E-01    0.574E-01
RMM:   4    -0.102656207360E+03    0.22478E-03   -0.24237E-03  5684   0.280E-01
   8 F= -.10265621E+03 E0= -.10265621E+03  d E =-.292145E-01  mag=    -0.0000
       N       E                     dE             d eps       ncg     rms          rms(c)
DAV:   1    -0.102692090604E+03   -0.35658E-01   -0.20310E+00  8064   0.784E+00    0.188E+00
RMM:   2    -0.102667693694E+03    0.24397E-01   -0.23385E-01  7772   0.215E+00    0.731E-01
RMM:   3    -0.102664134132E+03    0.35596E-02   -0.16200E-02  7358   0.103E+00    0.661E-01
RMM:   4    -0.102663720995E+03    0.41314E-03   -0.33186E-03  6164   0.304E-01
   9 F= -.10266372E+03 E0= -.10266372E+03  d E =-.367281E-01  mag=     0.0000
       N       E                     dE             d eps       ncg     rms          rms(c)
DAV:   1    -0.102717796600E+03   -0.53662E-01   -0.96971E-01  9376   0.536E+00    0.206E+00
RMM:   2    -0.102686112693E+03    0.31684E-01   -0.11907E-01  7354   0.167E+00    0.597E-01
RMM:   3    -0.102683646445E+03    0.24662E-02   -0.11076E-02  7155   0.772E-01    0.556E-01
RMM:   4    -0.102683113580E+03    0.53287E-03   -0.24687E-03  5722   0.274E-01
  10 F= -.10268311E+03 E0= -.10268311E+03  d E =-.193926E-01  mag=    -0.0000
       N       E                     dE             d eps       ncg     rms          rms(c)
DAV:   1    -0.103020409011E+03   -0.33676E+00   -0.88010E+00  8064   0.161E+01    0.654E+00
RMM:   2    -0.102741334575E+03    0.27907E+00   -0.10778E+00  7325   0.507E+00    0.152E+00
RMM:   3    -0.102721318726E+03    0.20016E-01   -0.10562E-01  7781   0.226E+00    0.141E+00
RMM:   4    -0.102716908243E+03    0.44105E-02   -0.19750E-02  7677   0.636E-01    0.125E+00
RMM:   5    -0.102715967593E+03    0.94065E-03   -0.57387E-03  6248   0.404E-01
  11 F= -.10271597E+03 E0= -.10271597E+03  d E =-.522466E-01  mag=     0.0000
       N       E                     dE             d eps       ncg     rms          rms(c)
DAV:   1    -0.102727627755E+03   -0.10720E-01   -0.76755E-01  9728   0.547E+00    0.759E-01
RMM:   2    -0.102732606446E+03   -0.49787E-02   -0.10193E-01  8022   0.124E+00    0.335E-01
RMM:   3    -0.102731920807E+03    0.68564E-03   -0.80243E-03  6362   0.769E-01
  12 F= -.10273192E+03 E0= -.10273192E+03  d E =-.159532E-01  mag=    -0.0000
       N       E                     dE             d eps       ncg     rms          rms(c)
DAV:   1    -0.102732687144E+03   -0.80698E-04   -0.48243E-02 10064   0.137E+00    0.219E-01
RMM:   2    -0.102733003271E+03   -0.31613E-03   -0.75034E-03  6147   0.344E-01
  13 F= -.10273300E+03 E0= -.10273300E+03  d E =-.170357E-01  mag=     0.0000
