       N       E                     dE             d eps       ncg     rms          rms(c)
DAV:   1     0.117981579346E+03    0.11798E+03   -0.98346E+03 15584   0.773E+02
DAV:   2    -0.325594649487E+02   -0.15054E+03   -0.14669E+03 19716   0.309E+02
DAV:   3    -0.412166452899E+02   -0.86572E+01   -0.85837E+01 26472   0.576E+01
DAV:   4    -0.414766607244E+02   -0.26002E+00   -0.25885E+00 22108   0.797E+00
DAV:   5    -0.414846823566E+02   -0.80216E-02   -0.80165E-02 24632   0.131E+00    0.320E+01
DAV:   6    -0.390673549649E+02    0.24173E+01   -0.68123E+00 21340   0.191E+01    0.130E+01
DAV:   7    -0.386210256457E+02    0.44633E+00   -0.12942E+00 20160   0.607E+00    0.722E+00
DAV:   8    -0.386044859260E+02    0.16540E-01   -0.31323E-01 21464   0.323E+00    0.227E+00
DAV:   9    -0.385998243937E+02    0.46615E-02   -0.63464E-02 20028   0.145E+00    0.270E-01
DAV:  10    -0.385998398258E+02   -0.15432E-04   -0.44662E-03 20164   0.526E-01    0.143E-01
DAV:  11    -0.385999217235E+02   -0.81898E-04   -0.43255E-04 19060   0.160E-01
   1 F= -.38599922E+02 E0= -.38599826E+02  d E =-.385999E+02
       N       E                     dE             d eps       ncg     rms          rms(c)
DAV:   1    -0.386800931100E+02   -0.80253E-01   -0.39306E+00 17580   0.186E+01    0.129E+00
DAV:   2    -0.386854270526E+02   -0.53339E-02   -0.41796E-01 18708   0.482E+00    0.748E-01
DAV:   3    -0.386814484908E+02    0.39786E-02   -0.17912E-02 24952   0.936E-01    0.452E-01
DAV:   4    -0.386798113770E+02    0.16371E-02   -0.69307E-03 26876   0.549E-01    0.278E-01
DAV:   5    -0.386798396554E+02   -0.28278E-04   -0.87514E-04 21064   0.196E-01
   2 F= -.38679840E+02 E0= -.38679735E+02  d E =-.799179E-01
       N       E                     dE             d eps       ncg     rms          rms(c)
DAV:   1    -0.387202683081E+02   -0.40457E-01   -0.71716E+00 17432   0.253E+01    0.181E+00
DAV:   2    -0.387294054218E+02   -0.91371E-02   -0.76705E-01 18976   0.655E+00    0.987E-01
DAV:   3    -0.387216525420E+02    0.77529E-02   -0.32725E-02 24748   0.128E+00    0.591E-01
DAV:   4    -0.387186667570E+02    0.29858E-02   -0.12778E-02 26596   0.753E-01    0.380E-01
DAV:   5    -0.387187594361E+02   -0.92679E-04   -0.16391E-03 21376   0.269E-01    0.306E-01
DAV:   6    -0.387189124194E+02   -0.15298E-03   -0.33125E-04 19016   0.146E-01    0.517E-02
DAV:   7    -0.387188957086E+02    0.16711E-04   -0.97124E-05 11780   0.980E-02
   3 F= -.38718896E+02 E0= -.38718792E+02  d E =-.118974E+00
       N       E                     dE             d eps       ncg     rms          rms(c)
DAV:   1    -0.387676588555E+02   -0.48746E-01   -0.69126E-01 15228   0.659E+00    0.887E-01
DAV:   2    -0.387611419871E+02    0.65169E-02   -0.47529E-02 21224   0.203E+00    0.311E-01
DAV:   3    -0.387598691117E+02    0.12729E-02   -0.28958E-03 18924   0.382E-01    0.176E-01
DAV:   4    -0.387594966393E+02    0.37247E-03   -0.14551E-03 28720   0.228E-01    0.165E-01
DAV:   5    -0.387595417191E+02   -0.45080E-04   -0.97229E-05 12456   0.720E-02
   4 F= -.38759542E+02 E0= -.38759409E+02  d E =-.406460E-01
       N       E                     dE             d eps       ncg     rms          rms(c)
DAV:   1    -0.389096496334E+02   -0.15015E+00   -0.62135E+00 15160   0.198E+01    0.271E+00
DAV:   2    -0.388504803541E+02    0.59169E-01   -0.41825E-01 21224   0.605E+00    0.894E-01
DAV:   3    -0.388388873635E+02    0.11593E-01   -0.25874E-02 18432   0.115E+00    0.518E-01
DAV:   4    -0.388356460008E+02    0.32414E-02   -0.13906E-02 29032   0.715E-01    0.489E-01
DAV:   5    -0.388360278475E+02   -0.38185E-03   -0.99871E-04 21000   0.206E-01    0.214E-01
DAV:   6    -0.388359941172E+02    0.33730E-04   -0.97337E-04 27564   0.177E-01
   5 F= -.38835994E+02 E0= -.38835799E+02  d E =-.117098E+00
       N       E                     dE             d eps       ncg     rms          rms(c)
DAV:   1    -0.390909422532E+02   -0.25491E+00   -0.24897E+01 15160   0.400E+01    0.562E+00
DAV:   2    -0.388544156881E+02    0.23653E+00   -0.16543E+00 21240   0.122E+01    0.171E+00
DAV:   3    -0.388086536562E+02    0.45762E-01   -0.10669E-01 19340   0.235E+00    0.103E+00
DAV:   4    -0.387967216246E+02    0.11932E-01   -0.55187E-02 28392   0.146E+00    0.960E-01
DAV:   5    -0.387980806480E+02   -0.13590E-02   -0.38185E-03 20236   0.400E-01    0.446E-01
DAV:   6    -0.387982105856E+02   -0.12994E-03   -0.31461E-03 28540   0.322E-01    0.835E-02
DAV:   7    -0.387982083484E+02    0.22373E-05   -0.15360E-04 13468   0.896E-02
   6 F= -.38798208E+02 E0= -.38797949E+02  d E =-.793126E-01
       N       E                     dE             d eps       ncg     rms          rms(c)
DAV:   1    -0.389772456185E+02   -0.17904E+00   -0.10223E+01 15160   0.259E+01    0.351E+00
DAV:   2    -0.388743985477E+02    0.10285E+00   -0.79216E-01 21248   0.844E+00    0.121E+00
DAV:   3    -0.388557499232E+02    0.18649E-01   -0.47741E-02 19432   0.160E+00    0.758E-01
DAV:   4    -0.388496877184E+02    0.60622E-02   -0.19323E-02 28416   0.826E-01    0.690E-01
DAV:   5    -0.388501744486E+02   -0.48673E-03   -0.22106E-03 24608   0.325E-01    0.272E-01
DAV:   6    -0.388499349498E+02    0.23950E-03   -0.19783E-03 29056   0.252E-01    0.693E-02
DAV:   7    -0.388499356782E+02   -0.72836E-06   -0.99185E-05 12224   0.720E-02
   7 F= -.38849936E+02 E0= -.38849707E+02  d E =-.131040E+00
       N       E                     dE             d eps       ncg     rms          rms(c)
DAV:   1    -0.389123604637E+02   -0.62426E-01   -0.14657E+00 17840   0.106E+01    0.108E+00
DAV:   2    -0.389044421307E+02    0.79183E-02   -0.11199E-01 20828   0.280E+00    0.379E-01
DAV:   3    -0.389025878076E+02    0.18543E-02   -0.65404E-03 24044   0.561E-01    0.209E-01
DAV:   4    -0.389021161326E+02    0.47168E-03   -0.17577E-03 28512   0.260E-01    0.205E-01
DAV:   5    -0.389021552689E+02   -0.39136E-04   -0.16327E-04 13476   0.987E-02
   8 F= -.38902155E+02 E0= -.38901907E+02  d E =-.522196E-01
       N       E                     dE             d eps       ncg     rms          rms(c)
DAV:   1    -0.391088268321E+02   -0.20671E+00   -0.13078E+01 18192   0.319E+01    0.340E+00
DAV:   2    -0.390341837632E+02    0.74643E-01   -0.95942E-01 20960   0.820E+00    0.111E+00
DAV:   3    -0.390176327362E+02    0.16551E-01   -0.60516E-02 25176   0.170E+00    0.617E-01
DAV:   4    -0.390138505098E+02    0.37822E-02   -0.14679E-02 27440   0.768E-01    0.600E-01
DAV:   5    -0.390141898649E+02   -0.33936E-03   -0.20641E-03 25956   0.286E-01    0.263E-01
DAV:   6    -0.390142867975E+02   -0.96933E-04   -0.75809E-04 26588   0.159E-01
   9 F= -.39014287E+02 E0= -.39014032E+02  d E =-.164351E+00
       N       E                     dE             d eps       ncg     rms          rms(c)
DAV:   1    -0.393848739585E+02   -0.37068E+00   -0.51878E+01 18192   0.644E+01    0.714E+00
DAV:   2    -0.390738352410E+02    0.31104E+00   -0.36837E+00 21028   0.161E+01    0.218E+00
DAV:   3    -0.390054419381E+02    0.68393E-01   -0.26096E-01 26512   0.352E+00    0.140E+00
DAV:   4    -0.389915443678E+02    0.13898E-01   -0.53295E-02 26368   0.150E+00    0.113E+00
DAV:   5    -0.389930095730E+02   -0.14652E-02   -0.15342E-02 26928   0.838E-01    0.438E-01
DAV:   6    -0.389932558449E+02   -0.24627E-03   -0.19559E-03 23428   0.320E-01    0.763E-02
DAV:   7    -0.389932423606E+02    0.13484E-04   -0.17003E-04 13256   0.122E-01
  10 F= -.38993242E+02 E0= -.38993020E+02  d E =-.143307E+00
       N       E                     dE             d eps       ncg     rms          rms(c)
DAV:   1    -0.391678300115E+02   -0.17457E+00   -0.16036E+01 15160   0.362E+01    0.352E+00
DAV:   2    -0.390731187803E+02    0.94711E-01   -0.15031E+00 20868   0.107E+01    0.128E+00
DAV:   3    -0.390537994861E+02    0.19319E-01   -0.74822E-02 19504   0.215E+00    0.813E-01
DAV:   4    -0.390468198318E+02    0.69797E-02   -0.23329E-02 28644   0.951E-01    0.752E-01
DAV:   5    -0.390472781680E+02   -0.45834E-03   -0.24339E-03 24192   0.338E-01    0.353E-01
DAV:   6    -0.390471486230E+02    0.12954E-03   -0.20804E-03 29100   0.265E-01    0.668E-02
DAV:   7    -0.390471486718E+02   -0.48821E-07   -0.12797E-04 12724   0.819E-02
  11 F= -.39047149E+02 E0= -.39046914E+02  d E =-.197213E+00
       N       E                     dE             d eps       ncg     rms          rms(c)
DAV:   1    -0.391530605681E+02   -0.10591E+00   -0.27775E+00 15168   0.117E+01    0.738E-01
DAV:   2    -0.391475472712E+02    0.55133E-02   -0.85463E-02 22072   0.254E+00    0.741E-01
DAV:   3    -0.391457040224E+02    0.18432E-02   -0.37449E-03 18540   0.446E-01    0.437E-01
DAV:   4    -0.391448506973E+02    0.85333E-03   -0.26982E-03 21216   0.369E-01    0.969E-02
DAV:   5    -0.391448771428E+02   -0.26445E-04   -0.32055E-04 17964   0.126E-01
  12 F= -.39144877E+02 E0= -.39144632E+02  d E =-.977285E-01
       N       E                     dE             d eps       ncg     rms          rms(c)
DAV:   1    -0.393679035125E+02   -0.22305E+00   -0.24479E+01 15160   0.349E+01    0.229E+00
DAV:   2    -0.393207948739E+02    0.47109E-01   -0.77720E-01 22448   0.750E+00    0.209E+00
DAV:   3    -0.393039847505E+02    0.16810E-01   -0.34686E-02 18488   0.135E+00    0.120E+00
DAV:   4    -0.392970065796E+02    0.69782E-02   -0.23440E-02 21132   0.106E+00    0.283E-01
DAV:   5    -0.392972371277E+02   -0.23055E-03   -0.27528E-03 18976   0.365E-01    0.146E-01
DAV:   6    -0.392972611021E+02   -0.23974E-04   -0.27943E-04 16784   0.129E-01
  13 F= -.39297261E+02 E0= -.39296958E+02  d E =-.250112E+00
       N       E                     dE             d eps       ncg     rms          rms(c)
DAV:   1    -0.393070022057E+02   -0.97651E-02   -0.14097E+00 15176   0.837E+00    0.542E-01
DAV:   2    -0.393040647817E+02    0.29374E-02   -0.43156E-02 22640   0.179E+00    0.489E-01
DAV:   3    -0.393031433026E+02    0.92148E-03   -0.19662E-03 18776   0.332E-01    0.273E-01
DAV:   4    -0.393027517779E+02    0.39152E-03   -0.13454E-03 20896   0.250E-01    0.615E-02
DAV:   5    -0.393027643992E+02   -0.12621E-04   -0.14788E-04 15236   0.892E-02
  14 F= -.39302764E+02 E0= -.39302446E+02  d E =-.255616E+00
       N       E                     dE             d eps       ncg     rms          rms(c)
DAV:   1    -0.393499617636E+02   -0.47210E-01   -0.38871E+00 18192   0.189E+01    0.910E-01
DAV:   2    -0.393739583827E+02   -0.23997E-01   -0.32172E-01 16572   0.380E+00    0.490E-01
DAV:   3    -0.393727061416E+02    0.12522E-02   -0.82063E-03 24236   0.672E-01    0.247E-01
DAV:   4    -0.393722485264E+02    0.45762E-03   -0.18184E-03 18664   0.312E-01    0.726E-02
DAV:   5    -0.393722618610E+02   -0.13335E-04   -0.24152E-04 17124   0.128E-01
  15 F= -.39372262E+02 E0= -.39371935E+02  d E =-.694975E-01
       N       E                     dE             d eps       ncg     rms          rms(c)
DAV:   1    -0.393741016186E+02   -0.18531E-02   -0.51608E-01 18232   0.688E+00    0.327E-01
DAV:   2    -0.393774288176E+02   -0.33272E-02   -0.43496E-02 16832   0.139E+00    0.173E-01
DAV:   3    -0.393772746446E+02    0.15417E-03   -0.10732E-03 24132   0.244E-01    0.874E-02
DAV:   4    -0.393772105809E+02    0.64064E-04   -0.22809E-04 15760   0.116E-01
  16 F= -.39377211E+02 E0= -.39376886E+02  d E =-.744462E-01
       N       E                     dE             d eps       ncg     rms          rms(c)
DAV:   1    -0.394153526610E+02   -0.38078E-01   -0.19785E+00 18192   0.136E+01    0.769E-01
DAV:   2    -0.394284342871E+02   -0.13082E-01   -0.17280E-01 16160   0.278E+00    0.453E-01
DAV:   3    -0.394276739519E+02    0.76034E-03   -0.44299E-03 23840   0.501E-01    0.192E-01
DAV:   4    -0.394274673256E+02    0.20663E-03   -0.88323E-04 21348   0.224E-01    0.636E-02
DAV:   5    -0.394274712564E+02   -0.39308E-05   -0.10207E-04 11988   0.899E-02
  17 F= -.39427471E+02 E0= -.39427120E+02  d E =-.502607E-01
       N       E                     dE             d eps       ncg     rms          rms(c)
DAV:   1    -0.394244051469E+02    0.30622E-02   -0.49443E+00 18192   0.215E+01    0.119E+00
DAV:   2    -0.394572073003E+02   -0.32802E-01   -0.43110E-01 16264   0.439E+00    0.701E-01
DAV:   3    -0.394552915631E+02    0.19157E-02   -0.10992E-02 23816   0.789E-01    0.303E-01
DAV:   4    -0.394547556368E+02    0.53593E-03   -0.23355E-03 21720   0.368E-01    0.997E-02
DAV:   5    -0.394547667388E+02   -0.11102E-04   -0.31118E-04 17188   0.147E-01
  18 F= -.39454767E+02 E0= -.39454386E+02  d E =-.775562E-01
       N       E                     dE             d eps       ncg     rms          rms(c)
DAV:   1    -0.394840923769E+02   -0.29337E-01   -0.31852E+00 18192   0.178E+01    0.862E-01
DAV:   2    -0.395036053308E+02   -0.19513E-01   -0.31349E-01 16652   0.373E+00    0.457E-01
DAV:   3    -0.395023694200E+02    0.12359E-02   -0.74139E-03 24648   0.652E-01    0.255E-01
DAV:   4    -0.395017883915E+02    0.58103E-03   -0.23683E-03 23028   0.388E-01    0.737E-02
DAV:   5    -0.395017927870E+02   -0.43955E-05   -0.28314E-04 15856   0.138E-01
  19 F= -.39501793E+02 E0= -.39501389E+02  d E =-.470260E-01
       N       E                     dE             d eps       ncg     rms          rms(c)
DAV:   1    -0.394960141923E+02    0.57742E-02   -0.46885E+00 18192   0.215E+01    0.101E+00
DAV:   2    -0.395248310218E+02   -0.28817E-01   -0.46167E-01 16668   0.453E+00    0.551E-01
DAV:   3    -0.395230646073E+02    0.17664E-02   -0.10898E-02 24564   0.790E-01    0.311E-01
DAV:   4    -0.395222051030E+02    0.85950E-03   -0.35437E-03 23080   0.476E-01    0.936E-02
DAV:   5    -0.395222099698E+02   -0.48668E-05   -0.44267E-04 17456   0.170E-01
  20 F= -.39522210E+02 E0= -.39521771E+02  d E =-.674432E-01
       N       E                     dE             d eps       ncg     rms          rms(c)
DAV:   1    -0.395520062067E+02   -0.29801E-01   -0.11921E+00 15200   0.964E+00    0.104E+00
DAV:   2    -0.395492573404E+02    0.27489E-02   -0.93709E-02 20092   0.290E+00    0.344E-01
DAV:   3    -0.395481669919E+02    0.10903E-02   -0.40383E-03 19408   0.471E-01    0.216E-01
DAV:   4    -0.395477653010E+02    0.40169E-03   -0.17115E-03 27496   0.258E-01    0.186E-01
DAV:   5    -0.395478053532E+02   -0.40052E-04   -0.15466E-04 13796   0.972E-02
  21 F= -.39547805E+02 E0= -.39547373E+02  d E =-.255954E-01
       N       E                     dE             d eps       ncg     rms          rms(c)
DAV:   1    -0.395561624274E+02   -0.83971E-02   -0.66501E-01 15212   0.718E+00    0.791E-01
DAV:   2    -0.395544046575E+02    0.17578E-02   -0.51672E-02 20104   0.216E+00    0.262E-01
DAV:   3    -0.395537723824E+02    0.63228E-03   -0.22789E-03 19520   0.350E-01    0.158E-01
DAV:   4    -0.395535529757E+02    0.21941E-03   -0.96365E-04 26872   0.193E-01    0.136E-01
DAV:   5    -0.395535742015E+02   -0.21226E-04   -0.78858E-05 12216   0.718E-02
  22 F= -.39553574E+02 E0= -.39553149E+02  d E =-.313642E-01
       N       E                     dE             d eps       ncg     rms          rms(c)
DAV:   1    -0.395718008547E+02   -0.18248E-01   -0.61336E-01 15160   0.672E+00    0.519E-01
DAV:   2    -0.395721975029E+02   -0.39665E-03   -0.39542E-02 19680   0.176E+00    0.231E-01
DAV:   3    -0.395717438186E+02    0.45368E-03   -0.15908E-03 22956   0.281E-01    0.137E-01
DAV:   4    -0.395715725294E+02    0.17129E-03   -0.64480E-04 22332   0.179E-01    0.729E-02
DAV:   5    -0.395715750120E+02   -0.24826E-05   -0.60798E-05 11060   0.696E-02
  23 F= -.39571575E+02 E0= -.39571146E+02  d E =-.180008E-01
       N       E                     dE             d eps       ncg     rms          rms(c)
DAV:   1    -0.395917388572E+02   -0.20166E-01   -0.36623E+00 15160   0.164E+01    0.121E+00
DAV:   2    -0.395939093393E+02   -0.21705E-02   -0.23667E-01 19688   0.433E+00    0.576E-01
DAV:   3    -0.395912868075E+02    0.26225E-02   -0.93959E-03 22960   0.685E-01    0.347E-01
DAV:   4    -0.395902039039E+02    0.10829E-02   -0.41588E-03 26520   0.447E-01    0.179E-01
DAV:   5    -0.395902207314E+02   -0.16828E-04   -0.39448E-04 17332   0.154E-01
  24 F= -.39590221E+02 E0= -.39589787E+02  d E =-.366465E-01
       N       E                     dE             d eps       ncg     rms          rms(c)
DAV:   1    -0.396000000252E+02   -0.97961E-02   -0.35611E-01 15184   0.546E+00    0.284E-01
DAV:   2    -0.396010536714E+02   -0.10536E-02   -0.26436E-02 18084   0.124E+00    0.147E-01
DAV:   3    -0.396007632860E+02    0.29039E-03   -0.98644E-04 22240   0.236E-01    0.714E-02
DAV:   4    -0.396006878434E+02    0.75443E-04   -0.18171E-04 12048   0.115E-01
  25 F= -.39600688E+02 E0= -.39600253E+02  d E =-.104671E-01
       N       E                     dE             d eps       ncg     rms          rms(c)
DAV:   1    -0.396163896814E+02   -0.15626E-01   -0.32013E+00 15168   0.164E+01    0.845E-01
DAV:   2    -0.396263554756E+02   -0.99658E-02   -0.23891E-01 18044   0.371E+00    0.432E-01
DAV:   3    -0.396238231576E+02    0.25323E-02   -0.87688E-03 22204   0.710E-01    0.215E-01
DAV:   4    -0.396231823013E+02    0.64086E-03   -0.19515E-03 22104   0.340E-01    0.724E-02
DAV:   5    -0.396231896914E+02   -0.73901E-05   -0.16609E-04 14300   0.102E-01
  26 F= -.39623190E+02 E0= -.39622759E+02  d E =-.329690E-01
       N       E                     dE             d eps       ncg     rms          rms(c)
DAV:   1    -0.396013298999E+02    0.21852E-01   -0.12917E+01 17448   0.328E+01    0.171E+00
DAV:   2    -0.396353141774E+02   -0.33984E-01   -0.87705E-01 17972   0.681E+00    0.858E-01
DAV:   3    -0.396244597416E+02    0.10854E-01   -0.33652E-02 23500   0.143E+00    0.414E-01
DAV:   4    -0.396221369197E+02    0.23228E-02   -0.65559E-03 21600   0.611E-01    0.151E-01
DAV:   5    -0.396221415701E+02   -0.46504E-05   -0.67702E-04 21432   0.199E-01
  27 F= -.39622142E+02 E0= -.39621745E+02  d E =-.319208E-01
       N       E                     dE             d eps       ncg     rms          rms(c)
DAV:   1    -0.396249721226E+02   -0.28352E-02   -0.36425E+00 16720   0.175E+01    0.890E-01
DAV:   2    -0.396346587285E+02   -0.96866E-02   -0.25201E-01 18056   0.376E+00    0.469E-01
DAV:   3    -0.396315664159E+02    0.30923E-02   -0.93786E-03 23204   0.726E-01    0.224E-01
DAV:   4    -0.396308397824E+02    0.72663E-03   -0.22856E-03 21616   0.360E-01    0.722E-02
DAV:   5    -0.396308456841E+02   -0.59017E-05   -0.19136E-04 14992   0.111E-01
  28 F= -.39630846E+02 E0= -.39630428E+02  d E =-.406250E-01
       N       E                     dE             d eps       ncg     rms          rms(c)
DAV:   1    -0.396402168312E+02   -0.93770E-02   -0.51679E-01 15168   0.635E+00    0.361E-01
DAV:   2    -0.396421654261E+02   -0.19486E-02   -0.32917E-02 18384   0.146E+00    0.190E-01
DAV:   3    -0.396418839887E+02    0.28144E-03   -0.12067E-03 24900   0.249E-01    0.904E-02
DAV:   4    -0.396418140090E+02    0.69980E-04   -0.21603E-04 13184   0.125E-01
  29 F= -.39641814E+02 E0= -.39641410E+02  d E =-.109683E-01
       N       E                     dE             d eps       ncg     rms          rms(c)
DAV:   1    -0.396406511053E+02    0.12329E-02   -0.46388E+00 15160   0.191E+01    0.111E+00
DAV:   2    -0.396584519056E+02   -0.17801E-01   -0.29780E-01 18392   0.437E+00    0.583E-01
DAV:   3    -0.396559689284E+02    0.24830E-02   -0.11345E-02 25284   0.760E-01    0.272E-01
DAV:   4    -0.396554023399E+02    0.56659E-03   -0.22077E-03 20840   0.368E-01    0.100E-01
DAV:   5    -0.396554257512E+02   -0.23411E-04   -0.27095E-04 18440   0.135E-01
  30 F= -.39655426E+02 E0= -.39655075E+02  d E =-.245801E-01
       N       E                     dE             d eps       ncg     rms          rms(c)
DAV:   1    -0.396672940439E+02   -0.11892E-01   -0.81015E-01 15176   0.683E+00    0.337E-01
DAV:   2    -0.396681250488E+02   -0.83100E-03   -0.28242E-02 19256   0.143E+00    0.205E-01
DAV:   3    -0.396676827029E+02    0.44235E-03   -0.15272E-03 25796   0.273E-01    0.103E-01
DAV:   4    -0.396675870573E+02    0.95646E-04   -0.32809E-04 18584   0.139E-01
  31 F= -.39667587E+02 E0= -.39667243E+02  d E =-.121613E-01
       N       E                     dE             d eps       ncg     rms          rms(c)
DAV:   1    -0.396762211762E+02   -0.85385E-02   -0.30740E+00 15168   0.133E+01    0.652E-01
DAV:   2    -0.396794557211E+02   -0.32345E-02   -0.10703E-01 19296   0.279E+00    0.405E-01
DAV:   3    -0.396778012070E+02    0.16545E-02   -0.55798E-03 25664   0.525E-01    0.203E-01
DAV:   4    -0.396774213493E+02    0.37986E-03   -0.12554E-03 20712   0.273E-01    0.442E-02
DAV:   5    -0.396774263386E+02   -0.49893E-05   -0.86145E-05 12004   0.833E-02
  32 F= -.39677426E+02 E0= -.39677097E+02  d E =-.220006E-01
       N       E                     dE             d eps       ncg     rms          rms(c)
DAV:   1    -0.396912833286E+02   -0.13862E-01   -0.14554E+00 15784   0.112E+01    0.869E-01
DAV:   2    -0.396938915446E+02   -0.26082E-02   -0.11074E-01 19632   0.269E+00    0.378E-01
DAV:   3    -0.396925704998E+02    0.13210E-02   -0.45947E-03 22736   0.501E-01    0.183E-01
DAV:   4    -0.396923072545E+02    0.26325E-03   -0.11048E-03 27360   0.214E-01    0.146E-01
DAV:   5    -0.396923167199E+02   -0.94654E-05   -0.83442E-05 12328   0.678E-02
  33 F= -.39692317E+02 E0= -.39691975E+02  d E =-.148904E-01
       N       E                     dE             d eps       ncg     rms          rms(c)
DAV:   1    -0.396937691230E+02   -0.14619E-02   -0.37833E-01 16104   0.569E+00    0.451E-01
DAV:   2    -0.396943791557E+02   -0.61003E-03   -0.28229E-02 19596   0.136E+00    0.197E-01
DAV:   3    -0.396940195520E+02    0.35960E-03   -0.12598E-03 23320   0.256E-01    0.919E-02
DAV:   4    -0.396939547305E+02    0.64822E-04   -0.24772E-04 17288   0.108E-01
  34 F= -.39693955E+02 E0= -.39693605E+02  d E =-.165284E-01
       N       E                     dE             d eps       ncg     rms          rms(c)
DAV:   1    -0.397021633843E+02   -0.81438E-02   -0.47660E-01 15180   0.581E+00    0.399E-01
DAV:   2    -0.397024937112E+02   -0.33033E-03   -0.24414E-02 19088   0.130E+00    0.194E-01
DAV:   3    -0.397019849213E+02    0.50879E-03   -0.11267E-03 22140   0.247E-01    0.882E-02
DAV:   4    -0.397018898206E+02    0.95101E-04   -0.31323E-04 17764   0.128E-01
  35 F= -.39701890E+02 E0= -.39701517E+02  d E =-.793509E-02
       N       E                     dE             d eps       ncg     rms          rms(c)
DAV:   1    -0.397090594676E+02   -0.70745E-02   -0.16948E+00 15160   0.109E+01    0.743E-01
DAV:   2    -0.397103047710E+02   -0.12453E-02   -0.87035E-02 18956   0.246E+00    0.371E-01
DAV:   3    -0.397085173263E+02    0.17874E-02   -0.39787E-03 22076   0.468E-01    0.161E-01
DAV:   4    -0.397081824407E+02    0.33489E-03   -0.11782E-03 25612   0.237E-01    0.101E-01
DAV:   5    -0.397081870052E+02   -0.45645E-05   -0.89704E-05 12328   0.704E-02
  36 F= -.39708187E+02 E0= -.39707768E+02  d E =-.142323E-01
       N       E                     dE             d eps       ncg     rms          rms(c)
DAV:   1    -0.397136724589E+02   -0.54900E-02   -0.68099E-01 15160   0.743E+00    0.378E-01
DAV:   2    -0.397164723003E+02   -0.27998E-02   -0.48261E-02 17860   0.166E+00    0.226E-01
DAV:   3    -0.397160468707E+02    0.42543E-03   -0.15060E-03 22328   0.288E-01    0.106E-01
DAV:   4    -0.397159212198E+02    0.12565E-03   -0.42242E-04 18384   0.157E-01    0.251E-02
DAV:   5    -0.397159241187E+02   -0.28989E-05   -0.45386E-05 11276   0.536E-02
  37 F= -.39715924E+02 E0= -.39715485E+02  d E =-.773711E-02
       N       E                     dE             d eps       ncg     rms          rms(c)
DAV:   1    -0.397161587014E+02   -0.23748E-03   -0.67606E-02 15332   0.234E+00    0.118E-01
DAV:   2    -0.397164462211E+02   -0.28752E-03   -0.48131E-03 17904   0.521E-01    0.709E-02
DAV:   3    -0.397164039525E+02    0.42269E-04   -0.13072E-04 15480   0.909E-02
  38 F= -.39716404E+02 E0= -.39715958E+02  d E =-.821695E-02
       N       E                     dE             d eps       ncg     rms          rms(c)
DAV:   1    -0.397204579325E+02   -0.40117E-02   -0.28465E-01 15208   0.442E+00    0.290E-01
DAV:   2    -0.397211838427E+02   -0.72591E-03   -0.14416E-02 18100   0.990E-01    0.131E-01
DAV:   3    -0.397210558962E+02    0.12795E-03   -0.51814E-04 21848   0.164E-01    0.699E-02
DAV:   4    -0.397210240155E+02    0.31881E-04   -0.12006E-04 11800   0.871E-02
  39 F= -.39721024E+02 E0= -.39720561E+02  d E =-.462006E-02
       N       E                     dE             d eps       ncg     rms          rms(c)
DAV:   1    -0.397217740233E+02   -0.71813E-03   -0.18794E-01 15216   0.361E+00    0.238E-01
DAV:   2    -0.397222682272E+02   -0.49420E-03   -0.94456E-03 18136   0.799E-01    0.104E-01
DAV:   3    -0.397221927362E+02    0.75491E-04   -0.32196E-04 19848   0.130E-01
  40 F= -.39722193E+02 E0= -.39721714E+02  d E =-.578878E-02
       N       E                     dE             d eps       ncg     rms          rms(c)
DAV:   1    -0.397225557659E+02   -0.28754E-03   -0.43186E-01 18192   0.659E+00    0.275E-01
DAV:   2    -0.397258447851E+02   -0.32890E-02   -0.40673E-02 15832   0.134E+00    0.155E-01
DAV:   3    -0.397257827830E+02    0.62002E-04   -0.80627E-04 22708   0.210E-01
  41 F= -.39725783E+02 E0= -.39725295E+02  d E =-.359005E-02
       N       E                     dE             d eps       ncg     rms          rms(c)
DAV:   1    -0.397253695401E+02    0.47524E-03   -0.97756E-02 18312   0.311E+00    0.131E-01
DAV:   2    -0.397260753089E+02   -0.70577E-03   -0.90612E-03 16624   0.626E-01    0.759E-02
DAV:   3    -0.397260612505E+02    0.14058E-04   -0.18680E-04 20012   0.103E-01
  42 F= -.39726061E+02 E0= -.39725568E+02  d E =-.386851E-02
       N       E                     dE             d eps       ncg     rms          rms(c)
DAV:   1    -0.397275049896E+02   -0.14297E-02   -0.26775E-01 18204   0.494E+00    0.230E-01
DAV:   2    -0.397287327507E+02   -0.12278E-02   -0.22003E-02 16672   0.978E-01    0.123E-01
DAV:   3    -0.397285591937E+02    0.17356E-03   -0.64644E-04 22112   0.195E-01    0.664E-02
DAV:   4    -0.397284950940E+02    0.64100E-04   -0.13472E-04 12036   0.100E-01
  43 F= -.39728495E+02 E0= -.39728005E+02  d E =-.243384E-02
       N       E                     dE             d eps       ncg     rms          rms(c)
DAV:   1    -0.397284644905E+02    0.94703E-04   -0.12449E-01 18208   0.339E+00    0.154E-01
DAV:   2    -0.397290544976E+02   -0.59001E-03   -0.10283E-02 16992   0.667E-01    0.824E-02
DAV:   3    -0.397289814847E+02    0.73013E-04   -0.29124E-04 20804   0.131E-01
  44 F= -.39728981E+02 E0= -.39728496E+02  d E =-.292023E-02
       N       E                     dE             d eps       ncg     rms          rms(c)
DAV:   1    -0.397303301145E+02   -0.12756E-02   -0.16016E-01 18200   0.372E+00    0.215E-01
DAV:   2    -0.397307387258E+02   -0.40861E-03   -0.11662E-02 18240   0.788E-01    0.107E-01
DAV:   3    -0.397305984678E+02    0.14026E-03   -0.45135E-04 21248   0.157E-01    0.620E-02
DAV:   4    -0.397305499910E+02    0.48477E-04   -0.14732E-04 11920   0.978E-02
  45 F= -.39730550E+02 E0= -.39730068E+02  d E =-.156851E-02
       N       E                     dE             d eps       ncg     rms          rms(c)
DAV:   1    -0.397305739505E+02    0.24517E-04   -0.64788E-03 18680   0.770E-01    0.449E-02
DAV:   2    -0.397305925178E+02   -0.18567E-04   -0.46255E-04 18292   0.154E-01
  46 F= -.39730593E+02 E0= -.39730112E+02  d E =-.161103E-02
       N       E                     dE             d eps       ncg     rms          rms(c)
DAV:   1    -0.397319475482E+02   -0.13736E-02   -0.53042E-02 15176   0.194E+00    0.112E-01
DAV:   2    -0.397320447281E+02   -0.97180E-04   -0.26097E-03 18108   0.425E-01    0.571E-02
DAV:   3    -0.397320119333E+02    0.32795E-04   -0.94183E-05 12548   0.763E-02
  47 F= -.39732012E+02 E0= -.39731531E+02  d E =-.141942E-02
       N       E                     dE             d eps       ncg     rms          rms(c)
DAV:   1    -0.397336570720E+02   -0.16123E-02   -0.47479E-01 15248   0.578E+00    0.337E-01
DAV:   2    -0.397346462518E+02   -0.98918E-03   -0.23167E-02 18068   0.126E+00    0.155E-01
DAV:   3    -0.397344198003E+02    0.22645E-03   -0.93692E-04 21836   0.220E-01    0.876E-02
DAV:   4    -0.397343390361E+02    0.80764E-04   -0.27938E-04 15908   0.135E-01
  48 F= -.39734339E+02 E0= -.39733857E+02  d E =-.374652E-02
       N       E                     dE             d eps       ncg     rms          rms(c)
DAV:   1    -0.397351236998E+02   -0.70390E-03   -0.11350E-01 18216   0.336E+00    0.122E-01
DAV:   2    -0.397359886811E+02   -0.86498E-03   -0.10429E-02 16132   0.690E-01    0.664E-02
DAV:   3    -0.397359687393E+02    0.19942E-04   -0.20401E-04 20916   0.110E-01
  49 F= -.39735969E+02 E0= -.39735487E+02  d E =-.162970E-02
       N       E                     dE             d eps       ncg     rms          rms(c)
DAV:   1    -0.397357402826E+02    0.24840E-03   -0.77643E-02 18208   0.278E+00    0.101E-01
DAV:   2    -0.397363248083E+02   -0.58453E-03   -0.71825E-03 16312   0.568E-01    0.575E-02
DAV:   3    -0.397363124999E+02    0.12308E-04   -0.12897E-04 17972   0.914E-02
  50 F= -.39736312E+02 E0= -.39735831E+02  d E =-.197346E-02
       N       E                     dE             d eps       ncg     rms          rms(c)
DAV:   1    -0.397379509906E+02   -0.16262E-02   -0.82068E-02 15176   0.214E+00    0.303E-01
DAV:   2    -0.397374804301E+02    0.47056E-03   -0.34928E-03 21280   0.581E-01    0.817E-02
DAV:   3    -0.397373696143E+02    0.11082E-03   -0.18758E-04 12276   0.102E-01    0.505E-02
DAV:   4    -0.397373383909E+02    0.31223E-04   -0.13255E-04 12252   0.838E-02
  51 F= -.39737338E+02 E0= -.39736859E+02  d E =-.102589E-02
       N       E                     dE             d eps       ncg     rms          rms(c)
DAV:   1    -0.397383734949E+02   -0.10039E-02   -0.89943E-02 15176   0.225E+00    0.315E-01
DAV:   2    -0.397378485764E+02    0.52492E-03   -0.37571E-03 21256   0.603E-01    0.850E-02
DAV:   3    -0.397377245784E+02    0.12400E-03   -0.21274E-04 12828   0.108E-01    0.584E-02
DAV:   4    -0.397376963464E+02    0.28232E-04   -0.17542E-04 15184   0.898E-02
  52 F= -.39737696E+02 E0= -.39737219E+02  d E =-.138385E-02
       N       E                     dE             d eps       ncg     rms          rms(c)
DAV:   1    -0.397375605193E+02    0.16406E-03   -0.20660E-01 18208   0.449E+00    0.201E-01
DAV:   2    -0.397390651970E+02   -0.15047E-02   -0.19030E-02 15844   0.936E-01    0.923E-02
DAV:   3    -0.397390343446E+02    0.30852E-04   -0.42974E-04 22104   0.152E-01
  53 F= -.39739034E+02 E0= -.39738561E+02  d E =-.133800E-02
       N       E                     dE             d eps       ncg     rms          rms(c)
DAV:   1    -0.397389958788E+02    0.69318E-04   -0.81445E-03 18648   0.885E-01    0.475E-02
DAV:   2    -0.397390467094E+02   -0.50831E-04   -0.71955E-04 17944   0.182E-01
  54 F= -.39739047E+02 E0= -.39738575E+02  d E =-.135036E-02
       N       E                     dE             d eps       ncg     rms          rms(c)
DAV:   1    -0.397400622929E+02   -0.10664E-02   -0.11493E-01 17840   0.287E+00    0.172E-01
DAV:   2    -0.397403460959E+02   -0.28380E-03   -0.58334E-03 17956   0.583E-01    0.738E-02
DAV:   3    -0.397402909151E+02    0.55181E-04   -0.21743E-04 16960   0.108E-01
  55 F= -.39740291E+02 E0= -.39739823E+02  d E =-.124421E-02
       N       E                     dE             d eps       ncg     rms          rms(c)
DAV:   1    -0.397401378368E+02    0.20826E-03   -0.32436E-01 17840   0.481E+00    0.279E-01
DAV:   2    -0.397409423216E+02   -0.80448E-03   -0.16271E-02 17952   0.974E-01    0.114E-01
DAV:   3    -0.397408114102E+02    0.13091E-03   -0.66865E-04 23488   0.179E-01    0.587E-02
DAV:   4    -0.397407744601E+02    0.36950E-04   -0.10874E-04 11832   0.817E-02
  56 F= -.39740774E+02 E0= -.39740310E+02  d E =-.172775E-02
       N       E                     dE             d eps       ncg     rms          rms(c)
DAV:   1    -0.397413915298E+02   -0.58012E-03   -0.37807E-02 15308   0.162E+00    0.959E-02
DAV:   2    -0.397414852745E+02   -0.93745E-04   -0.19540E-03 18420   0.354E-01    0.384E-02
DAV:   3    -0.397414760294E+02    0.92451E-05   -0.58003E-05 11440   0.593E-02
  57 F= -.39741476E+02 E0= -.39741015E+02  d E =-.701569E-03
       N       E                     dE             d eps       ncg     rms          rms(c)
DAV:   1    -0.397416982584E+02   -0.21298E-03   -0.26635E-01 15168   0.429E+00    0.258E-01
DAV:   2    -0.397423065228E+02   -0.60826E-03   -0.13951E-02 18596   0.953E-01    0.104E-01
DAV:   3    -0.397422306215E+02    0.75901E-04   -0.52080E-04 20704   0.161E-01
  58 F= -.39742231E+02 E0= -.39741777E+02  d E =-.145616E-02
       N       E                     dE             d eps       ncg     rms          rms(c)
DAV:   1    -0.397428098558E+02   -0.50333E-03   -0.14399E-02 18672   0.108E+00    0.769E-02
DAV:   2    -0.397428696353E+02   -0.59779E-04   -0.97159E-04 17772   0.213E-01
  59 F= -.39742870E+02 E0= -.39742413E+02  d E =-.639014E-03
       N       E                     dE             d eps       ncg     rms          rms(c)
DAV:   1    -0.397433805415E+02   -0.57069E-03   -0.12894E-01 18204   0.321E+00    0.192E-01
DAV:   2    -0.397438958958E+02   -0.51535E-03   -0.85818E-03 17244   0.624E-01    0.110E-01
DAV:   3    -0.397438071176E+02    0.88778E-04   -0.29957E-04 20736   0.128E-01
  60 F= -.39743807E+02 E0= -.39743346E+02  d E =-.157650E-02
