       N       E                     dE             d eps       ncg     rms          rms(c)
DAV:   1    -0.170090270277E+02   -0.17009E+02   -0.37583E+03 13000   0.411E+02
DAV:   2    -0.491481271205E+02   -0.32139E+02   -0.30979E+02 17848   0.991E+01
DAV:   3    -0.504019188745E+02   -0.12538E+01   -0.12508E+01 15688   0.195E+01
DAV:   4    -0.504049166536E+02   -0.29978E-02   -0.29975E-02 17256   0.116E+00
DAV:   5    -0.504049300385E+02   -0.13385E-04   -0.13385E-04 14744   0.680E-02    0.112E+01
DAV:   6    -0.487671273623E+02    0.16378E+01   -0.47449E-01 14112   0.379E+00    0.638E+00
DAV:   7    -0.479761743112E+02    0.79095E+00   -0.12084E+00 16080   0.630E+00    0.585E-01
DAV:   8    -0.479944774836E+02   -0.18303E-01   -0.53423E-02 14744   0.148E+00    0.354E-01
DAV:   9    -0.479922437120E+02    0.22338E-02   -0.52967E-03 17760   0.471E-01    0.571E-02
DAV:  10    -0.479922906016E+02   -0.46890E-04   -0.22099E-04 14720   0.934E-02
   1 F= -.47992291E+02 E0= -.47991963E+02  d E =-.479923E+02
       N       E                     dE             d eps       ncg     rms          rms(c)
DAV:   1    -0.479930810795E+02   -0.83737E-03   -0.29687E-02 16136   0.115E+00    0.871E-02
DAV:   2    -0.479931144900E+02   -0.33410E-04   -0.11676E-03 15592   0.223E-01    0.605E-02
DAV:   3    -0.479930724929E+02    0.41997E-04   -0.87019E-05 13152   0.910E-02
   2 F= -.47993072E+02 E0= -.47992747E+02  d E =-.781891E-03
       N       E                     dE             d eps       ncg     rms          rms(c)
DAV:   1    -0.479931540104E+02   -0.39520E-04   -0.15078E-03 15864   0.251E-01    0.193E-02
DAV:   2    -0.479931517167E+02    0.22937E-05   -0.39767E-05  6536   0.438E-02
   3 F= -.47993152E+02 E0= -.47992826E+02  d E =-.861115E-03
