 running on   16 total cores
 distrk:  each k-point on   16 cores,    1 groups
 distr:  one band on    1 cores,   16 groups
 using from now: INCAR     
 vasp.5.4.4.18Apr17-6-g9f103f2a35 (build Nov 01 2019 12:17:22) complex          
  
 POSCAR found type information on POSCAR  H 
 POSCAR found :  1 types and      20 ions

 ----------------------------------------------------------------------------- 
|                                                                             |
|           W    W    AA    RRRRR   N    N  II  N    N   GGGG   !!!           |
|           W    W   A  A   R    R  NN   N  II  NN   N  G    G  !!!           |
|           W    W  A    A  R    R  N N  N  II  N N  N  G       !!!           |
|           W WW W  AAAAAA  RRRRR   N  N N  II  N  N N  G  GGG   !            |
|           WW  WW  A    A  R   R   N   NN  II  N   NN  G    G                |
|           W    W  A    A  R    R  N    N  II  N    N   GGGG   !!!           |
|                                                                             |
|      For optimal performance we recommend to set                            |
|        NCORE= 4 - approx SQRT( number of cores)                             |
|      NCORE specifies how many cores store one orbital (NPAR=cpu/NCORE).     |
|      This setting can  greatly improve the performance of VASP for DFT.     |
|      The default,   NCORE=1            might be grossly inefficient         |
|      on modern multi-core architectures or massively parallel machines.     |
|      Do your own testing !!!!                                               |
|      Unfortunately you need to use the default for GW and RPA calculations. |
|      (for HF NCORE is supported but not extensively tested yet)             |
|                                                                             |
 ----------------------------------------------------------------------------- 

 LDA part: xc-table for Pade appr. of Perdew
 POSCAR, INCAR and KPOINTS ok, starting setup
 FFT: planning ...
 WAVECAR not read
 entering main loop
       N       E                     dE             d eps       ncg     rms          rms(c)
DAV:   1    -0.132258203709E+02   -0.13226E+02   -0.78676E+03  5376   0.508E+02
DAV:   2    -0.595851305744E+02   -0.46359E+02   -0.44728E+02  7344   0.897E+01
DAV:   3    -0.612562721324E+02   -0.16711E+01   -0.16697E+01  6736   0.152E+01
DAV:   4    -0.612589681749E+02   -0.26960E-02   -0.26960E-02  6912   0.776E-01
DAV:   5    -0.612589741999E+02   -0.60250E-05   -0.60249E-05  5488   0.372E-02    0.204E+01
RMM:   6    -0.665583322748E+02   -0.52994E+01   -0.25692E+00  5376   0.453E+00    0.842E+00
RMM:   7    -0.662668001914E+02    0.29153E+00   -0.15547E+00  5376   0.438E+00    0.402E+00
RMM:   8    -0.662208624815E+02    0.45938E-01   -0.43989E-01  5376   0.245E+00    0.985E-01
RMM:   9    -0.662397595358E+02   -0.18897E-01   -0.25912E-02  5376   0.683E-01    0.442E-01
RMM:  10    -0.662439998013E+02   -0.42403E-02   -0.10271E-03  4536   0.142E-01    0.196E-01
RMM:  11    -0.662468247284E+02   -0.28249E-02   -0.18256E-03  5005   0.190E-01    0.671E-02
RMM:  12    -0.662471616740E+02   -0.33695E-03   -0.28414E-04  3865   0.752E-02
   1 F= -.66247162E+02 E0= -.66247162E+02  d E =-.662472E+02  mag=    -0.0000
 curvature:   0.00 expect dE= 0.000E+00 dE for cont linesearch  0.000E+00
 trial: gam= 0.00000 g(F)=  0.170E-02 g(S)=  0.166E+00 ort = 0.000E+00 (trialstep = 0.100E+01)
 search vector abs. value=  0.167E+00
 bond charge predicted
       N       E                     dE             d eps       ncg     rms          rms(c)
DAV:   1    -0.663859358646E+02   -0.13911E+00   -0.23819E-01  6832   0.247E+00    0.391E-01
RMM:   2    -0.663843544910E+02    0.15814E-02   -0.25895E-03  4688   0.193E-01    0.226E-01
RMM:   3    -0.663835919325E+02    0.76256E-03   -0.97105E-04  2781   0.111E-01
   2 F= -.66383592E+02 E0= -.66383592E+02  d E =-.136430E+00  mag=     0.0000
 trial-energy change:   -0.136430  1 .order   -0.137487   -0.167381   -0.107594
 step:   2.7996(harm=  2.7996)  dis= 0.01057  next Energy=   -66.481462 (dE=-0.234E+00)
 bond charge predicted
       N       E                     dE             d eps       ncg     rms          rms(c)
DAV:   1    -0.664904773031E+02   -0.10612E+00   -0.74416E-01  6240   0.428E+00    0.682E-01
RMM:   2    -0.664855798503E+02    0.48975E-02   -0.82197E-03  5376   0.337E-01    0.394E-01
RMM:   3    -0.664832278449E+02    0.23520E-02   -0.32111E-03  4527   0.189E-01    0.266E-02
RMM:   4    -0.664832388330E+02   -0.10988E-04   -0.12163E-05  2043   0.189E-02
   3 F= -.66483239E+02 E0= -.66483239E+02  d E =-.236077E+00  mag=     0.0000
 curvature:  -1.40 expect dE=-0.131E+01 dE for cont linesearch -0.513E-03
 trial: gam= 5.54208 g(F)=  0.911E+00 g(S)=  0.248E-01 ort = 0.783E-02 (trialstep = 0.369E-01)
 search vector abs. value=  0.616E+01
 bond charge predicted
       N       E                     dE             d eps       ncg     rms          rms(c)
DAV:   1    -0.665193834344E+02   -0.36156E-01   -0.44465E-02  7136   0.809E-01    0.162E-01
RMM:   2    -0.665190828718E+02    0.30056E-03   -0.80646E-04  2860   0.106E-01
   4 F= -.66519083E+02 E0= -.66519083E+02  d E =-.358440E-01  mag=    -0.0000
 ZBRENT: can't locate minimum, use default step
 trial-energy change:   -0.035844  1 .order   -0.036212   -0.036152   -0.036272
 step:   0.1477(harm=  0.1477)  dis= 0.00558  next Energy=   -66.628809 (dE=-0.146E+00)
 bond charge predicted
       N       E                     dE             d eps       ncg     rms          rms(c)
DAV:   1    -0.666245765455E+02   -0.10519E+00   -0.38788E-01  5376   0.240E+00    0.485E-01
RMM:   2    -0.666218432433E+02    0.27333E-02   -0.72097E-03  5334   0.307E-01    0.275E-01
RMM:   3    -0.666204355362E+02    0.14077E-02   -0.16856E-03  3426   0.123E-01    0.968E-03
RMM:   4    -0.666204443084E+02   -0.87722E-05   -0.28062E-05  2173   0.216E-02
   5 F= -.66620444E+02 E0= -.66620444E+02  d E =-.137205E+00  mag=    -0.0000
 curvature:  -0.70 expect dE=-0.503E+00 dE for cont linesearch -0.876E-01
 ZBRENT: increasing intervall
 opt :   0.3693  next Energy=   -66.792364 (dE=-0.309E+00)
 bond charge predicted
       N       E                     dE             d eps       ncg     rms          rms(c)
DAV:   1    -0.668149879176E+02   -0.19455E+00   -0.16081E+00  5440   0.479E+00    0.963E-01
RMM:   2    -0.668039418736E+02    0.11046E-01   -0.29887E-02  5376   0.617E-01    0.545E-01
RMM:   3    -0.667982546187E+02    0.56873E-02   -0.71412E-03  5374   0.247E-01    0.199E-02
RMM:   4    -0.667982760634E+02   -0.21445E-04   -0.43349E-05  2733   0.278E-02
   6 F= -.66798276E+02 E0= -.66798276E+02  d E =-.315037E+00  mag=    -0.0000
 curvature:  -1.37 expect dE=-0.590E+00 dE for cont linesearch -0.118E+00
 ZBRENT: increasing intervall
 opt :   0.8125  next Energy=   -67.053505 (dE=-0.570E+00)
 bond charge predicted
       N       E                     dE             d eps       ncg     rms          rms(c)
DAV:   1    -0.671209701245E+02   -0.32272E+00   -0.64443E+00  5376   0.941E+00    0.192E+00
RMM:   2    -0.670744685452E+02    0.46502E-01   -0.12223E-01  5376   0.121E+00    0.108E+00
RMM:   3    -0.670508873130E+02    0.23581E-01   -0.31269E-02  5376   0.506E-01    0.433E-02
RMM:   4    -0.670509819974E+02   -0.94684E-04   -0.19166E-04  3129   0.571E-02
   7 F= -.67050982E+02 E0= -.67050982E+02  d E =-.567743E+00  mag=     0.0000
 curvature:  -2.97 expect dE=-0.170E+00 dE for cont linesearch -0.860E-01
 ZBRENT: increasing intervall
 opt :   1.6989  next Energy=   -67.154797 (dE=-0.672E+00)
 bond charge predicted
       N       E                     dE             d eps       ncg     rms          rms(c)
DAV:   1    -0.674072889215E+02   -0.35640E+00   -0.25928E+01  5376   0.182E+01    0.382E+00
RMM:   2    -0.672054800907E+02    0.20181E+00   -0.51653E-01  5376   0.236E+00    0.216E+00
RMM:   3    -0.671043756774E+02    0.10110E+00   -0.14862E-01  5376   0.106E+00    0.110E-01
RMM:   4    -0.671047844714E+02   -0.40879E-03   -0.80854E-04  4114   0.117E-01
   8 F= -.67104784E+02 E0= -.67104784E+02  d E =-.621546E+00  mag=     0.0000
 curvature:  -3.59 expect dE=-0.329E+01 dE for cont linesearch -0.332E-01
 ZBRENT: bracketing found
 ZBRENT: interpolating
 opt :   1.3788  next Energy=   -67.142986 (dE=-0.660E+00)
 bond charge predicted
       N       E                     dE             d eps       ncg     rms          rms(c)
DAV:   1    -0.672001380749E+02   -0.95762E-01   -0.35968E+00  5440   0.710E+00    0.148E+00
RMM:   2    -0.671684788319E+02    0.31659E-01   -0.51882E-02  5376   0.759E-01    0.813E-01
RMM:   3    -0.671553494734E+02    0.13129E-01   -0.18443E-02  5376   0.373E-01    0.516E-02
RMM:   4    -0.671553954469E+02   -0.45974E-04   -0.13049E-04  2911   0.461E-02
   9 F= -.67155395E+02 E0= -.67155395E+02  d E =-.672157E+00  mag=    -0.0000
 curvature:  -4.13 expect dE=-0.124E+01 dE for cont linesearch -0.249E-05
 trial: gam= 0.83210 g(F)=  0.266E+00 g(S)=  0.338E-01 ort =-0.193E-02 (trialstep = 0.305E+00)
 search vector abs. value=  0.456E+01
 bond charge predicted
       N       E                     dE             d eps       ncg     rms          rms(c)
DAV:   1    -0.672322159602E+02   -0.76866E-01   -0.92732E-01  6656   0.381E+00    0.853E-01
RMM:   2    -0.672209611471E+02    0.11255E-01   -0.15458E-02  5376   0.390E-01    0.473E-01
RMM:   3    -0.672160648892E+02    0.48963E-02   -0.68815E-03  5374   0.232E-01    0.247E-02
RMM:   4    -0.672160807009E+02   -0.15812E-04   -0.39918E-05  2771   0.273E-02
  10 F= -.67216081E+02 E0= -.67216081E+02  d E =-.606853E-01  mag=     0.0000
 trial-energy change:   -0.060685  1 .order   -0.061719   -0.091015   -0.032423
 step:   0.4742(harm=  0.4742)  dis= 0.00676  next Energy=   -67.226085 (dE=-0.707E-01)
 bond charge predicted
       N       E                     dE             d eps       ncg     rms          rms(c)
DAV:   1    -0.672301145046E+02   -0.14050E-01   -0.27911E-01  6592   0.208E+00    0.472E-01
RMM:   2    -0.672266006326E+02    0.35139E-02   -0.46870E-03  5369   0.213E-01    0.261E-01
RMM:   3    -0.672251031924E+02    0.14974E-02   -0.21465E-03  4192   0.129E-01    0.165E-02
RMM:   4    -0.672251095545E+02   -0.63620E-05   -0.14394E-05  1881   0.177E-02
  11 F= -.67225110E+02 E0= -.67225110E+02  d E =-.697141E-01  mag=    -0.0000
 curvature:  -3.63 expect dE=-0.825E-02 dE for cont linesearch -0.167E-04
 trial: gam=-0.02454 g(F)=  0.224E-02 g(S)=  0.290E-04 ort = 0.458E-02 (trialstep = 0.339E+00)
 search vector abs. value=  0.480E-02
 reached required accuracy - stopping structural energy minimisation
