 running on   32 total cores
 distrk:  each k-point on   32 cores,    1 groups
 distr:  one band on    8 cores,    4 groups
 using from now: INCAR     
 vasp.5.4.4.18Apr17-6-g9f103f2a35 (build Nov 01 2019 12:17:22) complex          
  
 POSCAR found type information on POSCAR  H  Sr H  Nb H  Nb H  Sr H  Sr
 POSCAR found : 10 types and      22 ions

 ----------------------------------------------------------------------------- 
|                                                                             |
|  ADVICE TO THIS USER RUNNING 'VASP/VAMP'   (HEAR YOUR MASTER'S VOICE ...):  |
|                                                                             |
|      You have a (more or less) 'large supercell' and for larger cells       |
|      it might be more efficient to use real space projection opertators     |
|      So try LREAL= Auto  in the INCAR   file.                               |
|      Mind:          For very  accurate calculation you might also keep the  |
|      reciprocal projection scheme          (i.e. LREAL=.FALSE.)             |
|                                                                             |
 ----------------------------------------------------------------------------- 

 LDA part: xc-table for Pade appr. of Perdew
 generate k-points for:    7    7    6
 POSCAR, INCAR and KPOINTS ok, starting setup
 FFT: planning ...
 WAVECAR not read
 entering main loop
       N       E                     dE             d eps       ncg     rms          rms(c)
DAV:   1     0.336540037334E+03    0.33654E+03   -0.22343E+04 14752   0.774E+02
DAV:   2    -0.622848848253E+02   -0.39882E+03   -0.38688E+03 19072   0.328E+02
DAV:   3    -0.900997385927E+02   -0.27815E+02   -0.27608E+02 20792   0.713E+01
DAV:   4    -0.919726587103E+02   -0.18729E+01   -0.18677E+01 25688   0.169E+01
DAV:   5    -0.920233905475E+02   -0.50732E-01   -0.50722E-01 21560   0.252E+00    0.508E+01
DAV:   6    -0.873090953756E+02    0.47143E+01   -0.10557E+01 21168   0.162E+01    0.229E+01
DAV:   7    -0.861547138904E+02    0.11544E+01   -0.30546E+00 18944   0.687E+00    0.107E+01
DAV:   8    -0.861402499916E+02    0.14464E-01   -0.10164E+00 23360   0.442E+00    0.347E+00
DAV:   9    -0.861357926444E+02    0.44573E-02   -0.88831E-02 20648   0.129E+00    0.233E+00
DAV:  10    -0.861326751375E+02    0.31175E-02   -0.54002E-02 19968   0.107E+00    0.395E-01
DAV:  11    -0.861319438355E+02    0.73130E-03   -0.12541E-02 20632   0.624E-01    0.196E-01
DAV:  12    -0.861324205834E+02   -0.47675E-03   -0.11750E-03 17840   0.188E-01    0.846E-02
DAV:  13    -0.861327167503E+02   -0.29617E-03   -0.34520E-04 14808   0.822E-02    0.339E-02
DAV:  14    -0.861327501515E+02   -0.33401E-04   -0.60595E-05 12608   0.508E-02
   1 F= -.86132750E+02 E0= -.86132842E+02  d E =-.861328E+02
 curvature:   0.00 expect dE= 0.000E+00 dE for cont linesearch  0.000E+00
 trial: gam= 0.00000 g(F)=  0.264E-02 g(S)=  0.127E-02 ort = 0.000E+00 (trialstep = 0.100E+01)
 search vector abs. value=  0.391E-02
 bond charge predicted
       N       E                     dE             d eps       ncg     rms          rms(c)
DAV:   1    -0.861335141998E+02   -0.79745E-03   -0.25170E-01 16672   0.313E+00    0.531E-01
DAV:   2    -0.861352762208E+02   -0.17620E-02   -0.40391E-02 16560   0.927E-01    0.206E-01
DAV:   3    -0.861349452028E+02    0.33102E-03   -0.16557E-03 19392   0.217E-01    0.113E-01
DAV:   4    -0.861348359854E+02    0.10922E-03   -0.36876E-04 16776   0.100E-01    0.100E-01
DAV:   5    -0.861348454478E+02   -0.94625E-05   -0.67175E-05 10656   0.619E-02
   2 F= -.86134845E+02 E0= -.86134951E+02  d E =-.209530E-02
 trial-energy change:   -0.002095  1 .order   -0.002225   -0.003913   -0.000537
 step:   1.1590(harm=  1.1590)  dis= 0.00699  next Energy=   -86.135018 (dE=-0.227E-02)
 bond charge predicted
       N       E                     dE             d eps       ncg     rms          rms(c)
DAV:   1    -0.861348331012E+02    0.28841E-05   -0.62417E-03 17608   0.496E-01    0.101E-01
DAV:   2    -0.861348587633E+02   -0.25662E-04   -0.98888E-04 16296   0.147E-01
   3 F= -.86134859E+02 E0= -.86134967E+02  d E =-.210861E-02
 curvature:  -0.58 expect dE=-0.161E-02 dE for cont linesearch -0.384E-06
 trial: gam= 0.72230 g(F)=  0.240E-02 g(S)=  0.373E-03 ort =-0.509E-04 (trialstep = 0.851E+00)
 search vector abs. value=  0.474E-02
 bond charge predicted
       N       E                     dE             d eps       ncg     rms          rms(c)
DAV:   1    -0.861364535653E+02   -0.16205E-02   -0.13298E-01 14568   0.195E+00    0.376E-01
DAV:   2    -0.861361942133E+02    0.25935E-03   -0.10728E-02 16992   0.585E-01    0.146E-01
DAV:   3    -0.861359046618E+02    0.28955E-03   -0.79478E-04 18920   0.144E-01    0.900E-02
DAV:   4    -0.861358524922E+02    0.52170E-04   -0.18538E-04 11472   0.775E-02
   4 F= -.86135852E+02 E0= -.86135956E+02  d E =-.993729E-03
 trial-energy change:   -0.000994  1 .order   -0.001231   -0.002331   -0.000131
 step:   0.9020(harm=  0.9020)  dis= 0.00436  next Energy=   -86.136094 (dE=-0.124E-02)
 bond charge predicted
       N       E                     dE             d eps       ncg     rms          rms(c)
DAV:   1    -0.861358622335E+02    0.42428E-04   -0.51790E-04 15448   0.137E-01    0.702E-02
DAV:   2    -0.861358552998E+02    0.69338E-05   -0.57873E-05 10320   0.516E-02
   5 F= -.86135855E+02 E0= -.86135958E+02  d E =-.996536E-03
 curvature:  -0.78 expect dE=-0.163E-02 dE for cont linesearch -0.131E-05
 trial: gam= 0.67395 g(F)=  0.150E-02 g(S)=  0.589E-03 ort =-0.890E-04 (trialstep = 0.861E+00)
 search vector abs. value=  0.412E-02
 reached required accuracy - stopping structural energy minimisation
