unknown system                          
           1
     2.829572   -0.075446    0.046239
    -0.014441    8.140364   -0.806006
     0.206575   -0.552153    6.206315
   H 
  23
Direct configuration=     1
   0.06669600  0.23016000  0.17657400
   0.05259700  0.14447900  0.20140100
   0.55386800  0.97258400  0.16326000
   0.57813300  0.39538700  0.19358400
   0.58191100  0.48018600  0.16641000
   0.56991300  0.88307000  0.16999900
   0.74846800  0.62390500  0.86615500
   0.72783100  0.53252200  0.86299300
   0.18556000  0.35625900  0.84844800
   0.17122900  0.26683300  0.85731500
   0.38096900  0.77378300  0.62035400
   0.36195600  0.68935800  0.64930400
   0.08522400  0.64447500  0.21700100
   0.08109000  0.73196100  0.19912500
   0.03515100  0.49449500  0.48945100
   0.56523200  0.15454200  0.53417100
   0.56434000  0.23920400  0.50665000
   0.04156700  0.98783200  0.47296200
   0.06760600  0.41145600  0.51863900
   0.98327500  0.90112600  0.48740500
   0.91408900  0.00677500  0.84718400
   0.58276400  0.01135200  0.84034000
   0.24747700  0.00779200  0.84605200
unknown system                          
           1
     2.863559   -0.076518    0.047230
    -0.015516    8.226781   -0.815850
     0.210045   -0.558049    6.281984
   H 
  23
Direct configuration=     2
   0.06704146  0.23015828  0.17633692
   0.05285738  0.14448882  0.20144804
   0.55374659  0.97240082  0.16281831
   0.57840516  0.39543636  0.19367375
   0.58217898  0.48013452  0.16625220
   0.57019184  0.88288089  0.16957757
   0.74820577  0.62408444  0.86644790
   0.72727753  0.53263526  0.86303716
   0.18482758  0.35635431  0.84862638
   0.17029679  0.26672349  0.85720671
   0.38153364  0.77390846  0.62017613
   0.36233591  0.68929923  0.64919940
   0.08544387  0.64438504  0.21749397
   0.08125025  0.73193449  0.19946544
   0.03492202  0.49441494  0.48953080
   0.56531345  0.15456893  0.53432548
   0.56431536  0.23907314  0.50650274
   0.04179221  0.98770875  0.47299240
   0.06780810  0.41148766  0.51892869
   0.98281859  0.90116117  0.48736573
   0.91424758  0.00692700  0.84710376
   0.58261487  0.01147588  0.84030846
   0.24752106  0.00789412  0.84595904
unknown system                          
           1
     2.965522   -0.079734    0.050202
    -0.018739    8.486033   -0.845382
     0.220454   -0.575735    6.508992
   H 
  23
Direct configuration=     3
   0.06806578  0.23015325  0.17563418
   0.05362921  0.14451798  0.20158740
   0.55338695  0.97185718  0.16150914
   0.57921192  0.39558286  0.19393974
   0.58297348  0.47998175  0.16578442
   0.57101866  0.88231965  0.16832833
   0.74742828  0.62461703  0.86731616
   0.72563689  0.53297143  0.86316824
   0.18265629  0.35663715  0.84915526
   0.16753336  0.26639841  0.85688587
   0.38320776  0.77428099  0.61964893
   0.36346217  0.68912481  0.64888927
   0.08609509  0.64411786  0.21895497
   0.08172493  0.73185568  0.20047440
   0.03424307  0.49417724  0.48976733
   0.56555476  0.15464883  0.53478335
   0.56424236  0.23868473  0.50606620
   0.04245968  0.98734287  0.47308238
   0.06840697  0.41158158  0.51978728
   0.98146568  0.90126556  0.48724946
   0.91471791  0.00737824  0.84686601
   0.58217293  0.01184364  0.84021509
   0.24765187  0.00819729  0.84568359
unknown system                          
           1
     2.975130   -0.080023    0.050482
    -0.019171    8.505218   -0.846656
     0.221463   -0.575823    6.531078
   H 
  23
Direct configuration=     4
   0.06811691  0.22988619  0.17565035
   0.05374322  0.14478696  0.20152208
   0.55340764  0.97154280  0.16141064
   0.57929562  0.39583686  0.19388559
   0.58303658  0.47972679  0.16582117
   0.57104247  0.88253259  0.16819673
   0.74729162  0.62439098  0.86738357
   0.72555195  0.53327734  0.86319337
   0.18240686  0.35636537  0.84923028
   0.16732922  0.26666881  0.85683033
   0.38329087  0.77401745  0.61970193
   0.36363648  0.68940627  0.64875822
   0.08613923  0.64437287  0.21902866
   0.08178291  0.73156802  0.20062645
   0.03427999  0.49391483  0.48987569
   0.56557288  0.15488758  0.53474517
   0.56423855  0.23841680  0.50610426
   0.04236595  0.98709137  0.47312516
   0.06836219  0.41182948  0.51977831
   0.98149698  0.90149321  0.48720162
   0.91473627  0.00742803  0.84683197
   0.58216136  0.01186598  0.84022320
   0.24766025  0.00822940  0.84565226
unknown system                          
           1
     3.003957   -0.080892    0.051322
    -0.020465    8.562774   -0.850480
     0.224489   -0.576087    6.597334
   H 
  23
Direct configuration=     5
   0.06826971  0.22908681  0.17569874
   0.05408428  0.14559210  0.20132667
   0.55346943  0.97060186  0.16111625
   0.57954603  0.39659716  0.19372359
   0.58322512  0.47896362  0.16593111
   0.57111380  0.88317005  0.16780318
   0.74688285  0.62371433  0.86758519
   0.72529808  0.53419300  0.86326844
   0.18166084  0.35555182  0.84945467
   0.16671889  0.26747821  0.85666421
   0.38353925  0.77322859  0.61986046
   0.36415786  0.69024884  0.64836629
   0.08627129  0.64513615  0.21924890
   0.08195615  0.73070690  0.20108111
   0.03439027  0.49312932  0.49019976
   0.56562719  0.15560224  0.53463096
   0.56422702  0.23761479  0.50621814
   0.04208558  0.98633857  0.47325314
   0.06822837  0.41257152  0.51975145
   0.98159066  0.90217465  0.48705851
   0.91479119  0.00757711  0.84673020
   0.58212679  0.01193287  0.84024746
   0.24768533  0.00832551  0.84555857
unknown system                          
           1
     3.061609   -0.082629    0.053001
    -0.023054    8.677885   -0.858127
     0.230541   -0.576615    6.729846
   H 
  23
Direct configuration=     6
   0.06857169  0.22749877  0.17579500
   0.05476061  0.14719180  0.20093931
   0.55359120  0.96873304  0.16053398
   0.58004273  0.39810773  0.19340241
   0.58359792  0.47744743  0.16614920
   0.57125580  0.88443690  0.16702369
   0.74607250  0.62236988  0.86798478
   0.72479591  0.53601187  0.86341654
   0.18018235  0.35393538  0.84989945
   0.16551070  0.26908631  0.85633494
   0.38403054  0.77166128  0.62017475
   0.36519150  0.69192313  0.64758984
   0.08653339  0.64665213  0.21968446
   0.08229837  0.72899566  0.20198173
   0.03460792  0.49156845  0.49084177
   0.56573541  0.15702208  0.53440442
   0.56420348  0.23602142  0.50644408
   0.04152954  0.98484292  0.47350696
   0.06796393  0.41404561  0.51969783
   0.98177686  0.90352855  0.48677478
   0.91490015  0.00787338  0.84652863
   0.58205835  0.01206571  0.84029544
   0.24773515  0.00851656  0.84537303
unknown system                          
           1
     3.176913   -0.086103    0.056360
    -0.028232    8.908109   -0.873421
     0.242645   -0.577672    6.994871
   H 
  23
Direct configuration=     7
   0.06916170  0.22436467  0.17598543
   0.05609072  0.15034966  0.20017803
   0.55382779  0.96504657  0.15939462
   0.58102015  0.40108954  0.19277098
   0.58432688  0.47445482  0.16657835
   0.57153722  0.88693889  0.16549419
   0.74447980  0.61971570  0.86876978
   0.72381321  0.53960087  0.86370491
   0.17727804  0.35074431  0.85077348
   0.16314265  0.27226056  0.85568788
   0.38499184  0.76856757  0.62079252
   0.36722327  0.69522918  0.64606565
   0.08704968  0.64964269  0.22053653
   0.08296633  0.72561643  0.20374906
   0.03503191  0.48848661  0.49210202
   0.56595024  0.15982457  0.53395870
   0.56415454  0.23287649  0.50688878
   0.04043578  0.98189075  0.47400635
   0.06744738  0.41695474  0.51959112
   0.98214466  0.90620107  0.48621701
   0.91511463  0.00845855  0.84613314
   0.58192421  0.01232773  0.84038937
   0.24783338  0.00889405  0.84500908
unknown system                          
           1
     3.095280   -0.083643    0.053982
    -0.024566    8.745116   -0.862593
     0.234075   -0.576924    6.807239
   H 
  23
Direct configuration=     8
   0.06876255  0.22652638  0.17585348
   0.05517940  0.14817057  0.20069897
   0.55366949  0.96758700  0.16016773
   0.58034973  0.39903209  0.19320331
   0.58383293  0.47651935  0.16628397
   0.57134160  0.88521085  0.16653761
   0.74556978  0.62154748  0.86823304
   0.72448012  0.53712625  0.86351111
   0.17926353  0.35294652  0.85017554
   0.16475460  0.27007043  0.85613057
   0.38433960  0.77070214  0.62036965
   0.36583256  0.69294660  0.64710629
   0.08669484  0.64758169  0.21995863
   0.08251527  0.72794984  0.20254315
   0.03474667  0.49061408  0.49124160
   0.56580044  0.15789110  0.53426434
   0.56419151  0.23504611  0.50658360
   0.04118546  0.98392755  0.47366394
   0.06779670  0.41494832  0.51966590
   0.98189055  0.90435705  0.48659887
   0.91496742  0.00805432  0.84640292
   0.58201552  0.01214719  0.84032559
   0.24776572  0.00863310  0.84525721
unknown system                          
           1
     3.113771   -0.084236    0.054590
    -0.025065    8.797036   -0.867776
     0.235977   -0.579439    6.857449
   H 
  23
Direct configuration=     9
   0.06894016  0.22633876  0.17577388
   0.05534774  0.14835910  0.20069465
   0.55363045  0.96733358  0.15993967
   0.58050084  0.39917362  0.19323455
   0.58397973  0.47637035  0.16622467
   0.57148590  0.88525004  0.16630942
   0.74539575  0.62148757  0.86840167
   0.72420300  0.53736283  0.86354200
   0.17882357  0.35280871  0.85030257
   0.16425761  0.27021497  0.85604075
   0.38460340  0.77051605  0.62034987
   0.36611916  0.69316750  0.64695466
   0.08680240  0.64772096  0.22019174
   0.08260986  0.72773173  0.20277646
   0.03465296  0.49043636  0.49132145
   0.56583856  0.15800069  0.53432591
   0.56416571  0.23487868  0.50651987
   0.04127518  0.98378093  0.47368042
   0.06786590  0.41509563  0.51978384
   0.98166608  0.90445139  0.48655222
   0.91494810  0.00819474  0.84627029
   0.58205535  0.01213854  0.84042456
   0.24777861  0.00872327  0.84516188
unknown system                          
           1
     3.169245   -0.086015    0.056413
    -0.026559    8.952794   -0.883326
     0.241682   -0.586985    7.008080
   H 
  23
Direct configuration=    10
   0.06946975  0.22577928  0.17553682
   0.05584984  0.14892138  0.20068176
   0.55351395  0.96657796  0.15926051
   0.58095151  0.39959570  0.19332757
   0.58441747  0.47592602  0.16604806
   0.57191630  0.88536706  0.16562987
   0.74487671  0.62130881  0.86890389
   0.72337662  0.53806836  0.86363402
   0.17751144  0.35239764  0.85068089
   0.16277553  0.27064607  0.85577334
   0.38539007  0.76996108  0.62029090
   0.36697398  0.69382639  0.64650309
   0.08712317  0.64813616  0.22088595
   0.08289184  0.72708111  0.20347124
   0.03437341  0.48990629  0.49155925
   0.56595227  0.15832749  0.53450924
   0.56408871  0.23437936  0.50633012
   0.04154267  0.98334367  0.47372948
   0.06807229  0.41553490  0.52013505
   0.98099671  0.90473276  0.48641331
   0.91489053  0.00861357  0.84587533
   0.58217413  0.01211270  0.84071930
   0.24781707  0.00899223  0.84487801
unknown system                          
           1
     3.160210   -0.085775    0.056216
    -0.025843    8.949052   -0.883775
     0.240642   -0.587933    6.999387
   H 
  23
Direct configuration=    11
   0.06950659  0.22606700  0.17546525
   0.05577229  0.14862797  0.20078682
   0.55348248  0.96681350  0.15928072
   0.58091645  0.39944174  0.19338395
   0.58440476  0.47607408  0.16600465
   0.57195335  0.88515769  0.16569626
   0.74497303  0.62156531  0.86890434
   0.72334901  0.53779843  0.86361843
   0.17762910  0.35272445  0.85064996
   0.16278718  0.27033436  0.85579608
   0.38546111  0.77040785  0.62014384
   0.36684992  0.69336975  0.64666022
   0.08711766  0.64780676  0.22091686
   0.08285788  0.72741076  0.20337951
   0.03429953  0.49010308  0.49147650
   0.56593766  0.15822063  0.53453536
   0.56407747  0.23449758  0.50629981
   0.04159023  0.98343575  0.47370131
   0.06813924  0.41534178  0.52018366
   0.98096258  0.90464349  0.48641980
   0.91486399  0.00864387  0.84580546
   0.58220351  0.01203337  0.84082021
   0.24781097  0.00901681  0.84484798
unknown system                          
           1
     3.154955   -0.085635    0.056101
    -0.025427    8.946876   -0.884037
     0.240037   -0.588484    6.994330
   H 
  23
Direct configuration=    12
   0.06952803  0.22623442  0.17542359
   0.05572711  0.14845724  0.20084798
   0.55346409  0.96695057  0.15929251
   0.58089603  0.39935215  0.19341678
   0.58439732  0.47616023  0.16597938
   0.57197500  0.88503586  0.16573492
   0.74502919  0.62171457  0.86890463
   0.72333294  0.53764136  0.86360933
   0.17769769  0.35291462  0.85063197
   0.16279402  0.27015297  0.85580930
   0.38550247  0.77066782  0.62005822
   0.36677764  0.69310403  0.64675171
   0.08711450  0.64761508  0.22093484
   0.08283801  0.72760257  0.20332610
   0.03425640  0.49021758  0.49142832
   0.56592915  0.15815845  0.53455057
   0.56407090  0.23456638  0.50628217
   0.04161795  0.98348933  0.47368491
   0.06817833  0.41522940  0.52021196
   0.98094268  0.90459155  0.48642357
   0.91484849  0.00866149  0.84576477
   0.58222067  0.01198722  0.84087898
   0.24780741  0.00903111  0.84483049
