       N       E                     dE             d eps       ncg     rms          rms(c)
DAV:   1     0.167461082547E+03    0.16746E+03   -0.13127E+04 10368   0.666E+02
DAV:   2    -0.153147233626E+02   -0.18278E+03   -0.17852E+03 11540   0.268E+02
DAV:   3    -0.320137004601E+02   -0.16699E+02   -0.16513E+02 14276   0.596E+01
DAV:   4    -0.331405941864E+02   -0.11269E+01   -0.11197E+01 14416   0.142E+01
DAV:   5    -0.331727648771E+02   -0.32171E-01   -0.32141E-01 14064   0.207E+00    0.470E+01
DAV:   6    -0.291946743258E+02    0.39781E+01   -0.14089E+01 12856   0.172E+01    0.205E+01
DAV:   7    -0.306076962352E+02   -0.14130E+01   -0.28547E+01 15136   0.174E+01    0.124E+01
DAV:   8    -0.285326098915E+02    0.20751E+01   -0.11912E+01 13872   0.993E+00    0.525E+00
DAV:   9    -0.285119075736E+02    0.20702E-01   -0.81881E-01 10076   0.238E+00    0.193E+00
DAV:  10    -0.285180555096E+02   -0.61479E-02   -0.15556E-01 15216   0.125E+00    0.751E-01
DAV:  11    -0.285217539057E+02   -0.36984E-02   -0.83575E-02 14396   0.757E-01    0.488E-01
DAV:  12    -0.285210289833E+02    0.72492E-03   -0.23299E-02 14236   0.440E-01    0.127E-01
DAV:  13    -0.285220866786E+02   -0.10577E-02   -0.12790E-03  8904   0.146E-01    0.573E-02
DAV:  14    -0.285223947171E+02   -0.30804E-03   -0.29061E-04  9320   0.805E-02    0.280E-02
DAV:  15    -0.285224965029E+02   -0.10179E-03   -0.11066E-04  7584   0.559E-02    0.182E-02
DAV:  16    -0.285225089021E+02   -0.12399E-04   -0.17914E-05  6288   0.343E-02
   1 F= -.28522509E+02 E0= -.28522318E+02  d E =-.285225E+02
       N       E                     dE             d eps       ncg     rms          rms(c)
DAV:   1    -0.292262241800E+02   -0.70373E+00   -0.39544E+02  8848   0.105E+02    0.170E+01
DAV:   2    -0.317997123280E+02   -0.25735E+01   -0.41963E+01 12152   0.304E+01    0.134E+01
DAV:   3    -0.319256508906E+02   -0.12594E+00   -0.19565E+01 16824   0.107E+01    0.103E+01
DAV:   4    -0.313848417814E+02    0.54081E+00   -0.32532E+00 14696   0.532E+00    0.647E+00
DAV:   5    -0.314223927120E+02   -0.37551E-01   -0.40440E-01 12664   0.221E+00    0.216E+00
DAV:   6    -0.313814904476E+02    0.40902E-01   -0.71144E-01 13532   0.152E+00    0.100E+00
DAV:   7    -0.313771910915E+02    0.42994E-02   -0.22434E-02 10348   0.364E-01    0.541E-01
DAV:   8    -0.313765553789E+02    0.63571E-03   -0.18593E-02 13704   0.308E-01    0.153E-01
DAV:   9    -0.313763317265E+02    0.22365E-03   -0.26656E-03 10172   0.130E-01    0.480E-02
DAV:  10    -0.313763565852E+02   -0.24859E-04   -0.10863E-04  6300   0.422E-02
   2 F= -.31376357E+02 E0= -.31376153E+02  d E =-.285385E+01
       N       E                     dE             d eps       ncg     rms          rms(c)
DAV:   1    -0.315617830586E+02   -0.18545E+00   -0.47067E+01  8848   0.360E+01    0.388E+00
DAV:   2    -0.318171447031E+02   -0.25536E+00   -0.44018E+00 11832   0.954E+00    0.389E+00
DAV:   3    -0.317184529335E+02    0.98692E-01   -0.26381E+00 16504   0.323E+00    0.213E+00
DAV:   4    -0.316811141567E+02    0.37339E-01   -0.26686E-01 13808   0.137E+00    0.979E-01
DAV:   5    -0.316811257897E+02   -0.11633E-04   -0.17517E-02 11824   0.547E-01    0.321E-01
DAV:   6    -0.316804572985E+02    0.66849E-03   -0.69471E-03 11888   0.238E-01    0.911E-02
DAV:   7    -0.316804878233E+02   -0.30525E-04   -0.27413E-04  7968   0.865E-02
   3 F= -.31680488E+02 E0= -.31679924E+02  d E =-.315798E+01
       N       E                     dE             d eps       ncg     rms          rms(c)
DAV:   1    -0.308170993727E+02    0.86336E+00   -0.19034E+02  8848   0.709E+01    0.797E+00
DAV:   2    -0.317730850863E+02   -0.95599E+00   -0.16299E+01 11912   0.189E+01    0.663E+00
DAV:   3    -0.317132365610E+02    0.59849E-01   -0.89459E+00 16448   0.605E+00    0.400E+00
DAV:   4    -0.315107165827E+02    0.20252E+00   -0.99757E-01 13880   0.294E+00    0.185E+00
DAV:   5    -0.315128792691E+02   -0.21627E-02   -0.15275E-01 12420   0.111E+00    0.923E-01
DAV:   6    -0.315076425037E+02    0.52368E-02   -0.68751E-02 12472   0.533E-01    0.281E-01
DAV:   7    -0.315078910007E+02   -0.24850E-03   -0.16381E-03 12752   0.204E-01    0.156E-01
DAV:   8    -0.315078951059E+02   -0.41052E-05   -0.10385E-03  8412   0.837E-02    0.401E-02
DAV:   9    -0.315079150259E+02   -0.19920E-04   -0.13741E-04  6304   0.565E-02
   4 F= -.31507915E+02 E0= -.31506803E+02  d E =-.298541E+01
       N       E                     dE             d eps       ncg     rms          rms(c)
DAV:   1    -0.315228717349E+02   -0.14977E-01   -0.86918E+01  9272   0.481E+01    0.527E+00
DAV:   2    -0.319571971415E+02   -0.43433E+00   -0.78309E+00 11672   0.129E+01    0.443E+00
DAV:   3    -0.317618211064E+02    0.19538E+00   -0.22867E+00 16328   0.413E+00    0.250E+00
DAV:   4    -0.317479840025E+02    0.13837E-01   -0.54344E-01 13656   0.167E+00    0.168E+00
DAV:   5    -0.317425638782E+02    0.54201E-02   -0.28105E-01 12348   0.987E-01    0.724E-01
DAV:   6    -0.317364915545E+02    0.60723E-02   -0.54367E-02 11424   0.386E-01    0.184E-01
DAV:   7    -0.317366437055E+02   -0.15215E-03   -0.22225E-03 11588   0.157E-01    0.112E-01
DAV:   8    -0.317365976724E+02    0.46033E-04   -0.97593E-04  7736   0.823E-02
   5 F= -.31736598E+02 E0= -.31735871E+02  d E =-.321409E+01
       N       E                     dE             d eps       ncg     rms          rms(c)
DAV:   1    -0.327512749713E+02   -0.10146E+01   -0.10819E+02  8848   0.738E+01    0.805E+00
DAV:   2    -0.335935130991E+02   -0.84224E+00   -0.21248E+01 12720   0.207E+01    0.734E+00
DAV:   3    -0.330254871902E+02    0.56803E+00   -0.13032E+01 14616   0.885E+00    0.306E+00
DAV:   4    -0.328648228406E+02    0.16066E+00   -0.63299E-01 15544   0.324E+00    0.190E+00
DAV:   5    -0.328516183507E+02    0.13204E-01   -0.16160E-01 14856   0.134E+00    0.132E+00
DAV:   6    -0.328543987335E+02   -0.27804E-02   -0.40754E-02 16048   0.620E-01    0.474E-01
DAV:   7    -0.328544205640E+02   -0.21831E-04   -0.85264E-03 16664   0.316E-01    0.172E-01
DAV:   8    -0.328545381070E+02   -0.11754E-03   -0.11813E-03 12472   0.132E-01    0.611E-02
DAV:   9    -0.328545791699E+02   -0.41063E-04   -0.61180E-05  6300   0.505E-02
   6 F= -.32854579E+02 E0= -.32854226E+02  d E =-.111798E+01
       N       E                     dE             d eps       ncg     rms          rms(c)
DAV:   1    -0.331775379631E+02   -0.32300E+00   -0.25119E+02 10112   0.114E+02    0.143E+01
DAV:   2    -0.341895117289E+02   -0.10120E+01   -0.33330E+01 12060   0.292E+01    0.753E+00
DAV:   3    -0.337601861599E+02    0.42933E+00   -0.14446E+01 16552   0.121E+01    0.426E+00
DAV:   4    -0.335264637549E+02    0.23372E+00   -0.95160E-01 13376   0.464E+00    0.280E+00
DAV:   5    -0.335176468729E+02    0.88169E-02   -0.21290E-01 15512   0.186E+00    0.179E+00
DAV:   6    -0.335252898070E+02   -0.76429E-02   -0.32283E-02 16152   0.691E-01    0.673E-01
DAV:   7    -0.335274532470E+02   -0.21634E-02   -0.67571E-03 17088   0.374E-01    0.199E-01
DAV:   8    -0.335276619139E+02   -0.20867E-03   -0.61833E-04 10132   0.119E-01    0.827E-02
DAV:   9    -0.335277233048E+02   -0.61391E-04   -0.15625E-04  7952   0.674E-02
   7 F= -.33527723E+02 E0= -.33527212E+02  d E =-.179113E+01
       N       E                     dE             d eps       ncg     rms          rms(c)
DAV:   1    -0.340046541907E+02   -0.47699E+00   -0.74315E+01  8912   0.663E+01    0.835E+00
DAV:   2    -0.344559140591E+02   -0.45126E+00   -0.10105E+01  9928   0.177E+01    0.304E+00
DAV:   3    -0.343772108015E+02    0.78703E-01   -0.65107E-01 13368   0.397E+00    0.170E+00
DAV:   4    -0.343566874295E+02    0.20523E-01   -0.14248E-01 16004   0.210E+00    0.126E+00
DAV:   5    -0.343562597280E+02    0.42770E-03   -0.23624E-02 15976   0.677E-01    0.759E-01
DAV:   6    -0.343580261870E+02   -0.17665E-02   -0.12730E-02 17508   0.591E-01    0.191E-01
DAV:   7    -0.343581999566E+02   -0.17377E-03   -0.10716E-03 11556   0.149E-01    0.831E-02
DAV:   8    -0.343582370513E+02   -0.37095E-04   -0.97287E-05  7584   0.554E-02
   8 F= -.34358237E+02 E0= -.34357219E+02  d E =-.830514E+00
       N       E                     dE             d eps       ncg     rms          rms(c)
DAV:   1    -0.342925947081E+02    0.65605E-01   -0.89422E+01  9504   0.729E+01    0.982E+00
DAV:   2    -0.347929351900E+02   -0.50034E+00   -0.10965E+01  9960   0.186E+01    0.345E+00
DAV:   3    -0.347153330187E+02    0.77602E-01   -0.53413E-01 14352   0.392E+00    0.172E+00
DAV:   4    -0.346994452470E+02    0.15888E-01   -0.13235E-01 15988   0.218E+00    0.123E+00
DAV:   5    -0.347016257583E+02   -0.21805E-02   -0.20569E-02 13896   0.662E-01    0.753E-01
DAV:   6    -0.347039929772E+02   -0.23672E-02   -0.13502E-02 17648   0.632E-01    0.187E-01
DAV:   7    -0.347039285689E+02    0.64408E-04   -0.14120E-03 13736   0.197E-01    0.103E-01
DAV:   8    -0.347039797127E+02   -0.51144E-04   -0.11909E-04  7560   0.705E-02
   9 F= -.34703980E+02 E0= -.34702980E+02  d E =-.117626E+01
       N       E                     dE             d eps       ncg     rms          rms(c)
DAV:   1    -0.355154711908E+02   -0.81154E+00   -0.80388E+01  8976   0.657E+01    0.729E+00
DAV:   2    -0.359377896676E+02   -0.42232E+00   -0.68202E+00  9896   0.157E+01    0.270E+00
DAV:   3    -0.359089663502E+02    0.28823E-01   -0.32801E-01 13752   0.338E+00    0.153E+00
DAV:   4    -0.359030272847E+02    0.59391E-02   -0.58021E-02 15576   0.142E+00    0.565E-01
DAV:   5    -0.359023184318E+02    0.70885E-03   -0.13064E-02 13204   0.680E-01    0.308E-01
DAV:   6    -0.359024932917E+02   -0.17486E-03   -0.16040E-03 11568   0.227E-01    0.862E-02
DAV:   7    -0.359025724474E+02   -0.79156E-04   -0.15454E-04  8124   0.729E-02
  10 F= -.35902572E+02 E0= -.35901807E+02  d E =-.119859E+01
       N       E                     dE             d eps       ncg     rms          rms(c)
DAV:   1    -0.359790871570E+02   -0.76594E-01   -0.15410E+02  8848   0.904E+01    0.953E+00
DAV:   2    -0.367336051275E+02   -0.75452E+00   -0.12554E+01  9980   0.216E+01    0.355E+00
DAV:   3    -0.366759763701E+02    0.57629E-01   -0.68559E-01 15032   0.472E+00    0.198E+00
DAV:   4    -0.366634122910E+02    0.12564E-01   -0.10695E-01 15168   0.173E+00    0.853E-01
DAV:   5    -0.366612976130E+02    0.21147E-02   -0.30532E-02 13420   0.102E+00    0.452E-01
DAV:   6    -0.366616805717E+02   -0.38296E-03   -0.33380E-03 11236   0.317E-01    0.136E-01
DAV:   7    -0.366618570902E+02   -0.17652E-03   -0.35675E-04  9636   0.109E-01    0.491E-02
DAV:   8    -0.366619119654E+02   -0.54875E-04   -0.77680E-05  7928   0.675E-02
  11 F= -.36661912E+02 E0= -.36661463E+02  d E =-.195793E+01
       N       E                     dE             d eps       ncg     rms          rms(c)
DAV:   1    -0.377421405809E+02   -0.10803E+01   -0.85880E+01  8848   0.532E+01    0.745E+00
DAV:   2    -0.377689342890E+02   -0.26794E-01   -0.40517E+00 12248   0.131E+01    0.309E+00
DAV:   3    -0.377043592417E+02    0.64575E-01   -0.25598E-01 14412   0.255E+00    0.125E+00
DAV:   4    -0.376991505510E+02    0.52087E-02   -0.41547E-02 12896   0.121E+00    0.536E-01
DAV:   5    -0.376997277727E+02   -0.57722E-03   -0.11974E-02 14216   0.547E-01    0.224E-01
DAV:   6    -0.376997373119E+02   -0.95392E-05   -0.27684E-03 13872   0.256E-01    0.835E-02
DAV:   7    -0.376998096118E+02   -0.72300E-04   -0.17911E-04  7680   0.727E-02
  12 F= -.37699810E+02 E0= -.37699209E+02  d E =-.103790E+01
       N       E                     dE             d eps       ncg     rms          rms(c)
DAV:   1    -0.377347585264E+02   -0.35021E-01   -0.26917E+00  8856   0.942E+00    0.120E+00
DAV:   2    -0.377334386749E+02    0.13199E-02   -0.11153E-01 12176   0.228E+00    0.553E-01
DAV:   3    -0.377313414697E+02    0.20972E-02   -0.10426E-02 14592   0.514E-01    0.207E-01
DAV:   4    -0.377310968131E+02    0.24466E-03   -0.31185E-03 13672   0.288E-01    0.130E-01
DAV:   5    -0.377310493007E+02    0.47512E-04   -0.65841E-04 10740   0.129E-01
  13 F= -.37731049E+02 E0= -.37730447E+02  d E =-.106914E+01
       N       E                     dE             d eps       ncg     rms          rms(c)
DAV:   1    -0.378775416669E+02   -0.14644E+00   -0.45016E+01 10112   0.531E+01    0.424E+00
DAV:   2    -0.381253549976E+02   -0.24781E+00   -0.53709E+00 10208   0.128E+01    0.231E+00
DAV:   3    -0.380977293140E+02    0.27626E-01   -0.26431E-01 12992   0.279E+00    0.110E+00
DAV:   4    -0.380882584779E+02    0.94708E-02   -0.47519E-02 15264   0.132E+00    0.736E-01
DAV:   5    -0.380879652888E+02    0.29319E-03   -0.89804E-03 13612   0.451E-01    0.424E-01
DAV:   6    -0.380884844582E+02   -0.51917E-03   -0.25090E-03 17384   0.242E-01    0.967E-02
DAV:   7    -0.380884724582E+02    0.12000E-04   -0.44720E-04 10160   0.109E-01
  14 F= -.38088472E+02 E0= -.38087973E+02  d E =-.357423E+00
       N       E                     dE             d eps       ncg     rms          rms(c)
DAV:   1    -0.380282659470E+02    0.60219E-01   -0.28893E+01 10112   0.429E+01    0.339E+00
DAV:   2    -0.381955959397E+02   -0.16733E+00   -0.35260E+00 10156   0.103E+01    0.169E+00
DAV:   3    -0.381792481014E+02    0.16348E-01   -0.16283E-01 13016   0.220E+00    0.849E-01
DAV:   4    -0.381731303373E+02    0.61178E-02   -0.30582E-02 15804   0.105E+00    0.555E-01
DAV:   5    -0.381729690772E+02    0.16126E-03   -0.51270E-03 12968   0.347E-01    0.328E-01
DAV:   6    -0.381732910736E+02   -0.32200E-03   -0.16074E-03 17596   0.187E-01    0.705E-02
DAV:   7    -0.381732869643E+02    0.41094E-05   -0.18725E-04  6844   0.804E-02
  15 F= -.38173287E+02 E0= -.38172788E+02  d E =-.442238E+00
       N       E                     dE             d eps       ncg     rms          rms(c)
DAV:   1    -0.385403901020E+02   -0.36710E+00   -0.20723E+01  8848   0.309E+01    0.401E+00
DAV:   2    -0.384687404195E+02    0.71650E-01   -0.26188E+00 13104   0.105E+01    0.238E+00
DAV:   3    -0.384253971904E+02    0.43343E-01   -0.29839E-01 13856   0.282E+00    0.963E-01
DAV:   4    -0.384139428203E+02    0.11454E-01   -0.49862E-02 15824   0.127E+00    0.821E-01
DAV:   5    -0.384143260475E+02   -0.38323E-03   -0.59579E-03 15508   0.307E-01    0.528E-01
DAV:   6    -0.384150362152E+02   -0.71017E-03   -0.40210E-03 17692   0.277E-01    0.816E-02
DAV:   7    -0.384150603394E+02   -0.24124E-04   -0.25514E-04  8944   0.812E-02
  16 F= -.38415060E+02 E0= -.38414526E+02  d E =-.241773E+00
       N       E                     dE             d eps       ncg     rms          rms(c)
DAV:   1    -0.398661167458E+02   -0.14511E+01   -0.18837E+02  8848   0.929E+01    0.151E+01
DAV:   2    -0.391791952649E+02    0.68692E+00   -0.22850E+01 12976   0.311E+01    0.735E+00
DAV:   3    -0.388428850493E+02    0.33631E+00   -0.23846E+00 14080   0.852E+00    0.302E+00
DAV:   4    -0.387571000934E+02    0.85785E-01   -0.58076E-01 16016   0.447E+00    0.227E+00
DAV:   5    -0.387601260177E+02   -0.30259E-02   -0.70532E-02 14244   0.115E+00    0.152E+00
DAV:   6    -0.387695800969E+02   -0.94541E-02   -0.29648E-02 17568   0.737E-01    0.340E-01
DAV:   7    -0.387697868973E+02   -0.20680E-03   -0.19239E-03 12688   0.225E-01    0.121E-01
DAV:   8    -0.387698216165E+02   -0.34719E-04   -0.26789E-04  8648   0.105E-01
  17 F= -.38769822E+02 E0= -.38769345E+02  d E =-.596535E+00
       N       E                     dE             d eps       ncg     rms          rms(c)
DAV:   1    -0.392938436347E+02   -0.52406E+00   -0.29607E+01 10016   0.352E+01    0.524E+00
DAV:   2    -0.391225404710E+02    0.17130E+00   -0.27603E+00 12024   0.112E+01    0.252E+00
DAV:   3    -0.390667327863E+02    0.55808E-01   -0.35115E-01 16200   0.304E+00    0.102E+00
DAV:   4    -0.390506963407E+02    0.16036E-01   -0.75893E-02 15816   0.162E+00    0.886E-01
DAV:   5    -0.390519620367E+02   -0.12657E-02   -0.79091E-03 15416   0.362E-01    0.618E-01
DAV:   6    -0.390536112568E+02   -0.16492E-02   -0.67212E-03 17176   0.385E-01    0.118E-01
DAV:   7    -0.390535990468E+02    0.12210E-04   -0.49381E-04 10780   0.110E-01
  18 F= -.39053599E+02 E0= -.39053225E+02  d E =-.283777E+00
       N       E                     dE             d eps       ncg     rms          rms(c)
DAV:   1    -0.410465982512E+02   -0.19930E+01   -0.25412E+02  9016   0.103E+02    0.190E+01
DAV:   2    -0.397759622781E+02    0.12706E+01   -0.23673E+01 11664   0.338E+01    0.710E+00
DAV:   3    -0.393717518415E+02    0.40421E+00   -0.25251E+00 16376   0.864E+00    0.338E+00
DAV:   4    -0.392501270554E+02    0.12162E+00   -0.58766E-01 15596   0.483E+00    0.248E+00
DAV:   5    -0.392553982851E+02   -0.52712E-02   -0.98209E-02 16828   0.135E+00    0.165E+00
DAV:   6    -0.392696034010E+02   -0.14205E-01   -0.37478E-02 17472   0.101E+00    0.526E-01
DAV:   7    -0.392697455651E+02   -0.14216E-03   -0.90981E-03 15032   0.452E-01    0.119E-01
DAV:   8    -0.392697581296E+02   -0.12564E-04   -0.85568E-04 11988   0.163E-01
  19 F= -.39269758E+02 E0= -.39269663E+02  d E =-.499937E+00
       N       E                     dE             d eps       ncg     rms          rms(c)
DAV:   1    -0.395303305238E+02   -0.26058E+00   -0.25683E+01  8848   0.334E+01    0.482E+00
DAV:   2    -0.394006726644E+02    0.12966E+00   -0.29356E+00 13360   0.117E+01    0.239E+00
DAV:   3    -0.393352983101E+02    0.65374E-01   -0.38360E-01 13888   0.334E+00    0.137E+00
DAV:   4    -0.393133526664E+02    0.21946E-01   -0.65948E-02 14488   0.150E+00    0.116E+00
DAV:   5    -0.393143127268E+02   -0.96006E-03   -0.10322E-02 15116   0.384E-01    0.748E-01
DAV:   6    -0.393148200694E+02   -0.50734E-03   -0.69394E-03 17584   0.387E-01    0.102E-01
DAV:   7    -0.393148936447E+02   -0.73575E-04   -0.46883E-04 11032   0.997E-02
  20 F= -.39314894E+02 E0= -.39314718E+02  d E =-.545072E+00
       N       E                     dE             d eps       ncg     rms          rms(c)
DAV:   1    -0.392834860309E+02    0.31334E-01   -0.58018E+01 10112   0.600E+01    0.454E+00
DAV:   2    -0.396332165004E+02   -0.34973E+00   -0.49643E+00  9584   0.133E+01    0.214E+00
DAV:   3    -0.396230109457E+02    0.10206E-01   -0.18896E-01 15884   0.238E+00    0.113E+00
DAV:   4    -0.396190463452E+02    0.39646E-02   -0.30348E-02 15128   0.120E+00    0.546E-01
DAV:   5    -0.396193450742E+02   -0.29873E-03   -0.56200E-03 12864   0.379E-01    0.288E-01
DAV:   6    -0.396196691431E+02   -0.32407E-03   -0.16719E-03 17460   0.230E-01    0.884E-02
DAV:   7    -0.396196789872E+02   -0.98442E-05   -0.11141E-04  6388   0.656E-02
  21 F= -.39619679E+02 E0= -.39619396E+02  d E =-.304785E+00
       N       E                     dE             d eps       ncg     rms          rms(c)
DAV:   1    -0.395889648194E+02    0.30704E-01   -0.91637E+00 10112   0.240E+01    0.172E+00
DAV:   2    -0.396476363570E+02   -0.58672E-01   -0.83120E-01  9964   0.537E+00    0.843E-01
DAV:   3    -0.396461335712E+02    0.15028E-02   -0.29290E-02 14328   0.973E-01    0.459E-01
DAV:   4    -0.396454557690E+02    0.67780E-03   -0.61817E-03 15116   0.518E-01    0.217E-01
DAV:   5    -0.396455158173E+02   -0.60048E-04   -0.92281E-04 12644   0.154E-01
  22 F= -.39645516E+02 E0= -.39645122E+02  d E =-.330622E+00
       N       E                     dE             d eps       ncg     rms          rms(c)
DAV:   1    -0.397783106639E+02   -0.13285E+00   -0.26051E+01  8848   0.343E+01    0.332E+00
DAV:   2    -0.398491101051E+02   -0.70799E-01   -0.16095E+00 11368   0.876E+00    0.147E+00
DAV:   3    -0.398368428659E+02    0.12267E-01   -0.11304E-01 15048   0.193E+00    0.102E+00
DAV:   4    -0.398320136047E+02    0.48293E-02   -0.22754E-02 14048   0.947E-01    0.461E-01
DAV:   5    -0.398319441109E+02    0.69494E-04   -0.31068E-03 15340   0.282E-01    0.266E-01
DAV:   6    -0.398320319128E+02   -0.87802E-04   -0.56349E-04 13380   0.137E-01
  23 F= -.39832032E+02 E0= -.39831608E+02  d E =-.186516E+00
       N       E                     dE             d eps       ncg     rms          rms(c)
DAV:   1    -0.398419560149E+02   -0.10012E-01   -0.19343E+01  8848   0.294E+01    0.271E+00
DAV:   2    -0.398940084577E+02   -0.52052E-01   -0.11700E+00 11168   0.743E+00    0.121E+00
DAV:   3    -0.398853581077E+02    0.86503E-02   -0.79658E-02 15368   0.162E+00    0.807E-01
DAV:   4    -0.398819505693E+02    0.34075E-02   -0.15906E-02 14056   0.789E-01    0.378E-01
DAV:   5    -0.398818406074E+02    0.10996E-03   -0.23855E-03 15176   0.247E-01    0.210E-01
DAV:   6    -0.398819057542E+02   -0.65147E-04   -0.41667E-04 11848   0.119E-01
  24 F= -.39881906E+02 E0= -.39881520E+02  d E =-.236390E+00
       N       E                     dE             d eps       ncg     rms          rms(c)
DAV:   1    -0.400081155230E+02   -0.12627E+00   -0.23232E+01  8848   0.324E+01    0.256E+00
DAV:   2    -0.400284052041E+02   -0.20290E-01   -0.13342E+00 10344   0.763E+00    0.150E+00
DAV:   3    -0.400128954621E+02    0.15510E-01   -0.69285E-02 13564   0.145E+00    0.795E-01
DAV:   4    -0.400084859548E+02    0.44095E-02   -0.13545E-02 13144   0.760E-01    0.219E-01
DAV:   5    -0.400085199013E+02   -0.33946E-04   -0.12791E-03 12816   0.223E-01    0.999E-02
DAV:   6    -0.400085485608E+02   -0.28660E-04   -0.11418E-04  6816   0.798E-02
  25 F= -.40008549E+02 E0= -.40008169E+02  d E =-.126643E+00
       N       E                     dE             d eps       ncg     rms          rms(c)
DAV:   1    -0.400138554876E+02   -0.53356E-02   -0.13845E+00  8864   0.789E+00    0.629E-01
DAV:   2    -0.400150668085E+02   -0.12113E-02   -0.79838E-02 10664   0.185E+00    0.369E-01
DAV:   3    -0.400141392764E+02    0.92753E-03   -0.41737E-03 14360   0.356E-01    0.186E-01
DAV:   4    -0.400138625205E+02    0.27676E-03   -0.89229E-04 12616   0.185E-01    0.608E-02
DAV:   5    -0.400138540852E+02    0.84353E-05   -0.14427E-04  6288   0.823E-02
  26 F= -.40013854E+02 E0= -.40013486E+02  d E =-.131948E+00
       N       E                     dE             d eps       ncg     rms          rms(c)
DAV:   1    -0.401631218234E+02   -0.14926E+00   -0.84604E+00  8848   0.186E+01    0.207E+00
DAV:   2    -0.401380854928E+02    0.25036E-01   -0.59579E-01 12896   0.522E+00    0.110E+00
DAV:   3    -0.401263178942E+02    0.11768E-01   -0.65276E-02 13904   0.140E+00    0.562E-01
DAV:   4    -0.401218451794E+02    0.44727E-02   -0.15840E-02 15552   0.760E-01    0.374E-01
DAV:   5    -0.401218636920E+02   -0.18513E-04   -0.17235E-03 14532   0.198E-01    0.238E-01
DAV:   6    -0.401220025031E+02   -0.13881E-03   -0.60622E-04 13872   0.122E-01    0.337E-02
DAV:   7    -0.401220130380E+02   -0.10535E-04   -0.49943E-05  6284   0.488E-02
  27 F= -.40122013E+02 E0= -.40121727E+02  d E =-.108159E+00
       N       E                     dE             d eps       ncg     rms          rms(c)
DAV:   1    -0.406471740944E+02   -0.52517E+00   -0.77125E+01  8848   0.561E+01    0.696E+00
DAV:   2    -0.403934454488E+02    0.25373E+00   -0.53704E+00 12168   0.160E+01    0.334E+00
DAV:   3    -0.402891243456E+02    0.10432E+00   -0.56097E-01 13864   0.414E+00    0.166E+00
DAV:   4    -0.402512425231E+02    0.37882E-01   -0.15500E-01 15560   0.233E+00    0.113E+00
DAV:   5    -0.402513504807E+02   -0.10796E-03   -0.17731E-02 14504   0.637E-01    0.705E-01
DAV:   6    -0.402527359036E+02   -0.13854E-02   -0.61058E-03 16544   0.387E-01    0.103E-01
DAV:   7    -0.402527741346E+02   -0.38231E-04   -0.49276E-04 11008   0.118E-01
  28 F= -.40252774E+02 E0= -.40252833E+02  d E =-.238920E+00
       N       E                     dE             d eps       ncg     rms          rms(c)
DAV:   1    -0.404618179825E+02   -0.20908E+00   -0.17968E+01 10112   0.309E+01    0.303E+00
DAV:   2    -0.404384643370E+02    0.23354E-01   -0.16829E+00 11864   0.783E+00    0.174E+00
DAV:   3    -0.404135863728E+02    0.24878E-01   -0.13601E-01 14832   0.208E+00    0.820E-01
DAV:   4    -0.404049531247E+02    0.86332E-02   -0.34702E-02 15464   0.115E+00    0.621E-01
DAV:   5    -0.404052864287E+02   -0.33330E-03   -0.39591E-03 12960   0.304E-01    0.416E-01
DAV:   6    -0.404057635712E+02   -0.47714E-03   -0.25086E-03 17488   0.257E-01    0.672E-02
DAV:   7    -0.404057356859E+02    0.27885E-04   -0.15583E-04  6776   0.866E-02
  29 F= -.40405736E+02 E0= -.40405985E+02  d E =-.152962E+00
       N       E                     dE             d eps       ncg     rms          rms(c)
DAV:   1    -0.411549256505E+02   -0.74916E+00   -0.16104E+02  9992   0.924E+01    0.103E+01
DAV:   2    -0.409074521725E+02    0.24747E+00   -0.14271E+01 11624   0.232E+01    0.518E+00
DAV:   3    -0.406766282640E+02    0.23082E+00   -0.12348E+00 15384   0.632E+00    0.239E+00
DAV:   4    -0.405992194274E+02    0.77409E-01   -0.35072E-01 15536   0.379E+00    0.185E+00
DAV:   5    -0.406017733966E+02   -0.25540E-02   -0.42489E-02 12968   0.102E+00    0.123E+00
DAV:   6    -0.406064941797E+02   -0.47208E-02   -0.24442E-02 17612   0.826E-01    0.212E-01
DAV:   7    -0.406061675878E+02    0.32659E-03   -0.20149E-03 12868   0.288E-01    0.103E-01
DAV:   8    -0.406061976859E+02   -0.30098E-04   -0.34759E-04  8896   0.120E-01
  30 F= -.40606198E+02 E0= -.40606141E+02  d E =-.353424E+00
       N       E                     dE             d eps       ncg     rms          rms(c)
DAV:   1    -0.408205450082E+02   -0.21438E+00   -0.11061E+01 10040   0.227E+01    0.240E+00
DAV:   2    -0.407934756285E+02    0.27069E-01   -0.88001E-01 11792   0.590E+00    0.145E+00
DAV:   3    -0.407772820553E+02    0.16194E-01   -0.83265E-02 15096   0.159E+00    0.673E-01
DAV:   4    -0.407712769939E+02    0.60051E-02   -0.23558E-02 15680   0.939E-01    0.501E-01
DAV:   5    -0.407716038413E+02   -0.32685E-03   -0.20812E-03 12932   0.223E-01    0.330E-01
DAV:   6    -0.407718760821E+02   -0.27224E-03   -0.14429E-03 17624   0.191E-01    0.682E-02
DAV:   7    -0.407718626407E+02    0.13441E-04   -0.64170E-05  6280   0.565E-02
  31 F= -.40771863E+02 E0= -.40771754E+02  d E =-.165665E+00
       N       E                     dE             d eps       ncg     rms          rms(c)
DAV:   1    -0.414541375022E+02   -0.68226E+00   -0.97968E+01 10112   0.679E+01    0.784E+00
DAV:   2    -0.411994935279E+02    0.25464E+00   -0.75821E+00 11696   0.171E+01    0.398E+00
DAV:   3    -0.410632968490E+02    0.13620E+00   -0.66887E-01 14792   0.457E+00    0.192E+00
DAV:   4    -0.410165664945E+02    0.46730E-01   -0.21963E-01 16020   0.296E+00    0.148E+00
DAV:   5    -0.410192748963E+02   -0.27084E-02   -0.20495E-02 12704   0.748E-01    0.970E-01
DAV:   6    -0.410218955125E+02   -0.26206E-02   -0.13181E-02 17692   0.616E-01    0.195E-01
DAV:   7    -0.410217562934E+02    0.13922E-03   -0.95269E-04 12604   0.195E-01    0.804E-02
DAV:   8    -0.410217662579E+02   -0.99645E-05   -0.12707E-04  6312   0.866E-02
  32 F= -.41021766E+02 E0= -.41021681E+02  d E =-.415569E+00
       N       E                     dE             d eps       ncg     rms          rms(c)
DAV:   1    -0.412438990594E+02   -0.22214E+00   -0.97831E+00  9552   0.221E+01    0.213E+00
DAV:   2    -0.412556865641E+02   -0.11788E-01   -0.60759E-01 10392   0.507E+00    0.112E+00
DAV:   3    -0.412449015993E+02    0.10785E-01   -0.40818E-02 13196   0.115E+00    0.405E-01
DAV:   4    -0.412439499778E+02    0.95162E-03   -0.83900E-03 15276   0.573E-01    0.264E-01
DAV:   5    -0.412439508829E+02   -0.90516E-06   -0.10588E-03 13160   0.171E-01    0.157E-01
DAV:   6    -0.412439710933E+02   -0.20210E-04   -0.36388E-04 10380   0.128E-01
  33 F= -.41243971E+02 E0= -.41243919E+02  d E =-.222205E+00
       N       E                     dE             d eps       ncg     rms          rms(c)
DAV:   1    -0.413494738381E+02   -0.10552E+00   -0.18415E+01  9848   0.305E+01    0.298E+00
DAV:   2    -0.413682513353E+02   -0.18777E-01   -0.11310E+00 10224   0.688E+00    0.154E+00
DAV:   3    -0.413474303487E+02    0.20821E-01   -0.81562E-02 13872   0.160E+00    0.569E-01
DAV:   4    -0.413460282851E+02    0.14021E-02   -0.14547E-02 14840   0.755E-01    0.369E-01
DAV:   5    -0.413460931339E+02   -0.64849E-04   -0.18337E-03 13888   0.228E-01    0.208E-01
DAV:   6    -0.413461376470E+02   -0.44513E-04   -0.74807E-04 13616   0.175E-01
  34 F= -.41346138E+02 E0= -.41346166E+02  d E =-.324371E+00
       N       E                     dE             d eps       ncg     rms          rms(c)
DAV:   1    -0.414910459303E+02   -0.14495E+00   -0.13204E+01  8848   0.229E+01    0.235E+00
DAV:   2    -0.415009350780E+02   -0.98891E-02   -0.70529E-01 12576   0.630E+00    0.137E+00
DAV:   3    -0.414929419250E+02    0.79932E-02   -0.55914E-02 16036   0.135E+00    0.758E-01
DAV:   4    -0.414895536585E+02    0.33883E-02   -0.12185E-02 12536   0.703E-01    0.278E-01
DAV:   5    -0.414896099862E+02   -0.56328E-04   -0.16785E-03 14968   0.239E-01    0.152E-01
DAV:   6    -0.414896020573E+02    0.79290E-05   -0.17282E-04  6840   0.956E-02
  35 F= -.41489602E+02 E0= -.41489714E+02  d E =-.143464E+00
       N       E                     dE             d eps       ncg     rms          rms(c)
DAV:   1    -0.414995833042E+02   -0.99733E-02   -0.16267E+00  8848   0.803E+00    0.807E-01
DAV:   2    -0.415007715074E+02   -0.11882E-02   -0.85714E-02 12536   0.221E+00    0.497E-01
DAV:   3    -0.414998343509E+02    0.93716E-03   -0.62357E-03 15972   0.452E-01    0.271E-01
DAV:   4    -0.414994426088E+02    0.39174E-03   -0.15165E-03 12608   0.250E-01    0.998E-02
DAV:   5    -0.414994421691E+02    0.43969E-06   -0.16083E-04  6988   0.863E-02
  36 F= -.41499442E+02 E0= -.41499560E+02  d E =-.153305E+00
       N       E                     dE             d eps       ncg     rms          rms(c)
DAV:   1    -0.415845763683E+02   -0.85134E-01   -0.40443E+00  8848   0.158E+01    0.148E+00
DAV:   2    -0.416010725641E+02   -0.16496E-01   -0.43053E-01 10616   0.426E+00    0.655E-01
DAV:   3    -0.415980465536E+02    0.30260E-02   -0.22773E-02 12848   0.934E-01    0.409E-01
DAV:   4    -0.415968714699E+02    0.11751E-02   -0.57602E-03 15768   0.472E-01    0.254E-01
DAV:   5    -0.415969451139E+02   -0.73644E-04   -0.40162E-04 10804   0.103E-01
  37 F= -.41596945E+02 E0= -.41597094E+02  d E =-.975029E-01
       N       E                     dE             d eps       ncg     rms          rms(c)
DAV:   1    -0.416433902412E+02   -0.46519E-01   -0.21636E+01  9416   0.361E+01    0.313E+00
DAV:   2    -0.417170483802E+02   -0.73658E-01   -0.21609E+00 10628   0.946E+00    0.151E+00
DAV:   3    -0.417007547855E+02    0.16294E-01   -0.11748E-01 13568   0.206E+00    0.915E-01
DAV:   4    -0.416945832817E+02    0.61715E-02   -0.26079E-02 15200   0.975E-01    0.584E-01
DAV:   5    -0.416949897518E+02   -0.40647E-03   -0.24049E-03 14124   0.232E-01    0.387E-01
DAV:   6    -0.416952693036E+02   -0.27955E-03   -0.15086E-03 17248   0.185E-01    0.580E-02
DAV:   7    -0.416952617292E+02    0.75744E-05   -0.62478E-05  6180   0.564E-02
  38 F= -.41695262E+02 E0= -.41695476E+02  d E =-.195820E+00
       N       E                     dE             d eps       ncg     rms          rms(c)
DAV:   1    -0.417428869770E+02   -0.47618E-01   -0.51514E+00 10112   0.178E+01    0.113E+00
DAV:   2    -0.417741658868E+02   -0.31279E-01   -0.45422E-01 10108   0.403E+00    0.565E-01
DAV:   3    -0.417725903849E+02    0.15755E-02   -0.12523E-02 13608   0.691E-01    0.319E-01
DAV:   4    -0.417718115646E+02    0.77882E-03   -0.35268E-03 13016   0.406E-01    0.136E-01
DAV:   5    -0.417718434655E+02   -0.31901E-04   -0.48562E-04 10188   0.132E-01
  39 F= -.41771843E+02 E0= -.41772012E+02  d E =-.765817E-01
       N       E                     dE             d eps       ncg     rms          rms(c)
DAV:   1    -0.417502974648E+02    0.21514E-01   -0.11281E+01 10112   0.264E+01    0.173E+00
DAV:   2    -0.418193388772E+02   -0.69041E-01   -0.99528E-01 10116   0.598E+00    0.832E-01
DAV:   3    -0.418158945314E+02    0.34443E-02   -0.27360E-02 13704   0.102E+00    0.475E-01
DAV:   4    -0.418142358988E+02    0.16586E-02   -0.78529E-03 13316   0.605E-01    0.205E-01
DAV:   5    -0.418143073900E+02   -0.71491E-04   -0.10495E-03 11160   0.195E-01    0.106E-01
DAV:   6    -0.418143258566E+02   -0.18467E-04   -0.14526E-04  7040   0.980E-02
  40 F= -.41814326E+02 E0= -.41814402E+02  d E =-.119064E+00
       N       E                     dE             d eps       ncg     rms          rms(c)
DAV:   1    -0.418631724905E+02   -0.48865E-01   -0.29235E+00  8856   0.118E+01    0.111E+00
DAV:   2    -0.418665316297E+02   -0.33591E-02   -0.19204E-01 11168   0.308E+00    0.431E-01
DAV:   3    -0.418648518579E+02    0.16798E-02   -0.10236E-02 13220   0.595E-01    0.284E-01
DAV:   4    -0.418642295330E+02    0.62232E-03   -0.28614E-03 16264   0.336E-01    0.184E-01
DAV:   5    -0.418642639913E+02   -0.34458E-04   -0.21255E-04  8456   0.802E-02
  41 F= -.41864264E+02 E0= -.41864287E+02  d E =-.499381E-01
       N       E                     dE             d eps       ncg     rms          rms(c)
DAV:   1    -0.418942865692E+02   -0.30057E-01   -0.10973E+01  8848   0.229E+01    0.227E+00
DAV:   2    -0.419065454442E+02   -0.12259E-01   -0.72499E-01 11176   0.599E+00    0.849E-01
DAV:   3    -0.419002720630E+02    0.62734E-02   -0.37615E-02 12944   0.114E+00    0.556E-01
DAV:   4    -0.418980578802E+02    0.22142E-02   -0.11432E-02 16512   0.668E-01    0.362E-01
DAV:   5    -0.418982102215E+02   -0.15234E-03   -0.95717E-04 12844   0.159E-01    0.212E-01
DAV:   6    -0.418983328591E+02   -0.12264E-03   -0.57693E-04 14732   0.121E-01    0.336E-02
DAV:   7    -0.418983300886E+02    0.27705E-05   -0.35479E-05  6240   0.408E-02
  42 F= -.41898330E+02 E0= -.41898267E+02  d E =-.840042E-01
       N       E                     dE             d eps       ncg     rms          rms(c)
DAV:   1    -0.419105784643E+02   -0.12246E-01   -0.52891E+00 10112   0.189E+01    0.142E+00
DAV:   2    -0.419432438535E+02   -0.32665E-01   -0.56743E-01 10032   0.435E+00    0.581E-01
DAV:   3    -0.419408991590E+02    0.23447E-02   -0.18525E-02 12832   0.809E-01    0.357E-01
DAV:   4    -0.419399136940E+02    0.98546E-03   -0.51601E-03 15684   0.462E-01    0.220E-01
DAV:   5    -0.419399956301E+02   -0.81936E-04   -0.45269E-04 11552   0.119E-01
  43 F= -.41939996E+02 E0= -.41939909E+02  d E =-.416655E-01
       N       E                     dE             d eps       ncg     rms          rms(c)
DAV:   1    -0.419295154348E+02    0.10398E-01   -0.31120E+00 10120   0.145E+01    0.109E+00
DAV:   2    -0.419486944452E+02   -0.19179E-01   -0.33279E-01 10100   0.334E+00    0.446E-01
DAV:   3    -0.419472958246E+02    0.13986E-02   -0.10936E-02 12888   0.621E-01    0.276E-01
DAV:   4    -0.419467398969E+02    0.55593E-03   -0.30881E-03 15824   0.355E-01    0.170E-01
DAV:   5    -0.419467909375E+02   -0.51041E-04   -0.24338E-04  9188   0.910E-02
  44 F= -.41946791E+02 E0= -.41946689E+02  d E =-.484608E-01
       N       E                     dE             d eps       ncg     rms          rms(c)
DAV:   1    -0.419815153726E+02   -0.34775E-01   -0.19502E+00  8856   0.907E+00    0.881E-01
DAV:   2    -0.419790757786E+02    0.24396E-02   -0.83866E-02 12104   0.203E+00    0.421E-01
DAV:   3    -0.419761556064E+02    0.29202E-02   -0.70861E-03 12704   0.504E-01    0.207E-01
DAV:   4    -0.419757706091E+02    0.38500E-03   -0.19728E-03 15896   0.289E-01    0.112E-01
DAV:   5    -0.419757560893E+02    0.14520E-04   -0.10751E-04  6312   0.725E-02
  45 F= -.41975756E+02 E0= -.41975634E+02  d E =-.289652E-01
       N       E                     dE             d eps       ncg     rms          rms(c)
DAV:   1    -0.419886172103E+02   -0.12847E-01   -0.20145E+00  8848   0.920E+00    0.869E-01
DAV:   2    -0.419860496272E+02    0.25676E-02   -0.85504E-02 12136   0.206E+00    0.419E-01
DAV:   3    -0.419830778830E+02    0.29717E-02   -0.71421E-03 12716   0.502E-01    0.205E-01
DAV:   4    -0.419826976766E+02    0.38021E-03   -0.20401E-03 15888   0.292E-01    0.113E-01
DAV:   5    -0.419826841271E+02    0.13549E-04   -0.11325E-04  6320   0.743E-02
  46 F= -.41982684E+02 E0= -.41982545E+02  d E =-.358932E-01
       N       E                     dE             d eps       ncg     rms          rms(c)
DAV:   1    -0.420139125955E+02   -0.31215E-01   -0.28814E+00  8848   0.110E+01    0.110E+00
DAV:   2    -0.420102878798E+02    0.36247E-02   -0.15462E-01 11744   0.278E+00    0.505E-01
DAV:   3    -0.420069108327E+02    0.33770E-02   -0.12543E-02 12816   0.659E-01    0.318E-01
DAV:   4    -0.420057639813E+02    0.11469E-02   -0.41936E-03 15952   0.407E-01    0.222E-01
DAV:   5    -0.420057868392E+02   -0.22858E-04   -0.26033E-04  9312   0.867E-02
  47 F= -.42005787E+02 E0= -.42005673E+02  d E =-.231027E-01
       N       E                     dE             d eps       ncg     rms          rms(c)
DAV:   1    -0.420109148440E+02   -0.51509E-02   -0.74439E-01  8848   0.559E+00    0.560E-01
DAV:   2    -0.420099539551E+02    0.96089E-03   -0.39423E-02 11752   0.140E+00    0.254E-01
DAV:   3    -0.420090804135E+02    0.87354E-03   -0.31678E-03 12768   0.330E-01    0.156E-01
DAV:   4    -0.420088024151E+02    0.27800E-03   -0.10952E-03 15456   0.206E-01    0.110E-01
DAV:   5    -0.420088062343E+02   -0.38192E-05   -0.56203E-05  6260   0.448E-02
  48 F= -.42008806E+02 E0= -.42008699E+02  d E =-.261221E-01
       N       E                     dE             d eps       ncg     rms          rms(c)
DAV:   1    -0.420171295758E+02   -0.83272E-02   -0.55108E+00 10112   0.186E+01    0.146E+00
DAV:   2    -0.420461687046E+02   -0.29039E-01   -0.55676E-01  9632   0.423E+00    0.592E-01
DAV:   3    -0.420427120746E+02    0.34566E-02   -0.19605E-02 14080   0.830E-01    0.291E-01
DAV:   4    -0.420415320119E+02    0.11801E-02   -0.37542E-03 14156   0.384E-01    0.139E-01
DAV:   5    -0.420415222980E+02    0.97139E-05   -0.41115E-04 11604   0.120E-01
  49 F= -.42041522E+02 E0= -.42041400E+02  d E =-.327161E-01
       N       E                     dE             d eps       ncg     rms          rms(c)
DAV:   1    -0.419199935658E+02    0.12154E+00   -0.36977E+01 10112   0.479E+01    0.398E+00
DAV:   2    -0.421029820902E+02   -0.18299E+00   -0.36226E+00  9684   0.108E+01    0.149E+00
DAV:   3    -0.420792672524E+02    0.23715E-01   -0.13051E-01 14264   0.214E+00    0.752E-01
DAV:   4    -0.420715082540E+02    0.77590E-02   -0.25510E-02 14140   0.103E+00    0.370E-01
DAV:   5    -0.420715231031E+02   -0.14849E-04   -0.28054E-03 12644   0.318E-01    0.172E-01
DAV:   6    -0.420715923472E+02   -0.69244E-04   -0.44613E-04 12744   0.143E-01
  50 F= -.42071592E+02 E0= -.42071364E+02  d E =-.627861E-01
       N       E                     dE             d eps       ncg     rms          rms(c)
DAV:   1    -0.420851012395E+02   -0.13578E-01   -0.87486E-01 10120   0.636E+00    0.596E-01
DAV:   2    -0.420847244844E+02    0.37676E-03   -0.48349E-02 11432   0.145E+00    0.248E-01
DAV:   3    -0.420838143343E+02    0.91015E-03   -0.30875E-03 15020   0.329E-01    0.110E-01
DAV:   4    -0.420836229357E+02    0.19140E-03   -0.60352E-04 11896   0.156E-01    0.639E-02
DAV:   5    -0.420836181803E+02    0.47554E-05   -0.69061E-05  6276   0.601E-02
  51 F= -.42083618E+02 E0= -.42083376E+02  d E =-.120258E-01
       N       E                     dE             d eps       ncg     rms          rms(c)
DAV:   1    -0.421284151333E+02   -0.44792E-01   -0.78854E+00 10112   0.191E+01    0.183E+00
DAV:   2    -0.421249877546E+02    0.34274E-02   -0.43897E-01 11456   0.433E+00    0.740E-01
DAV:   3    -0.421167017395E+02    0.82860E-02   -0.27770E-02 15368   0.969E-01    0.335E-01
DAV:   4    -0.421149681897E+02    0.17335E-02   -0.54832E-03 13496   0.474E-01    0.198E-01
DAV:   5    -0.421149370133E+02    0.31176E-04   -0.88907E-04 14380   0.175E-01
  52 F= -.42114937E+02 E0= -.42114672E+02  d E =-.433447E-01
       N       E                     dE             d eps       ncg     rms          rms(c)
DAV:   1    -0.421986501225E+02   -0.83682E-01   -0.31838E+01 10112   0.383E+01    0.390E+00
DAV:   2    -0.421842613290E+02    0.14389E-01   -0.17889E+00 11448   0.868E+00    0.151E+00
DAV:   3    -0.421497672979E+02    0.34494E-01   -0.11599E-01 15032   0.195E+00    0.691E-01
DAV:   4    -0.421433515488E+02    0.64157E-02   -0.23850E-02 13340   0.100E+00    0.403E-01
DAV:   5    -0.421433282264E+02    0.23322E-04   -0.38946E-03 15156   0.360E-01    0.206E-01
DAV:   6    -0.421433969656E+02   -0.68739E-04   -0.75477E-04 13992   0.173E-01
  53 F= -.42143397E+02 E0= -.42143146E+02  d E =-.718046E-01
       N       E                     dE             d eps       ncg     rms          rms(c)
DAV:   1    -0.421670069095E+02   -0.23679E-01   -0.13552E+00 10120   0.923E+00    0.573E-01
DAV:   2    -0.421770322846E+02   -0.10025E-01   -0.14129E-01 10104   0.217E+00    0.287E-01
DAV:   3    -0.421767694337E+02    0.26285E-03   -0.39821E-03 14716   0.362E-01    0.162E-01
DAV:   4    -0.421765721600E+02    0.19727E-03   -0.93328E-04 11500   0.199E-01    0.550E-02
DAV:   5    -0.421765821395E+02   -0.99795E-05   -0.10548E-04  6660   0.695E-02
  54 F= -.42176582E+02 E0= -.42176335E+02  d E =-.331852E-01
       N       E                     dE             d eps       ncg     rms          rms(c)
DAV:   1    -0.421674189023E+02    0.91533E-02   -0.49356E+00 10112   0.176E+01    0.113E+00
DAV:   2    -0.422042347225E+02   -0.36816E-01   -0.51387E-01 10028   0.413E+00    0.547E-01
DAV:   3    -0.422032744636E+02    0.96026E-03   -0.14419E-02 14728   0.687E-01    0.310E-01
DAV:   4    -0.422025645335E+02    0.70993E-03   -0.34414E-03 12144   0.380E-01    0.105E-01
DAV:   5    -0.422026025720E+02   -0.38039E-04   -0.41838E-04 11708   0.127E-01
  55 F= -.42202603E+02 E0= -.42202416E+02  d E =-.592056E-01
       N       E                     dE             d eps       ncg     rms          rms(c)
DAV:   1    -0.422193064204E+02   -0.16742E-01   -0.63079E-01 10120   0.596E+00    0.558E-01
DAV:   2    -0.422199843612E+02   -0.67794E-03   -0.57790E-02 11656   0.157E+00    0.262E-01
DAV:   3    -0.422194255370E+02    0.55882E-03   -0.29473E-03 14220   0.319E-01    0.142E-01
DAV:   4    -0.422192478377E+02    0.17770E-03   -0.77648E-04 13048   0.179E-01    0.100E-01
DAV:   5    -0.422192634951E+02   -0.15657E-04   -0.74059E-05  6196   0.552E-02
  56 F= -.42219263E+02 E0= -.42219097E+02  d E =-.166609E-01
       N       E                     dE             d eps       ncg     rms          rms(c)
DAV:   1    -0.422413547778E+02   -0.22107E-01   -0.56639E+00 10112   0.179E+01    0.178E+00
DAV:   2    -0.422477797507E+02   -0.64250E-02   -0.52248E-01 11656   0.474E+00    0.788E-01
DAV:   3    -0.422426421522E+02    0.51376E-02   -0.26192E-02 14152   0.943E-01    0.429E-01
DAV:   4    -0.422410667860E+02    0.15754E-02   -0.74512E-03 15840   0.548E-01    0.302E-01
DAV:   5    -0.422411948380E+02   -0.12805E-03   -0.75014E-04 12644   0.151E-01    0.171E-01
DAV:   6    -0.422412784051E+02   -0.83567E-04   -0.32877E-04 10880   0.106E-01
  57 F= -.42241278E+02 E0= -.42241180E+02  d E =-.386758E-01
       N       E                     dE             d eps       ncg     rms          rms(c)
DAV:   1    -0.422545649758E+02   -0.13370E-01   -0.10987E+00 10112   0.807E+00    0.701E-01
DAV:   2    -0.422574407533E+02   -0.28758E-02   -0.11415E-01 10912   0.207E+00    0.392E-01
DAV:   3    -0.422566582580E+02    0.78250E-03   -0.50505E-03 13088   0.418E-01    0.219E-01
DAV:   4    -0.422563417389E+02    0.31652E-03   -0.14180E-03 15800   0.246E-01    0.137E-01
DAV:   5    -0.422563704643E+02   -0.28725E-04   -0.11299E-04  6764   0.627E-02
  58 F= -.42256370E+02 E0= -.42256273E+02  d E =-.150921E-01
       N       E                     dE             d eps       ncg     rms          rms(c)
DAV:   1    -0.422601668239E+02   -0.38251E-02   -0.30893E+00 10112   0.136E+01    0.121E+00
DAV:   2    -0.422684872136E+02   -0.83204E-02   -0.32045E-01 10928   0.347E+00    0.655E-01
DAV:   3    -0.422662320435E+02    0.22552E-02   -0.14201E-02 13124   0.698E-01    0.367E-01
DAV:   4    -0.422653324540E+02    0.89959E-03   -0.40646E-03 16184   0.420E-01    0.230E-01
DAV:   5    -0.422654116282E+02   -0.79174E-04   -0.36260E-04 10804   0.105E-01
  59 F= -.42265412E+02 E0= -.42265334E+02  d E =-.241332E-01
       N       E                     dE             d eps       ncg     rms          rms(c)
DAV:   1    -0.422789207617E+02   -0.13588E-01   -0.12201E+00 10116   0.863E+00    0.867E-01
DAV:   2    -0.422791461183E+02   -0.22536E-03   -0.11910E-01 11496   0.219E+00    0.346E-01
DAV:   3    -0.422776574290E+02    0.14887E-02   -0.61593E-03 13952   0.476E-01    0.187E-01
DAV:   4    -0.422771944499E+02    0.46298E-03   -0.18926E-03 16168   0.268E-01    0.158E-01
DAV:   5    -0.422772284170E+02   -0.33967E-04   -0.13058E-04  6980   0.650E-02
  60 F= -.42277228E+02 E0= -.42277166E+02  d E =-.118168E-01
