Automatically generated mesh
      46
Reciprocal lattice
    0.00000000000000    0.00000000000000    0.00000000000000             1
    0.16666666666667    0.00000000000000    0.00000000000000             2
    0.33333333333334    0.00000000000000    0.00000000000000             2
    0.50000000000000    0.00000000000000    0.00000000000000             1
    0.00000000000000    0.20000000000000    0.00000000000000             2
    0.16666666666667    0.20000000000000    0.00000000000000             2
    0.33333333333333    0.20000000000000    0.00000000000000             2
    0.50000000000000    0.20000000000000    0.00000000000000             2
   -0.33333333333333    0.20000000000000    0.00000000000000             2
   -0.16666666666667    0.20000000000000    0.00000000000000             2
    0.00000000000000    0.40000000000000    0.00000000000000             2
    0.16666666666667    0.40000000000000    0.00000000000000             2
    0.33333333333333    0.40000000000000    0.00000000000000             2
    0.50000000000000    0.40000000000000    0.00000000000000             2
   -0.33333333333333    0.40000000000000    0.00000000000000             2
   -0.16666666666667    0.40000000000000    0.00000000000000             2
    0.00000000000000    0.00000000000000    0.33333333333333             2
    0.16666666666667    0.00000000000000    0.33333333333334             2
    0.33333333333333    0.00000000000000    0.33333333333333             2
    0.50000000000000    0.00000000000000    0.33333333333333             2
   -0.33333333333333    0.00000000000000    0.33333333333333             2
   -0.16666666666667    0.00000000000000    0.33333333333333             2
    0.00000000000000    0.20000000000000    0.33333333333334             2
    0.16666666666667    0.20000000000000    0.33333333333333             2
    0.33333333333333    0.20000000000000    0.33333333333333             2
    0.50000000000000    0.20000000000000    0.33333333333333             2
   -0.33333333333333    0.20000000000000    0.33333333333333             2
   -0.16666666666667    0.20000000000000    0.33333333333333             2
    0.00000000000000    0.40000000000000    0.33333333333333             2
    0.16666666666667    0.40000000000000    0.33333333333333             2
    0.33333333333333    0.40000000000000    0.33333333333333             2
    0.50000000000000    0.40000000000000    0.33333333333333             2
   -0.33333333333333    0.40000000000000    0.33333333333333             2
   -0.16666666666667    0.40000000000000    0.33333333333334             2
    0.00000000000000   -0.40000000000000    0.33333333333333             2
    0.16666666666667   -0.40000000000000    0.33333333333333             2
    0.33333333333333   -0.40000000000000    0.33333333333333             2
    0.50000000000000   -0.40000000000000    0.33333333333333             2
   -0.33333333333333   -0.40000000000000    0.33333333333333             2
   -0.16666666666667   -0.40000000000000    0.33333333333333             2
    0.00000000000000   -0.20000000000000    0.33333333333333             2
    0.16666666666667   -0.20000000000000    0.33333333333333             2
    0.33333333333333   -0.20000000000000    0.33333333333334             2
    0.50000000000000   -0.20000000000000    0.33333333333333             2
   -0.33333333333333   -0.20000000000000    0.33333333333334             2
   -0.16666666666667   -0.20000000000000    0.33333333333333             2
Tetrahedra
       268    0.00185185185185
         2         1         2         5        18
         2         2         5         6        18
         2         5         6        18        24
         2         1         5        17        18
         2         5        17        18        23
         2         5        18        23        24
         2         2         3         6        19
         2         3         6         7        19
         2         6         7        19        25
         2         2         6        18        19
         2         6        18        19        24
         2         6        19        24        25
         2         3         4         7        20
         2         4         7         8        20
         2         7         8        20        26
         2         3         7        19        20
         2         7        19        20        25
         2         7        20        25        26
         2         3         4         8        21
         2         3         8         9        21
         2         8         9        21        27
         2         4         8        20        21
         2         8        20        21        26
         2         8        21        26        27
         2         2         3         9        22
         2         2         9        10        22
         2         9        10        22        28
         2         3         9        21        22
         2         9        21        22        27
         2         9        22        27        28
         2         1         2        10        17
         2         1         5        10        17
         2         5        10        17        23
         2         2        10        17        22
         2        10        17        22        28
         2        10        17        23        28
         2         5         6        11        24
         2         6        11        12        24
         2        11        12        24        30
         2         5        11        23        24
         2        11        23        24        29
         2        11        24        29        30
         2         6         7        12        25
         2         7        12        13        25
         2        12        13        25        31
         2         6        12        24        25
         2        12        24        25        30
         2        12        25        30        31
         2         7         8        13        26
         2         8        13        14        26
         2        13        14        26        32
         2         7        13        25        26
         2        13        25        26        31
         2        13        26        31        32
         2         8         9        14        27
         2         9        14        15        27
         2        14        15        27        33
         2         8        14        26        27
         2        14        26        27        32
         2        14        27        32        33
         2         9        10        15        28
         2        10        15        16        28
         2        15        16        28        34
         2         9        15        27        28
         2        15        27        28        33
         2        15        28        33        34
         2         5        10        16        23
         2         5        11        16        23
         2        11        16        23        29
         2        10        16        23        28
         2        16        23        28        34
         2        16        23        29        34
         2        11        11        12        30
         2        11        12        16        30
         2        11        16        30        36
         2        11        11        29        30
         2        11        29        30        35
         2        11        30        35        36
         2        12        13        16        31
         2        13        15        16        31
         2        15        16        31        37
         2        12        16        30        31
         2        16        30        31        36
         2        16        31        36        37
         2        13        14        15        32
         2        14        14        15        32
         2        14        15        32        38
         2        13        15        31        32
         2        15        31        32        37
         2        15        32        37        38
         2        14        14        15        33
         2        13        14        15        33
         2        13        14        33        39
         2        14        14        32        33
         2        14        32        33        38
         2        14        33        38        39
         2        13        15        16        34
         2        12        13        16        34
         2        12        13        34        40
         2        13        15        33        34
         2        13        33        34        39
         2        13        34        39        40
         2        11        12        16        29
         2        11        11        12        29
         2        11        12        29        35
         2        12        16        29        34
         2        12        29        34        40
         2        12        29        35        40
         2         5        11        16        36
         2         5        10        16        36
         2         5        10        36        42
         2         5        11        35        36
         2         5        35        36        41
         2         5        36        41        42
         2        10        15        16        37
         2         9        10        15        37
         2         9        10        37        43
         2        10        16        36        37
         2        10        36        37        42
         2        10        37        42        43
         2         9        14        15        38
         2         8         9        14        38
         2         8         9        38        44
         2         9        15        37        38
         2         9        37        38        43
         2         9        38        43        44
         2         8        13        14        39
         2         7         8        13        39
         2         7         8        39        45
         2         8        14        38        39
         2         8        38        39        44
         2         8        39        44        45
         2         7        12        13        40
         2         6         7        12        40
         2         6         7        40        46
         2         7        13        39        40
         2         7        39        40        45
         2         7        40        45        46
         2         6        11        12        35
         2         5         6        11        35
         2         5         6        35        41
         2         6        12        35        40
         2         6        35        40        46
         2         6        35        41        46
         2         1         5        10        42
         2         1         2        10        42
         2         1         2        18        42
         2         1         5        41        42
         2         1        17        41        42
         2         1        17        18        42
         2         2         9        10        43
         2         2         3         9        43
         2         2         3        19        43
         2         2        10        42        43
         2         2        18        42        43
         2         2        18        19        43
         2         3         8         9        44
         2         3         4         8        44
         2         3         4        20        44
         2         3         9        43        44
         2         3        19        43        44
         2         3        19        20        44
         2         4         7         8        45
         2         3         4         7        45
         2         3         4        21        45
         2         4         8        44        45
         2         4        20        44        45
         2         4        20        21        45
         2         3         6         7        46
         2         2         3         6        46
         2         2         3        22        46
         2         3         7        45        46
         2         3        21        45        46
         2         3        21        22        46
         2         2         5         6        41
         2         1         2         5        41
         2         1         2        17        41
         2         2         6        41        46
         2         2        22        41        46
         2         2        17        22        41
         2        17        18        22        23
         2        18        22        23        24
         2        22        23        24        46
         2        17        17        22        23
         2        17        22        23        41
         2        22        23        41        46
         2        18        19        21        24
         2        19        21        24        25
         2        21        24        25        45
         2        18        21        22        24
         2        21        22        24        46
         2        21        24        45        46
         2        19        20        20        25
         2        20        20        25        26
         2        20        25        26        44
         2        19        20        21        25
         2        20        21        25        45
         2        20        25        44        45
         2        19        20        21        26
         2        19        21        26        27
         2        19        26        27        43
         2        19        20        20        26
         2        19        20        26        44
         2        19        26        43        44
         2        18        21        22        27
         2        18        22        27        28
         2        18        27        28        42
         2        18        19        21        27
         2        18        19        27        43
         2        18        27        42        43
         2        17        17        22        28
         2        17        17        23        28
         2        17        23        28        41
         2        17        18        22        28
         2        17        18        28        42
         2        17        28        41        42
         2        23        24        29        46
         2        24        29        30        46
         2        29        30        40        46
         2        23        29        41        46
         2        29        35        41        46
         2        29        35        40        46
         2        24        25        30        45
         2        25        30        31        45
         2        30        31        39        45
         2        24        30        45        46
         2        30        40        45        46
         2        30        39        40        45
         2        25        26        31        44
         2        26        31        32        44
         2        31        32        38        44
         2        25        31        44        45
         2        31        39        44        45
         2        31        38        39        44
         2        26        27        32        43
         2        27        32        33        43
         2        32        33        37        43
         2        26        32        43        44
         2        32        38        43        44
         2        32        37        38        43
         2        27        28        33        42
         2        28        33        34        42
         2        33        34        36        42
         2        27        33        42        43
         2        33        37        42        43
         2        33        36        37        42
         2        23        28        34        41
         2        23        29        34        41
         2        29        34        35        41
         2        28        34        41        42
         2        34        36        41        42
         2        34        35        36        41
         2        29        30        35        40
         2        30        35        36        40
         2        34        35        36        40
         4        29        35        35        40
         2        29        34        35        40
         2        30        31        36        39
         2        31        36        37        39
         2        33        36        37        39
         2        30        36        39        40
         2        34        36        39        40
         2        33        34        36        39
         2        31        32        37        38
         4        32        37        38        38
         2        31        37        38        39
         2        33        37        38        39
         2        32        33        37        38
