  13  13   0   0
  0.7869651E+01  0.3226266E-09  0.4632196E-09  0.7300818E-09  0.5000000E-15
  1.000000000000000E-004
  CAR 
 unknown system                          
      9.90317108    -33.81137825  301      3.54349623      1.00000000
    -33.811  0.0000E+00  0.0000E+00
    -33.666  0.0000E+00  0.0000E+00
    -33.520  0.0000E+00  0.0000E+00
    -33.374  0.0000E+00  0.0000E+00
    -33.229  0.0000E+00  0.0000E+00
    -33.083  0.0000E+00  0.0000E+00
    -32.937  0.0000E+00  0.0000E+00
    -32.791  0.0000E+00  0.0000E+00
    -32.646  0.8300E-29  0.1209E-29
    -32.500  0.1533E-19  0.2234E-20
    -32.354  0.3543E-12  0.5162E-13
    -32.209  0.9100E-07  0.1326E-07
    -32.063  0.1706E-03  0.2487E-04
    -31.917 -0.3755E-02 -0.5223E-03
    -31.771  0.8814E-01  0.1232E-01
    -31.626  0.1447E+00  0.3341E-01
    -31.480 -0.9555E-03  0.3327E-01
    -31.334  0.4585E-03  0.3333E-01
    -31.189  0.1855E-05  0.3333E-01
    -31.043  0.3294E-10  0.3333E-01
    -30.897  0.4776E-17  0.3333E-01
    -30.751  0.0000E+00  0.3333E-01
    -30.606  0.0000E+00  0.3333E-01
    -30.460  0.0000E+00  0.3333E-01
    -30.314  0.0000E+00  0.3333E-01
    -30.168  0.0000E+00  0.3333E-01
    -30.023  0.0000E+00  0.3333E-01
    -29.877  0.0000E+00  0.3333E-01
    -29.731  0.0000E+00  0.3333E-01
    -29.586  0.0000E+00  0.3333E-01
    -29.440  0.0000E+00  0.3333E-01
    -29.294  0.7965E-37  0.3333E-01
    -29.148  0.3470E-26  0.3333E-01
    -29.003  0.1927E-17  0.3333E-01
    -28.857  0.1282E-10  0.3333E-01
    -28.711  0.8743E-06  0.3333E-01
    -28.566  0.3102E-03  0.3338E-01
    -28.420 -0.2296E-02  0.3304E-01
    -28.274  0.1134E+00  0.4957E-01
    -28.128  0.1642E+00  0.7350E-01
    -27.983  0.4590E+00  0.1404E+00
    -27.837  0.6373E+00  0.2332E+00
    -27.691 -0.1277E-02  0.2330E+00
    -27.546  0.1953E-02  0.2333E+00
    -27.400  0.1003E-04  0.2333E+00
    -27.254  0.2174E-09  0.2333E+00
    -27.108  0.4754E-16  0.2333E+00
    -26.963  0.0000E+00  0.2333E+00
    -26.817  0.0000E+00  0.2333E+00
    -26.671  0.0000E+00  0.2333E+00
    -26.526  0.0000E+00  0.2333E+00
    -26.380  0.0000E+00  0.2333E+00
    -26.234  0.0000E+00  0.2333E+00
    -26.088  0.0000E+00  0.2333E+00
    -25.943  0.0000E+00  0.2333E+00
    -25.797  0.0000E+00  0.2333E+00
    -25.651  0.0000E+00  0.2333E+00
    -25.506  0.0000E+00  0.2333E+00
    -25.360  0.0000E+00  0.2333E+00
    -25.214  0.0000E+00  0.2333E+00
    -25.068  0.0000E+00  0.2333E+00
    -24.923  0.0000E+00  0.2333E+00
    -24.777  0.0000E+00  0.2333E+00
    -24.631  0.0000E+00  0.2333E+00
    -24.486  0.0000E+00  0.2333E+00
    -24.340  0.0000E+00  0.2333E+00
    -24.194  0.0000E+00  0.2333E+00
    -24.048  0.0000E+00  0.2333E+00
    -23.903  0.0000E+00  0.2333E+00
    -23.757  0.0000E+00  0.2333E+00
    -23.611  0.0000E+00  0.2333E+00
    -23.466  0.0000E+00  0.2333E+00
    -23.320  0.0000E+00  0.2333E+00
    -23.174  0.0000E+00  0.2333E+00
    -23.028  0.0000E+00  0.2333E+00
    -22.883  0.0000E+00  0.2333E+00
    -22.737  0.0000E+00  0.2333E+00
    -22.591  0.0000E+00  0.2333E+00
    -22.446  0.0000E+00  0.2333E+00
    -22.300  0.0000E+00  0.2333E+00
    -22.154  0.0000E+00  0.2333E+00
    -22.008  0.0000E+00  0.2333E+00
    -21.863  0.0000E+00  0.2333E+00
    -21.717  0.0000E+00  0.2333E+00
    -21.571  0.0000E+00  0.2333E+00
    -21.426  0.0000E+00  0.2333E+00
    -21.280  0.0000E+00  0.2333E+00
    -21.134  0.0000E+00  0.2333E+00
    -20.988  0.0000E+00  0.2333E+00
    -20.843  0.0000E+00  0.2333E+00
    -20.697  0.0000E+00  0.2333E+00
    -20.551  0.0000E+00  0.2333E+00
    -20.406  0.0000E+00  0.2333E+00
    -20.260  0.0000E+00  0.2333E+00
    -20.114  0.0000E+00  0.2333E+00
    -19.968  0.0000E+00  0.2333E+00
    -19.823  0.0000E+00  0.2333E+00
    -19.677  0.0000E+00  0.2333E+00
    -19.531  0.0000E+00  0.2333E+00
    -19.386  0.0000E+00  0.2333E+00
    -19.240  0.0000E+00  0.2333E+00
    -19.094  0.0000E+00  0.2333E+00
    -18.948  0.0000E+00  0.2333E+00
    -18.803  0.0000E+00  0.2333E+00
    -18.657  0.0000E+00  0.2333E+00
    -18.511  0.0000E+00  0.2333E+00
    -18.366  0.0000E+00  0.2333E+00
    -18.220  0.0000E+00  0.2333E+00
    -18.074  0.0000E+00  0.2333E+00
    -17.928  0.0000E+00  0.2333E+00
    -17.783  0.0000E+00  0.2333E+00
    -17.637  0.0000E+00  0.2333E+00
    -17.491  0.0000E+00  0.2333E+00
    -17.346  0.0000E+00  0.2333E+00
    -17.200  0.0000E+00  0.2333E+00
    -17.054  0.0000E+00  0.2333E+00
    -16.908  0.0000E+00  0.2333E+00
    -16.763  0.0000E+00  0.2333E+00
    -16.617  0.0000E+00  0.2333E+00
    -16.471  0.0000E+00  0.2333E+00
    -16.326  0.0000E+00  0.2333E+00
    -16.180  0.0000E+00  0.2333E+00
    -16.034  0.0000E+00  0.2333E+00
    -15.888  0.0000E+00  0.2333E+00
    -15.743  0.0000E+00  0.2333E+00
    -15.597  0.1901E-31  0.2333E+00
    -15.451  0.9494E-22  0.2333E+00
    -15.306  0.5990E-14  0.2333E+00
    -15.160  0.4285E-08  0.2333E+00
    -15.014  0.2459E-04  0.2333E+00
    -14.868 -0.8101E-03  0.2332E+00
    -14.723  0.2105E-01  0.2363E+00
    -14.577  0.3971E-01  0.2421E+00
    -14.431  0.8843E-02  0.2434E+00
    -14.286  0.3625E-01  0.2486E+00
    -14.140 -0.2093E-02  0.2483E+00
    -13.994  0.7070E-01  0.2586E+00
    -13.848  0.2002E+00  0.2878E+00
    -13.703  0.2175E+00  0.3195E+00
    -13.557  0.4109E-01  0.3255E+00
    -13.411  0.3596E-01  0.3307E+00
    -13.266  0.1862E-01  0.3334E+00
    -13.120 -0.7363E-03  0.3333E+00
    -12.974  0.3727E-04  0.3333E+00
    -12.828  0.1851E-07  0.3333E+00
    -12.683  0.6173E-13  0.3333E+00
    -12.537  0.0000E+00  0.3333E+00
    -12.391  0.0000E+00  0.3333E+00
    -12.246  0.0000E+00  0.3333E+00
    -12.100  0.0000E+00  0.3333E+00
    -11.954  0.0000E+00  0.3333E+00
    -11.808  0.0000E+00  0.3333E+00
    -11.663  0.0000E+00  0.3333E+00
    -11.517  0.0000E+00  0.3333E+00
    -11.371  0.0000E+00  0.3333E+00
    -11.226  0.0000E+00  0.3333E+00
    -11.080  0.0000E+00  0.3333E+00
    -10.934  0.0000E+00  0.3333E+00
    -10.788  0.0000E+00  0.3333E+00
    -10.643  0.0000E+00  0.3333E+00
    -10.497  0.0000E+00  0.3333E+00
    -10.351  0.0000E+00  0.3333E+00
    -10.206  0.0000E+00  0.3333E+00
    -10.060  0.0000E+00  0.3333E+00
     -9.914  0.0000E+00  0.3333E+00
     -9.768  0.0000E+00  0.3333E+00
     -9.623  0.0000E+00  0.3333E+00
     -9.477  0.0000E+00  0.3333E+00
     -9.331  0.0000E+00  0.3333E+00
     -9.186  0.0000E+00  0.3333E+00
     -9.040  0.0000E+00  0.3333E+00
     -8.894  0.0000E+00  0.3333E+00
     -8.748  0.0000E+00  0.3333E+00
     -8.603  0.0000E+00  0.3333E+00
     -8.457  0.0000E+00  0.3333E+00
     -8.311  0.0000E+00  0.3333E+00
     -8.166  0.0000E+00  0.3333E+00
     -8.020  0.0000E+00  0.3333E+00
     -7.874  0.0000E+00  0.3333E+00
     -7.728  0.0000E+00  0.3333E+00
     -7.583  0.0000E+00  0.3333E+00
     -7.437  0.4746E-30  0.3333E+00
     -7.291  0.5920E-21  0.3333E+00
     -7.146  0.8902E-14  0.3333E+00
     -7.000  0.1385E-08  0.3333E+00
     -6.854  0.1287E-05  0.3333E+00
     -6.708 -0.6080E-05  0.3333E+00
     -6.563  0.5196E-03  0.3334E+00
     -6.417  0.3988E-02  0.3340E+00
     -6.271  0.5626E-02  0.3348E+00
     -6.125  0.8390E-02  0.3360E+00
     -5.980  0.1204E-01  0.3378E+00
     -5.834  0.7345E-02  0.3389E+00
     -5.688  0.1196E-01  0.3406E+00
     -5.543  0.1241E-01  0.3424E+00
     -5.397  0.8380E-02  0.3436E+00
     -5.251  0.1825E-01  0.3463E+00
     -5.105  0.9578E-02  0.3477E+00
     -4.960  0.8631E-02  0.3489E+00
     -4.814  0.1571E-01  0.3512E+00
     -4.668  0.1469E-01  0.3534E+00
     -4.523  0.2236E-01  0.3566E+00
     -4.377  0.2037E-01  0.3596E+00
     -4.231  0.2805E-01  0.3637E+00
     -4.085  0.2465E-01  0.3673E+00
     -3.940  0.2511E-01  0.3709E+00
     -3.794  0.2237E-01  0.3742E+00
     -3.648  0.2264E-01  0.3775E+00
     -3.503  0.2829E-01  0.3816E+00
     -3.357  0.2871E-01  0.3858E+00
     -3.211  0.1556E-01  0.3881E+00
     -3.065  0.2331E-01  0.3915E+00
     -2.920  0.4894E-01  0.3986E+00
     -2.774  0.6747E-01  0.4084E+00
     -2.628  0.5715E-01  0.4168E+00
     -2.483  0.7457E-01  0.4276E+00
     -2.337  0.7851E-01  0.4391E+00
     -2.191  0.9230E-01  0.4525E+00
     -2.045  0.8581E-01  0.4650E+00
     -1.900  0.6032E-01  0.4738E+00
     -1.754  0.1327E+00  0.4931E+00
     -1.608  0.8291E-01  0.5052E+00
     -1.463  0.4049E-01  0.5111E+00
     -1.317  0.1462E-01  0.5133E+00
     -1.171  0.3398E-01  0.5182E+00
     -1.025  0.5713E-01  0.5265E+00
     -0.880  0.7909E-01  0.5381E+00
     -0.734  0.7227E-01  0.5486E+00
     -0.588  0.7091E-01  0.5589E+00
     -0.443  0.6318E-01  0.5681E+00
     -0.297  0.6483E-01  0.5776E+00
     -0.151  0.7406E-01  0.5884E+00
     -0.005  0.4596E-01  0.5951E+00
      0.140  0.2625E-01  0.5989E+00
      0.286  0.3268E-01  0.6037E+00
      0.432  0.4188E-01  0.6098E+00
      0.577  0.5245E-01  0.6174E+00
      0.723  0.4369E-01  0.6238E+00
      0.869  0.4204E-01  0.6299E+00
      1.015  0.1977E-01  0.6328E+00
      1.160  0.4626E-01  0.6395E+00
      1.306  0.4616E-01  0.6462E+00
      1.452  0.2998E-01  0.6506E+00
      1.597  0.3235E-01  0.6553E+00
      1.743  0.1253E-01  0.6571E+00
      1.889  0.7312E-02  0.6582E+00
      2.035  0.1284E-01  0.6601E+00
      2.180  0.1088E-01  0.6617E+00
      2.326  0.9944E-02  0.6631E+00
      2.472  0.8326E-02  0.6643E+00
      2.617  0.6429E-02  0.6653E+00
      2.763  0.6658E-02  0.6662E+00
      2.909  0.6144E-03  0.6663E+00
      3.055  0.8687E-02  0.6676E+00
      3.200  0.3913E-01  0.6733E+00
      3.346  0.7109E-01  0.6836E+00
      3.492  0.8243E-01  0.6957E+00
      3.637  0.8163E-01  0.7076E+00
      3.783  0.7573E-01  0.7186E+00
      3.929  0.3421E-01  0.7236E+00
      4.075  0.2751E-01  0.7276E+00
      4.220  0.2751E-01  0.7316E+00
      4.366  0.2484E-01  0.7352E+00
      4.512  0.4165E-01  0.7413E+00
      4.657  0.6771E-01  0.7511E+00
      4.803  0.5385E-01  0.7590E+00
      4.949  0.6190E-01  0.7680E+00
      5.095  0.7970E-01  0.7796E+00
      5.240  0.5730E-01  0.7880E+00
      5.386  0.4875E-01  0.7951E+00
      5.532  0.5256E-01  0.8027E+00
      5.677  0.3791E-01  0.8083E+00
      5.823  0.4844E-01  0.8153E+00
      5.969  0.5727E-01  0.8237E+00
      6.115  0.5931E-01  0.8323E+00
      6.260  0.5778E-01  0.8407E+00
      6.406  0.7518E-01  0.8517E+00
      6.552  0.7648E-01  0.8628E+00
      6.697  0.5784E-01  0.8713E+00
      6.843  0.6735E-01  0.8811E+00
      6.989  0.8400E-01  0.8933E+00
      7.135  0.7171E-01  0.9038E+00
      7.280  0.4680E-01  0.9106E+00
      7.426  0.5924E-01  0.9192E+00
      7.572  0.4729E-01  0.9261E+00
      7.717  0.3470E-01  0.9312E+00
      7.863  0.1359E-01  0.9331E+00
      8.009  0.1326E-02  0.9333E+00
      8.155 -0.5099E-05  0.9333E+00
      8.300  0.2474E-05  0.9333E+00
      8.446  0.1599E-08  0.9333E+00
      8.592  0.7706E-14  0.9333E+00
      8.737  0.0000E+00  0.9333E+00
      8.883  0.0000E+00  0.9333E+00
      9.029  0.0000E+00  0.9333E+00
      9.175  0.0000E+00  0.9333E+00
      9.320  0.0000E+00  0.9333E+00
      9.466  0.0000E+00  0.9333E+00
      9.612  0.0000E+00  0.9333E+00
      9.757  0.0000E+00  0.9333E+00
      9.903  0.0000E+00  0.9333E+00
