unknown system                          
           1
     3.220876    0.119641   -0.142956
    -0.190612    4.624895   -0.176777
    -1.237620   -1.745285    6.980273
   Nb   H    Nb   H    Sr
   1   6   1   4   1
Direct configuration=     1
   0.03538221  0.04616206  0.42810838
   0.54887823  0.79082154  0.45359088
   0.11216296  0.45441899  0.58109924
   0.56011711  0.29168088  0.47471456
   0.16107783  0.95450649  0.67831478
   0.75940821  0.04542012  0.87774564
   0.25300549  0.71993338  0.86372256
   0.67788424  0.67656520  0.71337197
   0.81069998  0.71950027  0.97897735
   0.71275444  0.34054743  0.78545082
   0.95952607  0.31350198  0.27688928
   0.44443008  0.93780079  0.24391433
   0.34450616  0.34447387  0.04671621
unknown system                          
           1
     3.221217    0.120336   -0.142981
    -0.189611    4.625127   -0.176086
    -1.238278   -1.744688    6.978620
   Nb   H    Nb   H    Sr
   1   6   1   4   1
Direct configuration=     2
   0.03546354  0.04654305  0.42807905
   0.54876951  0.79087763  0.45359720
   0.11218052  0.45457104  0.58118324
   0.55993983  0.29165324  0.47467098
   0.16101703  0.95427611  0.67838083
   0.75958116  0.04565737  0.87802138
   0.25312187  0.71994969  0.86375469
   0.67773865  0.67578221  0.71302284
   0.81083521  0.71937141  0.97910800
   0.71271069  0.34067597  0.78521045
   0.95960821  0.31345598  0.27692962
   0.44438491  0.93796564  0.24392341
   0.34448187  0.34455366  0.04673430
unknown system                          
           1
     3.221199    0.120298   -0.142980
    -0.189665    4.625114   -0.176124
    -1.238243   -1.744720    6.978709
   Nb   H    Nb   H    Sr
   1   6   1   4   1
Direct configuration=     3
   0.03545916  0.04652252  0.42808064
   0.54877537  0.79087461  0.45359686
   0.11217958  0.45456285  0.58117872
   0.55994938  0.29165473  0.47467333
   0.16102030  0.95428852  0.67837727
   0.75957184  0.04564459  0.87800653
   0.25311560  0.71994881  0.86375295
   0.67774648  0.67582439  0.71304165
   0.81082792  0.71937835  0.97910096
   0.71271306  0.34066904  0.78522341
   0.95960378  0.31345846  0.27692744
   0.44438734  0.93795676  0.24392292
   0.34448318  0.34454936  0.04673332
