       N       E                     dE             d eps       ncg     rms          rms(c)
DAV:   1     0.169096272481E+03    0.16910E+03   -0.14300E+04 13704   0.717E+02
DAV:   2    -0.407780575971E+02   -0.20987E+03   -0.20264E+03 16728   0.271E+02
DAV:   3    -0.555402416487E+02   -0.14762E+02   -0.14649E+02 18896   0.551E+01
DAV:   4    -0.565294407285E+02   -0.98920E+00   -0.98655E+00 21592   0.133E+01
DAV:   5    -0.565497727412E+02   -0.20332E-01   -0.20331E-01 18880   0.155E+00    0.379E+01
DAV:   6    -0.538585317077E+02    0.26912E+01   -0.76066E+00 19040   0.156E+01    0.158E+01
DAV:   7    -0.536295737969E+02    0.22896E+00   -0.44164E+00 19176   0.865E+00    0.110E+01
DAV:   8    -0.534073285296E+02    0.22225E+00   -0.12336E+00 17536   0.546E+00    0.325E+00
DAV:   9    -0.534106279203E+02   -0.32994E-02   -0.15436E-01 18912   0.163E+00    0.112E+00
DAV:  10    -0.534104932786E+02    0.13464E-03   -0.24991E-02 19112   0.735E-01    0.268E-01
DAV:  11    -0.534106077784E+02   -0.11450E-03   -0.42038E-03 15832   0.274E-01    0.134E-01
DAV:  12    -0.534107377733E+02   -0.12999E-03   -0.68749E-04 15992   0.123E-01    0.668E-02
DAV:  13    -0.534107953648E+02   -0.57591E-04   -0.93638E-05 10968   0.517E-02
   1 F= -.53410795E+02 E0= -.53410787E+02  d E =-.534108E+02
       N       E                     dE             d eps       ncg     rms          rms(c)
DAV:   1    -0.548860249600E+02   -0.14753E+01   -0.35754E+01 14184   0.411E+01    0.101E+01
DAV:   2    -0.544273124063E+02    0.45871E+00   -0.43093E+00 16416   0.137E+01    0.354E+00
DAV:   3    -0.542638726229E+02    0.16344E+00   -0.67168E-01 20488   0.417E+00    0.163E+00
DAV:   4    -0.542269060168E+02    0.36967E-01   -0.21168E-01 22648   0.260E+00    0.167E+00
DAV:   5    -0.542304061958E+02   -0.35002E-02   -0.17416E-02 18072   0.563E-01    0.139E+00
DAV:   6    -0.542370325009E+02   -0.66263E-02   -0.16947E-02 24480   0.494E-01    0.273E-01
DAV:   7    -0.542377165246E+02   -0.68402E-03   -0.30119E-03 22912   0.273E-01    0.231E-01
DAV:   8    -0.542377327482E+02   -0.16224E-04   -0.31478E-04 14808   0.796E-02
   2 F= -.54237733E+02 E0= -.54237777E+02  d E =-.826937E+00
       N       E                     dE             d eps       ncg     rms          rms(c)
DAV:   1    -0.576376302286E+02   -0.33999E+01   -0.14929E+02 14184   0.860E+01    0.254E+01
DAV:   2    -0.555746649309E+02    0.20630E+01   -0.16162E+01 16728   0.276E+01    0.690E+00
DAV:   3    -0.549076966555E+02    0.66697E+00   -0.25430E+00 19120   0.776E+00    0.309E+00
DAV:   4    -0.548182853733E+02    0.89411E-01   -0.80201E-01 23664   0.504E+00    0.295E+00
DAV:   5    -0.548339821947E+02   -0.15697E-01   -0.51863E-02 17728   0.106E+00    0.219E+00
DAV:   6    -0.548620578901E+02   -0.28076E-01   -0.77226E-02 24520   0.128E+00    0.592E-01
DAV:   7    -0.548629734282E+02   -0.91554E-03   -0.34393E-03 17152   0.325E-01    0.354E-01
DAV:   8    -0.548630587945E+02   -0.85366E-04   -0.17074E-03 24040   0.238E-01    0.885E-02
DAV:   9    -0.548630708774E+02   -0.12083E-04   -0.11910E-04 12128   0.667E-02
   3 F= -.54863071E+02 E0= -.54862905E+02  d E =-.145228E+01
       N       E                     dE             d eps       ncg     rms          rms(c)
DAV:   1    -0.553644823560E+02   -0.50142E+00   -0.78172E+00 12608   0.171E+01    0.413E+00
DAV:   2    -0.553007584702E+02    0.63724E-01   -0.47866E-01 18816   0.556E+00    0.131E+00
DAV:   3    -0.552796156099E+02    0.21143E-01   -0.50032E-02 17208   0.124E+00    0.633E-01
DAV:   4    -0.552748583780E+02    0.47572E-02   -0.23878E-02 23064   0.772E-01    0.698E-01
DAV:   5    -0.552754294285E+02   -0.57105E-03   -0.17296E-03 18200   0.178E-01    0.447E-01
DAV:   6    -0.552757877070E+02   -0.35828E-03   -0.31965E-03 24224   0.270E-01    0.127E-01
DAV:   7    -0.552757829021E+02    0.48050E-05   -0.12696E-04 12232   0.635E-02
   4 F= -.55275783E+02 E0= -.55275756E+02  d E =-.412712E+00
       N       E                     dE             d eps       ncg     rms          rms(c)
DAV:   1    -0.570632645442E+02   -0.17875E+01   -0.70996E+01 12608   0.521E+01    0.130E+01
DAV:   2    -0.564824226764E+02    0.58084E+00   -0.44267E+00 18496   0.168E+01    0.372E+00
DAV:   3    -0.562923315955E+02    0.19009E+00   -0.44656E-01 17944   0.368E+00    0.180E+00
DAV:   4    -0.562551260466E+02    0.37206E-01   -0.21623E-01 23448   0.242E+00    0.206E+00
DAV:   5    -0.562611254138E+02   -0.59994E-02   -0.15663E-02 16616   0.564E-01    0.123E+00
DAV:   6    -0.562647037677E+02   -0.35784E-02   -0.23030E-02 24616   0.721E-01    0.295E-01
DAV:   7    -0.562647281883E+02   -0.24421E-04   -0.10685E-03 15888   0.179E-01    0.150E-01
DAV:   8    -0.562648450257E+02   -0.11684E-03   -0.17845E-04 12568   0.890E-02    0.528E-02
DAV:   9    -0.562648487145E+02   -0.36888E-05   -0.50332E-05 10320   0.692E-02
   5 F= -.56264849E+02 E0= -.56264680E+02  d E =-.140178E+01
       N       E                     dE             d eps       ncg     rms          rms(c)
DAV:   1    -0.588995740532E+02   -0.26347E+01   -0.29124E+02 12632   0.108E+02    0.306E+01
DAV:   2    -0.563860518812E+02    0.25135E+01   -0.20045E+01 17568   0.356E+01    0.756E+00
DAV:   3    -0.555596483785E+02    0.82640E+00   -0.23102E+00 18920   0.853E+00    0.367E+00
DAV:   4    -0.554498170519E+02    0.10983E+00   -0.95451E-01 23504   0.530E+00    0.383E+00
DAV:   5    -0.554682218993E+02   -0.18405E-01   -0.66671E-02 16272   0.125E+00    0.260E+00
DAV:   6    -0.554909429612E+02   -0.22721E-01   -0.60377E-02 24704   0.125E+00    0.519E-01
DAV:   7    -0.554916747398E+02   -0.73178E-03   -0.46662E-03 20568   0.381E-01    0.222E-01
DAV:   8    -0.554918872853E+02   -0.21255E-03   -0.14259E-03 20800   0.212E-01    0.128E-01
DAV:   9    -0.554918725249E+02    0.14760E-04   -0.94808E-05 11488   0.643E-02
   6 F= -.55491873E+02 E0= -.55491818E+02  d E =-.628802E+00
       N       E                     dE             d eps       ncg     rms          rms(c)
DAV:   1    -0.583076335598E+02   -0.28157E+01   -0.15289E+02 12632   0.804E+01    0.193E+01
DAV:   2    -0.570677362791E+02    0.12399E+01   -0.13060E+01 20240   0.281E+01    0.648E+00
DAV:   3    -0.565730722139E+02    0.49466E+00   -0.14418E+00 18576   0.655E+00    0.406E+00
DAV:   4    -0.564794866426E+02    0.93586E-01   -0.45811E-01 22928   0.316E+00    0.475E+00
DAV:   5    -0.565006315886E+02   -0.21145E-01   -0.45432E-02 18584   0.106E+00    0.209E+00
DAV:   6    -0.564952309719E+02    0.54006E-02   -0.96704E-02 24024   0.125E+00    0.114E+00
DAV:   7    -0.564950975625E+02    0.13341E-03   -0.91180E-03 18216   0.484E-01    0.342E-01
DAV:   8    -0.564956981580E+02   -0.60060E-03   -0.12571E-03 18616   0.215E-01    0.485E-01
DAV:   9    -0.564955935947E+02    0.10456E-03   -0.48907E-04 16688   0.127E-01    0.243E-02
DAV:  10    -0.564955983580E+02   -0.47633E-05   -0.54597E-05  9944   0.451E-02
   7 F= -.56495598E+02 E0= -.56495333E+02  d E =-.163253E+01
       N       E                     dE             d eps       ncg     rms          rms(c)
DAV:   1    -0.572133500925E+02   -0.71776E+00   -0.89260E+00 14184   0.199E+01    0.188E+00
DAV:   2    -0.572374686790E+02   -0.24119E-01   -0.46815E-01 16016   0.414E+00    0.129E+00
DAV:   3    -0.572342676112E+02    0.32011E-02   -0.19735E-02 18072   0.801E-01    0.597E-01
DAV:   4    -0.572340705427E+02    0.19707E-03   -0.43904E-03 19112   0.397E-01    0.973E-02
DAV:   5    -0.572340483571E+02    0.22186E-04   -0.33388E-04 12968   0.126E-01
   8 F= -.57234048E+02 E0= -.57233709E+02  d E =-.738450E+00
       N       E                     dE             d eps       ncg     rms          rms(c)
DAV:   1    -0.584292928780E+02   -0.11952E+01   -0.82065E+01 14184   0.596E+01    0.535E+00
DAV:   2    -0.586686117397E+02   -0.23932E+00   -0.46499E+00 16808   0.130E+01    0.412E+00
DAV:   3    -0.586188770795E+02    0.49735E-01   -0.17096E-01 18248   0.243E+00    0.204E+00
DAV:   4    -0.586118626935E+02    0.70144E-02   -0.69169E-02 17768   0.146E+00    0.363E-01
DAV:   5    -0.586119095970E+02   -0.46903E-04   -0.71418E-03 17152   0.486E-01    0.238E-01
DAV:   6    -0.586118492443E+02    0.60353E-04   -0.95601E-04 16112   0.176E-01
   9 F= -.58611849E+02 E0= -.58611607E+02  d E =-.211625E+01
       N       E                     dE             d eps       ncg     rms          rms(c)
DAV:   1    -0.594562578286E+02   -0.84435E+00   -0.84798E+00 12896   0.189E+01    0.492E+00
DAV:   2    -0.593868122773E+02    0.69446E-01   -0.77727E-01 18752   0.657E+00    0.159E+00
DAV:   3    -0.593558010688E+02    0.31011E-01   -0.79683E-02 19424   0.166E+00    0.127E+00
DAV:   4    -0.593508692963E+02    0.49318E-02   -0.34975E-02 21896   0.983E-01    0.121E+00
DAV:   5    -0.593525176474E+02   -0.16484E-02   -0.36860E-03 17592   0.296E-01    0.620E-01
DAV:   6    -0.593525559599E+02   -0.38313E-04   -0.46339E-03 25152   0.338E-01    0.239E-01
DAV:   7    -0.593525297268E+02    0.26233E-04   -0.19960E-04 13664   0.770E-02
  10 F= -.59352530E+02 E0= -.59352502E+02  d E =-.740680E+00
       N       E                     dE             d eps       ncg     rms          rms(c)
DAV:   1    -0.603708503497E+02   -0.10183E+01   -0.40009E+01 13760   0.405E+01    0.954E+00
DAV:   2    -0.600713282459E+02    0.29952E+00   -0.39150E+00 19200   0.143E+01    0.329E+00
DAV:   3    -0.599133976583E+02    0.15793E+00   -0.40881E-01 19488   0.378E+00    0.288E+00
DAV:   4    -0.598797746253E+02    0.33623E-01   -0.17839E-01 20728   0.223E+00    0.261E+00
DAV:   5    -0.598910351151E+02   -0.11260E-01   -0.22032E-02 18624   0.699E-01    0.113E+00
DAV:   6    -0.598870906148E+02    0.39445E-02   -0.30125E-02 24136   0.841E-01    0.562E-01
DAV:   7    -0.598871263138E+02   -0.35699E-04   -0.24085E-03 16976   0.206E-01    0.144E-01
DAV:   8    -0.598872355228E+02   -0.10921E-03   -0.30301E-04 14200   0.133E-01    0.131E-01
DAV:   9    -0.598872283055E+02    0.72173E-05   -0.91289E-05 12104   0.605E-02
  11 F= -.59887228E+02 E0= -.59887050E+02  d E =-.127538E+01
       N       E                     dE             d eps       ncg     rms          rms(c)
DAV:   1    -0.599858478683E+02   -0.98612E-01   -0.40310E+00 13304   0.126E+01    0.302E+00
DAV:   2    -0.599507465502E+02    0.35101E-01   -0.33035E-01 18024   0.420E+00    0.101E+00
DAV:   3    -0.599362466542E+02    0.14500E-01   -0.35053E-02 20240   0.111E+00    0.707E-01
DAV:   4    -0.599341394166E+02    0.21072E-02   -0.18832E-02 20912   0.746E-01    0.648E-01
DAV:   5    -0.599346570936E+02   -0.51768E-03   -0.17807E-03 17440   0.203E-01    0.369E-01
DAV:   6    -0.599349883042E+02   -0.33121E-03   -0.13053E-03 24632   0.176E-01    0.606E-02
DAV:   7    -0.599349931676E+02   -0.48634E-05   -0.45829E-05 10304   0.430E-02
  12 F= -.59934993E+02 E0= -.59934924E+02  d E =-.132314E+01
       N       E                     dE             d eps       ncg     rms          rms(c)
DAV:   1    -0.599508588402E+02   -0.15871E-01   -0.32973E-01 13488   0.362E+00    0.841E-01
DAV:   2    -0.599482769687E+02    0.25819E-02   -0.29053E-02 18456   0.123E+00    0.290E-01
DAV:   3    -0.599470627269E+02    0.12142E-02   -0.29045E-03 20200   0.322E-01    0.218E-01
DAV:   4    -0.599468358828E+02    0.22684E-03   -0.14892E-03 20808   0.211E-01    0.198E-01
DAV:   5    -0.599468846504E+02   -0.48768E-04   -0.15222E-04 12520   0.636E-02
  13 F= -.59946885E+02 E0= -.59946788E+02  d E =-.133504E+01
       N       E                     dE             d eps       ncg     rms          rms(c)
DAV:   1    -0.602589313975E+02   -0.31210E+00   -0.47323E+00 14184   0.161E+01    0.329E+00
DAV:   2    -0.601979148140E+02    0.61017E-01   -0.70702E-01 18856   0.597E+00    0.117E+00
DAV:   3    -0.601802092298E+02    0.17706E-01   -0.63977E-02 22000   0.151E+00    0.658E-01
DAV:   4    -0.601759402345E+02    0.42690E-02   -0.19619E-02 22472   0.695E-01    0.825E-01
DAV:   5    -0.601767307001E+02   -0.79047E-03   -0.21273E-03 18056   0.206E-01    0.528E-01
DAV:   6    -0.601772138572E+02   -0.48316E-03   -0.29616E-03 23880   0.237E-01    0.149E-01
DAV:   7    -0.601772001589E+02    0.13698E-04   -0.20922E-04 13520   0.867E-02
  14 F= -.60177200E+02 E0= -.60177024E+02  d E =-.230316E+00
       N       E                     dE             d eps       ncg     rms          rms(c)
DAV:   1    -0.606096737139E+02   -0.43246E+00   -0.15651E+01 12632   0.292E+01    0.559E+00
DAV:   2    -0.604433665370E+02    0.16631E+00   -0.26420E+00 18968   0.114E+01    0.212E+00
DAV:   3    -0.603829791009E+02    0.60387E-01   -0.20469E-01 18736   0.298E+00    0.128E+00
DAV:   4    -0.603626584906E+02    0.20321E-01   -0.65477E-02 21752   0.123E+00    0.153E+00
DAV:   5    -0.603667187813E+02   -0.40603E-02   -0.97461E-03 18760   0.473E-01    0.795E-01
DAV:   6    -0.603654329294E+02    0.12859E-02   -0.16231E-02 21432   0.529E-01    0.407E-01
DAV:   7    -0.603655571835E+02   -0.12425E-03   -0.23488E-03 18920   0.204E-01    0.123E-01
DAV:   8    -0.603656143625E+02   -0.57179E-04   -0.12016E-04 11312   0.833E-02
  15 F= -.60365614E+02 E0= -.60365306E+02  d E =-.418730E+00
       N       E                     dE             d eps       ncg     rms          rms(c)
DAV:   1    -0.603820119710E+02   -0.16455E-01   -0.62618E-01 14216   0.574E+00    0.116E+00
DAV:   2    -0.603739473783E+02    0.80646E-02   -0.90762E-02 18648   0.209E+00    0.416E-01
DAV:   3    -0.603717141299E+02    0.22332E-02   -0.83456E-03 21912   0.537E-01    0.215E-01
DAV:   4    -0.603711328655E+02    0.58126E-03   -0.25505E-03 22192   0.257E-01    0.274E-01
DAV:   5    -0.603712082544E+02   -0.75389E-04   -0.25770E-04 15216   0.683E-02
  16 F= -.60371208E+02 E0= -.60370885E+02  d E =-.424324E+00
       N       E                     dE             d eps       ncg     rms          rms(c)
DAV:   1    -0.606888107107E+02   -0.31768E+00   -0.60040E+00 13160   0.152E+01    0.365E+00
DAV:   2    -0.605984968740E+02    0.90314E-01   -0.64726E-01 19064   0.639E+00    0.142E+00
DAV:   3    -0.605752506664E+02    0.23246E-01   -0.62090E-02 20160   0.153E+00    0.762E-01
DAV:   4    -0.605673138698E+02    0.79368E-02   -0.25384E-02 20640   0.773E-01    0.814E-01
DAV:   5    -0.605685297852E+02   -0.12159E-02   -0.37372E-03 20048   0.276E-01    0.418E-01
DAV:   6    -0.605682781064E+02    0.25168E-03   -0.46362E-03 23056   0.282E-01    0.149E-01
DAV:   7    -0.605682923932E+02   -0.14287E-04   -0.41942E-04 16272   0.978E-02
  17 F= -.60568292E+02 E0= -.60567893E+02  d E =-.197084E+00
       N       E                     dE             d eps       ncg     rms          rms(c)
DAV:   1    -0.612736264124E+02   -0.70535E+00   -0.27422E+01 13184   0.324E+01    0.712E+00
DAV:   2    -0.608786769219E+02    0.39495E+00   -0.32114E+00 20208   0.134E+01    0.298E+00
DAV:   3    -0.607623799130E+02    0.11630E+00   -0.30013E-01 19096   0.320E+00    0.168E+00
DAV:   4    -0.607260167271E+02    0.36363E-01   -0.11815E-01 20512   0.155E+00    0.178E+00
DAV:   5    -0.607321514948E+02   -0.61348E-02   -0.19804E-02 21128   0.700E-01    0.859E-01
DAV:   6    -0.607293854607E+02    0.27660E-02   -0.25907E-02 23096   0.713E-01    0.357E-01
DAV:   7    -0.607294622978E+02   -0.76837E-04   -0.28061E-03 18536   0.244E-01    0.123E-01
DAV:   8    -0.607294992720E+02   -0.36974E-04   -0.17434E-04 12944   0.848E-02
  18 F= -.60729499E+02 E0= -.60729220E+02  d E =-.358291E+00
       N       E                     dE             d eps       ncg     rms          rms(c)
DAV:   1    -0.609567597209E+02   -0.22730E+00   -0.92076E+00 12608   0.179E+01    0.285E+00
DAV:   2    -0.608923759096E+02    0.64384E-01   -0.63538E-01 17712   0.631E+00    0.164E+00
DAV:   3    -0.608757119811E+02    0.16664E-01   -0.52600E-02 19344   0.139E+00    0.820E-01
DAV:   4    -0.608678261441E+02    0.78858E-02   -0.20442E-02 20440   0.754E-01    0.597E-01
DAV:   5    -0.608683217677E+02   -0.49562E-03   -0.47430E-03 21096   0.338E-01    0.373E-01
DAV:   6    -0.608683330043E+02   -0.11237E-04   -0.18805E-03 24080   0.222E-01    0.494E-02
DAV:   7    -0.608683177301E+02    0.15274E-04   -0.24355E-04 14112   0.935E-02
  19 F= -.60868318E+02 E0= -.60868022E+02  d E =-.138818E+00
       N       E                     dE             d eps       ncg     rms          rms(c)
DAV:   1    -0.609293012593E+02   -0.60968E-01   -0.38115E+00 12608   0.115E+01    0.184E+00
DAV:   2    -0.609030616238E+02    0.26240E-01   -0.25918E-01 17640   0.402E+00    0.106E+00
DAV:   3    -0.608964721388E+02    0.65895E-02   -0.20637E-02 18960   0.868E-01    0.528E-01
DAV:   4    -0.608933420861E+02    0.31301E-02   -0.83809E-03 20536   0.486E-01    0.375E-01
DAV:   5    -0.608935433043E+02   -0.20122E-03   -0.18728E-03 19408   0.212E-01    0.237E-01
DAV:   6    -0.608935525372E+02   -0.92329E-05   -0.78403E-04 22616   0.140E-01
  20 F= -.60893553E+02 E0= -.60893252E+02  d E =-.164053E+00
       N       E                     dE             d eps       ncg     rms          rms(c)
DAV:   1    -0.610089421104E+02   -0.11540E+00   -0.57655E+00 13856   0.152E+01    0.148E+00
DAV:   2    -0.610182382327E+02   -0.92961E-02   -0.27416E-01 16392   0.333E+00    0.110E+00
DAV:   3    -0.610146324464E+02    0.36058E-02   -0.14218E-02 20128   0.661E-01    0.482E-01
DAV:   4    -0.610140484117E+02    0.58403E-03   -0.27554E-03 19160   0.324E-01    0.173E-01
DAV:   5    -0.610141143317E+02   -0.65920E-04   -0.38163E-04 17136   0.103E-01
  21 F= -.61014114E+02 E0= -.61013810E+02  d E =-.120562E+00
       N       E                     dE             d eps       ncg     rms          rms(c)
DAV:   1    -0.610586465775E+02   -0.44598E-01   -0.96946E+00 14152   0.198E+01    0.195E+00
DAV:   2    -0.610739753151E+02   -0.15329E-01   -0.45589E-01 16352   0.432E+00    0.147E+00
DAV:   3    -0.610680506998E+02    0.59246E-02   -0.24206E-02 19520   0.858E-01    0.659E-01
DAV:   4    -0.610671712027E+02    0.87950E-03   -0.48557E-03 19608   0.436E-01    0.226E-01
DAV:   5    -0.610672841427E+02   -0.11294E-03   -0.64689E-04 18480   0.132E-01    0.793E-02
DAV:   6    -0.610673003064E+02   -0.16164E-04   -0.51396E-05 10984   0.517E-02
  22 F= -.61067300E+02 E0= -.61067153E+02  d E =-.173748E+00
       N       E                     dE             d eps       ncg     rms          rms(c)
DAV:   1    -0.611365643845E+02   -0.69280E-01   -0.44155E+00 12608   0.119E+01    0.102E+00
DAV:   2    -0.611419575586E+02   -0.53932E-02   -0.15316E-01 16608   0.272E+00    0.776E-01
DAV:   3    -0.611400798026E+02    0.18778E-02   -0.78850E-03 20120   0.460E-01    0.390E-01
DAV:   4    -0.611396970960E+02    0.38271E-03   -0.20113E-03 17504   0.281E-01    0.911E-02
DAV:   5    -0.611397321547E+02   -0.35059E-04   -0.24076E-04 13184   0.991E-02
  23 F= -.61139732E+02 E0= -.61139770E+02  d E =-.724318E-01
       N       E                     dE             d eps       ncg     rms          rms(c)
DAV:   1    -0.611565691313E+02   -0.16872E-01   -0.28904E+00 12608   0.961E+00    0.808E-01
DAV:   2    -0.611603569947E+02   -0.37879E-02   -0.10114E-01 16456   0.221E+00    0.635E-01
DAV:   3    -0.611592461537E+02    0.11108E-02   -0.51254E-03 20160   0.364E-01    0.338E-01
DAV:   4    -0.611589677450E+02    0.27841E-03   -0.13273E-03 17576   0.233E-01    0.725E-02
DAV:   5    -0.611589932151E+02   -0.25470E-04   -0.18870E-04 14016   0.858E-02
  24 F= -.61158993E+02 E0= -.61159137E+02  d E =-.916929E-01
       N       E                     dE             d eps       ncg     rms          rms(c)
DAV:   1    -0.612194104879E+02   -0.60443E-01   -0.22239E+00 12608   0.855E+00    0.927E-01
DAV:   2    -0.612222460728E+02   -0.28356E-02   -0.88231E-02 17808   0.200E+00    0.514E-01
DAV:   3    -0.612208932200E+02    0.13529E-02   -0.50000E-03 20248   0.371E-01    0.202E-01
DAV:   4    -0.612207594521E+02    0.13377E-03   -0.83160E-04 17880   0.176E-01    0.895E-02
DAV:   5    -0.612207629819E+02   -0.35298E-05   -0.71632E-05 10992   0.608E-02
  25 F= -.61220763E+02 E0= -.61220960E+02  d E =-.617698E-01
       N       E                     dE             d eps       ncg     rms          rms(c)
DAV:   1    -0.613069382684E+02   -0.86179E-01   -0.20006E+01 12608   0.255E+01    0.265E+00
DAV:   2    -0.613347183063E+02   -0.27780E-01   -0.79270E-01 17968   0.594E+00    0.150E+00
DAV:   3    -0.613228606134E+02    0.11858E-01   -0.44432E-02 20216   0.109E+00    0.585E-01
DAV:   4    -0.613214843045E+02    0.13763E-02   -0.73365E-03 18040   0.520E-01    0.272E-01
DAV:   5    -0.613215711049E+02   -0.86800E-04   -0.10261E-03 22240   0.176E-01    0.142E-01
DAV:   6    -0.613215803792E+02   -0.92742E-05   -0.14254E-04 11400   0.873E-02
  26 F= -.61321580E+02 E0= -.61321830E+02  d E =-.162587E+00
       N       E                     dE             d eps       ncg     rms          rms(c)
DAV:   1    -0.613753821822E+02   -0.53811E-01   -0.52917E+00 12608   0.152E+01    0.112E+00
DAV:   2    -0.613975324344E+02   -0.22150E-01   -0.35658E-01 15800   0.365E+00    0.744E-01
DAV:   3    -0.613952255634E+02    0.23069E-02   -0.12247E-02 21200   0.620E-01    0.385E-01
DAV:   4    -0.613944326586E+02    0.79290E-03   -0.33528E-03 17312   0.356E-01    0.986E-02
DAV:   5    -0.613944644457E+02   -0.31787E-04   -0.52093E-04 14304   0.133E-01
  27 F= -.61394464E+02 E0= -.61394736E+02  d E =-.728841E-01
       N       E                     dE             d eps       ncg     rms          rms(c)
DAV:   1    -0.613990542097E+02   -0.46216E-02   -0.48073E+00 12608   0.144E+01    0.105E+00
DAV:   2    -0.614196278455E+02   -0.20574E-01   -0.32657E-01 15784   0.348E+00    0.693E-01
DAV:   3    -0.614175240942E+02    0.21038E-02   -0.10979E-02 21312   0.589E-01    0.359E-01
DAV:   4    -0.614167908170E+02    0.73328E-03   -0.31323E-03 17216   0.341E-01    0.947E-02
DAV:   5    -0.614168253832E+02   -0.34566E-04   -0.51208E-04 14224   0.129E-01
  28 F= -.61416825E+02 E0= -.61417051E+02  d E =-.952450E-01
       N       E                     dE             d eps       ncg     rms          rms(c)
DAV:   1    -0.614595598831E+02   -0.42769E-01   -0.25633E+00 12608   0.875E+00    0.661E-01
DAV:   2    -0.614635093549E+02   -0.39495E-02   -0.95065E-02 17232   0.201E+00    0.418E-01
DAV:   3    -0.614627614456E+02    0.74791E-03   -0.44424E-03 20496   0.332E-01    0.206E-01
DAV:   4    -0.614624825597E+02    0.27889E-03   -0.81075E-04 16952   0.175E-01    0.566E-02
DAV:   5    -0.614624872631E+02   -0.47034E-05   -0.93736E-05 11000   0.644E-02
  29 F= -.61462487E+02 E0= -.61462659E+02  d E =-.456619E-01
       N       E                     dE             d eps       ncg     rms          rms(c)
DAV:   1    -0.615196624032E+02   -0.57180E-01   -0.23107E+01 12608   0.262E+01    0.198E+00
DAV:   2    -0.615579323472E+02   -0.38270E-01   -0.86850E-01 17056   0.603E+00    0.127E+00
DAV:   3    -0.615514861403E+02    0.64462E-02   -0.39731E-02 19984   0.100E+00    0.629E-01
DAV:   4    -0.615488929906E+02    0.25931E-02   -0.75961E-03 17168   0.536E-01    0.175E-01
DAV:   5    -0.615489532546E+02   -0.60264E-04   -0.10529E-03 17896   0.198E-01    0.664E-02
DAV:   6    -0.615489632260E+02   -0.99714E-05   -0.93468E-05 11040   0.697E-02
  30 F= -.61548963E+02 E0= -.61548994E+02  d E =-.132138E+00
       N       E                     dE             d eps       ncg     rms          rms(c)
DAV:   1    -0.613276938479E+02    0.22126E+00   -0.93126E+01 12608   0.521E+01    0.427E+00
DAV:   2    -0.615016951447E+02   -0.17400E+00   -0.36197E+00 16904   0.121E+01    0.260E+00
DAV:   3    -0.614773200735E+02    0.24375E-01   -0.15831E-01 19840   0.199E+00    0.131E+00
DAV:   4    -0.614667604947E+02    0.10560E-01   -0.31679E-02 17376   0.107E+00    0.369E-01
DAV:   5    -0.614670294115E+02   -0.26892E-03   -0.42854E-03 17832   0.401E-01    0.133E-01
DAV:   6    -0.614670979301E+02   -0.68519E-04   -0.50334E-04 17048   0.139E-01
  31 F= -.61467098E+02 E0= -.61467421E+02  d E =-.502725E-01
       N       E                     dE             d eps       ncg     rms          rms(c)
DAV:   1    -0.615176145541E+02   -0.50585E-01   -0.51778E+01 12608   0.389E+01    0.339E+00
DAV:   2    -0.615843830799E+02   -0.66769E-01   -0.19222E+00 17416   0.908E+00    0.197E+00
DAV:   3    -0.615680609476E+02    0.16322E-01   -0.90390E-02 21432   0.157E+00    0.993E-01
DAV:   4    -0.615617367673E+02    0.63242E-02   -0.16355E-02 17520   0.760E-01    0.319E-01
DAV:   5    -0.615617908058E+02   -0.54038E-04   -0.29809E-03 19440   0.321E-01    0.142E-01
DAV:   6    -0.615618257066E+02   -0.34901E-04   -0.27330E-04 14288   0.113E-01
  32 F= -.61561826E+02 E0= -.61561886E+02  d E =-.145000E+00
       N       E                     dE             d eps       ncg     rms          rms(c)
DAV:   1    -0.616192839041E+02   -0.57493E-01   -0.71177E+00 12608   0.170E+01    0.109E+00
DAV:   2    -0.616483734725E+02   -0.29090E-01   -0.43157E-01 15760   0.379E+00    0.585E-01
DAV:   3    -0.616474066791E+02    0.96679E-03   -0.15790E-02 20808   0.635E-01    0.335E-01
DAV:   4    -0.616467338288E+02    0.67285E-03   -0.26976E-03 16688   0.354E-01    0.844E-02
DAV:   5    -0.616467912661E+02   -0.57437E-04   -0.44910E-04 16096   0.120E-01
  33 F= -.61646791E+02 E0= -.61646901E+02  d E =-.849656E-01
       N       E                     dE             d eps       ncg     rms          rms(c)
DAV:   1    -0.616489636780E+02   -0.22298E-02   -0.44417E+00 12608   0.134E+01    0.873E-01
DAV:   2    -0.616674004582E+02   -0.18437E-01   -0.27113E-01 15768   0.300E+00    0.473E-01
DAV:   3    -0.616669132645E+02    0.48719E-03   -0.10067E-02 21032   0.504E-01    0.271E-01
DAV:   4    -0.616665198216E+02    0.39344E-03   -0.15933E-03 16392   0.274E-01    0.708E-02
DAV:   5    -0.616665561065E+02   -0.36285E-04   -0.25660E-04 14616   0.934E-02
  34 F= -.61666556E+02 E0= -.61666702E+02  d E =-.104730E+00
       N       E                     dE             d eps       ncg     rms          rms(c)
DAV:   1    -0.617088242893E+02   -0.42304E-01   -0.24429E+00 12608   0.105E+01    0.983E-01
DAV:   2    -0.617212910589E+02   -0.12467E-01   -0.18966E-01 15760   0.253E+00    0.476E-01
DAV:   3    -0.617204487862E+02    0.84227E-03   -0.68274E-03 20464   0.460E-01    0.253E-01
DAV:   4    -0.617202190747E+02    0.22971E-03   -0.15577E-03 21192   0.240E-01    0.138E-01
DAV:   5    -0.617202555141E+02   -0.36439E-04   -0.16938E-04 12888   0.738E-02
  35 F= -.61720256E+02 E0= -.61720444E+02  d E =-.536994E-01
       N       E                     dE             d eps       ncg     rms          rms(c)
DAV:   1    -0.617008301557E+02    0.19389E-01   -0.14175E+01 12616   0.254E+01    0.251E+00
DAV:   2    -0.617737940371E+02   -0.72964E-01   -0.11019E+00 15760   0.612E+00    0.111E+00
DAV:   3    -0.617687603333E+02    0.50337E-02   -0.39224E-02 19992   0.109E+00    0.583E-01
DAV:   4    -0.617675553767E+02    0.12050E-02   -0.92532E-03 21256   0.582E-01    0.337E-01
DAV:   5    -0.617677775558E+02   -0.22218E-03   -0.11288E-03 17424   0.182E-01    0.182E-01
DAV:   6    -0.617678897339E+02   -0.11218E-03   -0.38160E-04 18280   0.966E-02    0.393E-02
DAV:   7    -0.617678883938E+02    0.13400E-05   -0.35298E-05 10848   0.440E-02
  36 F= -.61767888E+02 E0= -.61768147E+02  d E =-.101332E+00
       N       E                     dE             d eps       ncg     rms          rms(c)
DAV:   1    -0.618034624129E+02   -0.35573E-01   -0.39566E+00 12608   0.120E+01    0.110E+00
DAV:   2    -0.618154298714E+02   -0.11967E-01   -0.18482E-01 17088   0.286E+00    0.644E-01
DAV:   3    -0.618141957638E+02    0.12341E-02   -0.64280E-03 21312   0.416E-01    0.292E-01
DAV:   4    -0.618139596805E+02    0.23608E-03   -0.13287E-03 18288   0.204E-01    0.994E-02
DAV:   5    -0.618139856804E+02   -0.26000E-04   -0.15393E-04 12536   0.722E-02
  37 F= -.61813986E+02 E0= -.61814256E+02  d E =-.460973E-01
       N       E                     dE             d eps       ncg     rms          rms(c)
DAV:   1    -0.618152259787E+02   -0.12663E-02   -0.23099E-01 12768   0.290E+00    0.258E-01
DAV:   2    -0.618159343140E+02   -0.70834E-03   -0.10808E-02 17136   0.686E-01    0.151E-01
DAV:   3    -0.618158668674E+02    0.67447E-04   -0.36655E-04 17216   0.100E-01
  38 F= -.61815867E+02 E0= -.61816128E+02  d E =-.479785E-01
       N       E                     dE             d eps       ncg     rms          rms(c)
DAV:   1    -0.618656623322E+02   -0.49728E-01   -0.17695E+00 12608   0.816E+00    0.120E+00
DAV:   2    -0.618638257149E+02    0.18366E-02   -0.11669E-01 17272   0.245E+00    0.429E-01
DAV:   3    -0.618617411526E+02    0.20846E-02   -0.76376E-03 19032   0.529E-01    0.301E-01
DAV:   4    -0.618609800611E+02    0.76109E-03   -0.26467E-03 20960   0.282E-01    0.247E-01
DAV:   5    -0.618610478206E+02   -0.67759E-04   -0.37530E-04 16536   0.877E-02
  39 F= -.61861048E+02 E0= -.61861271E+02  d E =-.451810E-01
       N       E                     dE             d eps       ncg     rms          rms(c)
DAV:   1    -0.619062175680E+02   -0.45238E-01   -0.60452E+00 12608   0.150E+01    0.213E+00
DAV:   2    -0.619001109343E+02    0.61066E-02   -0.39645E-01 17152   0.450E+00    0.789E-01
DAV:   3    -0.618930039038E+02    0.71070E-02   -0.26090E-02 19224   0.974E-01    0.555E-01
DAV:   4    -0.618904457615E+02    0.25581E-02   -0.88256E-03 20928   0.506E-01    0.453E-01
DAV:   5    -0.618906969138E+02   -0.25115E-03   -0.13249E-03 19520   0.162E-01    0.269E-01
DAV:   6    -0.618907265190E+02   -0.29605E-04   -0.67007E-04 19200   0.110E-01
  40 F= -.61890727E+02 E0= -.61890852E+02  d E =-.748597E-01
       N       E                     dE             d eps       ncg     rms          rms(c)
DAV:   1    -0.619209238087E+02   -0.30227E-01   -0.88824E-01 12976   0.593E+00    0.724E-01
DAV:   2    -0.619209905173E+02   -0.66709E-04   -0.51422E-02 17352   0.151E+00    0.327E-01
DAV:   3    -0.619200679013E+02    0.92262E-03   -0.32784E-03 20392   0.338E-01    0.229E-01
DAV:   4    -0.619198553272E+02    0.21257E-03   -0.10415E-03 21264   0.183E-01    0.144E-01
DAV:   5    -0.619198722015E+02   -0.16874E-04   -0.67690E-05 10968   0.471E-02
  41 F= -.61919872E+02 E0= -.61919958E+02  d E =-.291457E-01
       N       E                     dE             d eps       ncg     rms          rms(c)
DAV:   1    -0.619778694540E+02   -0.58014E-01   -0.79645E+00 12608   0.177E+01    0.211E+00
DAV:   2    -0.619795192975E+02   -0.16498E-02   -0.47416E-01 17384   0.456E+00    0.987E-01
DAV:   3    -0.619709618457E+02    0.85575E-02   -0.29431E-02 19880   0.105E+00    0.704E-01
DAV:   4    -0.619685818260E+02    0.23800E-02   -0.98101E-03 22272   0.560E-01    0.433E-01
DAV:   5    -0.619687670080E+02   -0.18518E-03   -0.75702E-04 17264   0.136E-01    0.262E-01
DAV:   6    -0.619687879836E+02   -0.20976E-04   -0.57040E-04 20864   0.118E-01
  42 F= -.61968788E+02 E0= -.61968760E+02  d E =-.780615E-01
       N       E                     dE             d eps       ncg     rms          rms(c)
DAV:   1    -0.619733127248E+02   -0.45457E-02   -0.95945E-01 12704   0.614E+00    0.733E-01
DAV:   2    -0.619735153837E+02   -0.20266E-03   -0.55946E-02 17320   0.157E+00    0.335E-01
DAV:   3    -0.619725231840E+02    0.99220E-03   -0.34601E-03 19984   0.355E-01    0.235E-01
DAV:   4    -0.619722677088E+02    0.25548E-03   -0.11554E-03 21648   0.196E-01    0.143E-01
DAV:   5    -0.619722851167E+02   -0.17408E-04   -0.72188E-05 11056   0.484E-02
  43 F= -.61972285E+02 E0= -.61972224E+02  d E =-.815586E-01
       N       E                     dE             d eps       ncg     rms          rms(c)
DAV:   1    -0.620013538062E+02   -0.29086E-01   -0.61562E-01 12624   0.471E+00    0.539E-01
DAV:   2    -0.620009017085E+02    0.45210E-03   -0.28700E-02 17376   0.115E+00    0.235E-01
DAV:   3    -0.620002245803E+02    0.67713E-03   -0.16216E-03 18240   0.241E-01    0.140E-01
DAV:   4    -0.619999998832E+02    0.22470E-03   -0.63484E-04 17040   0.160E-01    0.789E-02
DAV:   5    -0.620000088736E+02   -0.89904E-05   -0.74541E-05 10784   0.539E-02
  44 F= -.62000009E+02 E0= -.61999942E+02  d E =-.277238E-01
       N       E                     dE             d eps       ncg     rms          rms(c)
DAV:   1    -0.620581422838E+02   -0.58142E-01   -0.55151E+00 12608   0.141E+01    0.161E+00
DAV:   2    -0.620538375034E+02    0.43048E-02   -0.25522E-01 17360   0.342E+00    0.700E-01
DAV:   3    -0.620477441257E+02    0.60934E-02   -0.13963E-02 17624   0.698E-01    0.409E-01
DAV:   4    -0.620458999149E+02    0.18442E-02   -0.62845E-03 21232   0.473E-01    0.240E-01
DAV:   5    -0.620459888674E+02   -0.88952E-04   -0.63301E-04 17904   0.129E-01
  45 F= -.62045989E+02 E0= -.62045915E+02  d E =-.737038E-01
       N       E                     dE             d eps       ncg     rms          rms(c)
DAV:   1    -0.620514334184E+02   -0.55335E-02   -0.77899E-01 12624   0.533E+00    0.610E-01
DAV:   2    -0.620507453070E+02    0.68811E-03   -0.36120E-02 17352   0.129E+00    0.266E-01
DAV:   3    -0.620498786343E+02    0.86667E-03   -0.20637E-03 17856   0.272E-01    0.155E-01
DAV:   4    -0.620496175227E+02    0.26111E-03   -0.88481E-04 19448   0.182E-01    0.923E-02
DAV:   5    -0.620496319790E+02   -0.14456E-04   -0.81433E-05 10928   0.542E-02
  46 F= -.62049632E+02 E0= -.62049559E+02  d E =-.773469E-01
       N       E                     dE             d eps       ncg     rms          rms(c)
DAV:   1    -0.620757965400E+02   -0.26179E-01   -0.86269E-01 14184   0.632E+00    0.854E-01
DAV:   2    -0.620753498210E+02    0.44672E-03   -0.69497E-02 16928   0.162E+00    0.291E-01
DAV:   3    -0.620741052639E+02    0.12446E-02   -0.36178E-03 20816   0.352E-01    0.171E-01
DAV:   4    -0.620737528086E+02    0.35246E-03   -0.12741E-03 20880   0.210E-01    0.151E-01
DAV:   5    -0.620737967172E+02   -0.43909E-04   -0.16672E-04 12688   0.620E-02
  47 F= -.62073797E+02 E0= -.62073737E+02  d E =-.241647E-01
       N       E                     dE             d eps       ncg     rms          rms(c)
DAV:   1    -0.621027525120E+02   -0.29000E-01   -0.40038E+00 14184   0.136E+01    0.190E+00
DAV:   2    -0.621003069941E+02    0.24455E-02   -0.32213E-01 16896   0.350E+00    0.632E-01
DAV:   3    -0.620944374346E+02    0.58696E-02   -0.17004E-02 20480   0.751E-01    0.368E-01
DAV:   4    -0.620927949901E+02    0.16424E-02   -0.59925E-03 21064   0.459E-01    0.326E-01
DAV:   5    -0.620929944995E+02   -0.19951E-03   -0.85087E-04 16616   0.134E-01    0.169E-01
DAV:   6    -0.620930496219E+02   -0.55122E-04   -0.43059E-04 18280   0.113E-01
  48 F= -.62093050E+02 E0= -.62093015E+02  d E =-.434176E-01
       N       E                     dE             d eps       ncg     rms          rms(c)
DAV:   1    -0.621156132667E+02   -0.22619E-01   -0.76588E-01 14200   0.567E+00    0.718E-01
DAV:   2    -0.621136840140E+02    0.19293E-02   -0.51931E-02 17256   0.148E+00    0.308E-01
DAV:   3    -0.621126696714E+02    0.10143E-02   -0.30684E-03 20104   0.326E-01    0.165E-01
DAV:   4    -0.621123126759E+02    0.35700E-03   -0.12403E-03 20640   0.197E-01    0.136E-01
DAV:   5    -0.621123446509E+02   -0.31975E-04   -0.13737E-04 12368   0.604E-02
  49 F= -.62112345E+02 E0= -.62112315E+02  d E =-.192950E-01
       N       E                     dE             d eps       ncg     rms          rms(c)
DAV:   1    -0.621635389384E+02   -0.51226E-01   -0.69127E+00 14184   0.171E+01    0.225E+00
DAV:   2    -0.621458420276E+02    0.17697E-01   -0.46916E-01 17232   0.444E+00    0.924E-01
DAV:   3    -0.621364877800E+02    0.93542E-02   -0.27963E-02 20120   0.975E-01    0.497E-01
DAV:   4    -0.621331532521E+02    0.33345E-02   -0.11357E-02 20528   0.613E-01    0.402E-01
DAV:   5    -0.621334410832E+02   -0.28783E-03   -0.16804E-03 18944   0.190E-01    0.237E-01
DAV:   6    -0.621335439658E+02   -0.10288E-03   -0.48006E-04 19832   0.104E-01    0.385E-02
DAV:   7    -0.621335417873E+02    0.21785E-05   -0.39212E-05 10664   0.439E-02
  50 F= -.62133542E+02 E0= -.62133496E+02  d E =-.404922E-01
       N       E                     dE             d eps       ncg     rms          rms(c)
DAV:   1    -0.621531365148E+02   -0.19593E-01   -0.12654E+00 14184   0.712E+00    0.583E-01
DAV:   2    -0.621547669719E+02   -0.16305E-02   -0.73538E-02 17344   0.170E+00    0.515E-01
DAV:   3    -0.621539049825E+02    0.86199E-03   -0.21972E-03 17256   0.291E-01    0.296E-01
DAV:   4    -0.621533671464E+02    0.53784E-03   -0.14873E-03 16752   0.237E-01    0.621E-02
DAV:   5    -0.621533844610E+02   -0.17315E-04   -0.19970E-04 13512   0.873E-02
  51 F= -.62153384E+02 E0= -.62153322E+02  d E =-.198427E-01
       N       E                     dE             d eps       ncg     rms          rms(c)
DAV:   1    -0.621622413484E+02   -0.88742E-02   -0.20789E+00 14184   0.912E+00    0.752E-01
DAV:   2    -0.621650478118E+02   -0.28065E-02   -0.12123E-01 17360   0.219E+00    0.648E-01
DAV:   3    -0.621636356964E+02    0.14121E-02   -0.36312E-03 17496   0.375E-01    0.370E-01
DAV:   4    -0.621627649248E+02    0.87077E-03   -0.24397E-03 16832   0.303E-01    0.792E-02
DAV:   5    -0.621627933042E+02   -0.28379E-04   -0.32347E-04 13976   0.111E-01
  52 F= -.62162793E+02 E0= -.62162706E+02  d E =-.292515E-01
       N       E                     dE             d eps       ncg     rms          rms(c)
DAV:   1    -0.621809889584E+02   -0.18224E-01   -0.51513E-01 12608   0.477E+00    0.752E-01
DAV:   2    -0.621800710398E+02    0.91792E-03   -0.39287E-02 16104   0.129E+00    0.309E-01
DAV:   3    -0.621791324346E+02    0.93861E-03   -0.30990E-03 18096   0.328E-01    0.193E-01
DAV:   4    -0.621789686949E+02    0.16374E-03   -0.11596E-03 22288   0.171E-01    0.176E-01
DAV:   5    -0.621790046610E+02   -0.35966E-04   -0.70420E-05 10688   0.454E-02
  53 F= -.62179005E+02 E0= -.62178902E+02  d E =-.162114E-01
       N       E                     dE             d eps       ncg     rms          rms(c)
DAV:   1    -0.621907722833E+02   -0.11804E-01   -0.99975E-01 12608   0.663E+00    0.105E+00
DAV:   2    -0.621886610006E+02    0.21113E-02   -0.74949E-02 15904   0.179E+00    0.428E-01
DAV:   3    -0.621868311547E+02    0.18298E-02   -0.60089E-03 18144   0.455E-01    0.265E-01
DAV:   4    -0.621865383775E+02    0.29278E-03   -0.23040E-03 23112   0.238E-01    0.244E-01
DAV:   5    -0.621866161400E+02   -0.77763E-04   -0.13786E-04 12240   0.597E-02
  54 F= -.62186616E+02 E0= -.62186489E+02  d E =-.238228E-01
       N       E                     dE             d eps       ncg     rms          rms(c)
DAV:   1    -0.621944152539E+02   -0.78769E-02   -0.94962E-01 14184   0.701E+00    0.697E-01
DAV:   2    -0.621983332503E+02   -0.39180E-02   -0.95354E-02 14848   0.178E+00    0.261E-01
DAV:   3    -0.621977405947E+02    0.59266E-03   -0.39985E-03 20528   0.338E-01    0.149E-01
DAV:   4    -0.621975888600E+02    0.15173E-03   -0.75223E-04 19016   0.156E-01    0.126E-01
DAV:   5    -0.621976098330E+02   -0.20973E-04   -0.73479E-05 10856   0.515E-02
  55 F= -.62197610E+02 E0= -.62197462E+02  d E =-.109937E-01
       N       E                     dE             d eps       ncg     rms          rms(c)
DAV:   1    -0.621958591787E+02    0.17297E-02   -0.59746E-01 14184   0.556E+00    0.538E-01
DAV:   2    -0.621983835694E+02   -0.25244E-02   -0.59746E-02 14928   0.140E+00    0.202E-01
DAV:   3    -0.621980260090E+02    0.35756E-03   -0.25002E-03 20904   0.266E-01    0.125E-01
DAV:   4    -0.621979365076E+02    0.89501E-04   -0.46753E-04 17440   0.125E-01
  56 F= -.62197937E+02 E0= -.62197769E+02  d E =-.113204E-01
       N       E                     dE             d eps       ncg     rms          rms(c)
DAV:   1    -0.622033573046E+02   -0.53313E-02   -0.63390E-01 14312   0.533E+00    0.506E-01
DAV:   2    -0.622076043826E+02   -0.42471E-02   -0.58062E-02 15352   0.123E+00    0.288E-01
DAV:   3    -0.622071616619E+02    0.44272E-03   -0.17636E-03 19424   0.249E-01    0.133E-01
DAV:   4    -0.622070929444E+02    0.68718E-04   -0.62326E-04 15312   0.138E-01
  57 F= -.62207093E+02 E0= -.62206899E+02  d E =-.915644E-02
       N       E                     dE             d eps       ncg     rms          rms(c)
DAV:   1    -0.622075182649E+02   -0.35660E-03   -0.21570E-02 14768   0.970E-01    0.891E-02
DAV:   2    -0.622076619685E+02   -0.14370E-03   -0.19632E-03 15232   0.226E-01    0.517E-02
DAV:   3    -0.622076475385E+02    0.14430E-04   -0.44096E-05  9608   0.459E-02
  58 F= -.62207648E+02 E0= -.62207459E+02  d E =-.971103E-02
       N       E                     dE             d eps       ncg     rms          rms(c)
DAV:   1    -0.622135119859E+02   -0.58500E-02   -0.21937E-01 14184   0.311E+00    0.442E-01
DAV:   2    -0.622137868995E+02   -0.27491E-03   -0.14679E-02 15696   0.721E-01    0.251E-01
DAV:   3    -0.622134677041E+02    0.31920E-03   -0.13282E-03 20664   0.187E-01    0.113E-01
DAV:   4    -0.622134682117E+02   -0.50759E-06   -0.17179E-04 12568   0.825E-02
  59 F= -.62213468E+02 E0= -.62213282E+02  d E =-.582067E-02
       N       E                     dE             d eps       ncg     rms          rms(c)
DAV:   1    -0.622140638365E+02   -0.59613E-03   -0.45013E-02 14200   0.142E+00    0.228E-01
DAV:   2    -0.622141025587E+02   -0.38722E-04   -0.30437E-03 15744   0.329E-01    0.128E-01
DAV:   3    -0.622140389327E+02    0.63626E-04   -0.32885E-04 16608   0.916E-02
  60 F= -.62214039E+02 E0= -.62213853E+02  d E =-.639139E-02
