  19  19   0   0
  0.8781923E+01  0.3779831E-09  0.5841957E-09  0.7608077E-09  0.5000000E-15
  1.000000000000000E-004
  CAR 
 unknown system                          
      9.80211565    -35.59344069  301      1.28314432      1.00000000
    -35.593  0.0000E+00  0.0000E+00
    -35.442  0.0000E+00  0.0000E+00
    -35.291  0.0000E+00  0.0000E+00
    -35.139  0.0000E+00  0.0000E+00
    -34.988  0.0000E+00  0.0000E+00
    -34.837  0.0000E+00  0.0000E+00
    -34.686  0.0000E+00  0.0000E+00
    -34.534  0.0000E+00  0.0000E+00
    -34.383  0.1237E-30  0.1872E-31
    -34.232  0.1260E-20  0.1907E-21
    -34.080  0.1160E-12  0.1755E-13
    -33.929  0.8594E-07  0.1300E-07
    -33.778  0.3452E-03  0.5225E-04
    -33.626 -0.1007E-01 -0.1471E-02
    -33.475  0.2671E+00  0.3894E-01
    -33.324  0.1883E+00  0.6744E-01
    -33.172 -0.5280E-02  0.6664E-01
    -33.021  0.1583E-03  0.6667E-01
    -32.870  0.1780E-07  0.6667E-01
    -32.718  0.1194E-13  0.6667E-01
    -32.567  0.0000E+00  0.6667E-01
    -32.416  0.0000E+00  0.6667E-01
    -32.264  0.0000E+00  0.6667E-01
    -32.113  0.0000E+00  0.6667E-01
    -31.962  0.0000E+00  0.6667E-01
    -31.810  0.0000E+00  0.6667E-01
    -31.659  0.0000E+00  0.6667E-01
    -31.508  0.0000E+00  0.6667E-01
    -31.357  0.0000E+00  0.6667E-01
    -31.205  0.0000E+00  0.6667E-01
    -31.054  0.0000E+00  0.6667E-01
    -30.903  0.8178E-36  0.6667E-01
    -30.751  0.6334E-25  0.6667E-01
    -30.600  0.4521E-16  0.6667E-01
    -30.449  0.2786E-09  0.6667E-01
    -30.297  0.1217E-04  0.6667E-01
    -30.146  0.5670E-03  0.6675E-01
    -29.995  0.3534E-01  0.7210E-01
    -29.843  0.1907E+00  0.1010E+00
    -29.692  0.2327E+00  0.1362E+00
    -29.541  0.2121E+00  0.1683E+00
    -29.389 -0.1103E-01  0.1666E+00
    -29.238  0.4580E-03  0.1667E+00
    -29.087  0.1619E-06  0.1667E+00
    -28.935  0.2581E-12  0.1667E+00
    -28.784  0.0000E+00  0.1667E+00
    -28.633  0.0000E+00  0.1667E+00
    -28.481  0.0000E+00  0.1667E+00
    -28.330  0.0000E+00  0.1667E+00
    -28.179  0.0000E+00  0.1667E+00
    -28.028  0.0000E+00  0.1667E+00
    -27.876  0.0000E+00  0.1667E+00
    -27.725  0.0000E+00  0.1667E+00
    -27.574  0.0000E+00  0.1667E+00
    -27.422  0.0000E+00  0.1667E+00
    -27.271  0.0000E+00  0.1667E+00
    -27.120  0.0000E+00  0.1667E+00
    -26.968  0.0000E+00  0.1667E+00
    -26.817  0.0000E+00  0.1667E+00
    -26.666  0.0000E+00  0.1667E+00
    -26.514  0.0000E+00  0.1667E+00
    -26.363  0.0000E+00  0.1667E+00
    -26.212  0.0000E+00  0.1667E+00
    -26.060  0.0000E+00  0.1667E+00
    -25.909  0.0000E+00  0.1667E+00
    -25.758  0.0000E+00  0.1667E+00
    -25.606  0.0000E+00  0.1667E+00
    -25.455  0.0000E+00  0.1667E+00
    -25.304  0.0000E+00  0.1667E+00
    -25.152  0.0000E+00  0.1667E+00
    -25.001  0.0000E+00  0.1667E+00
    -24.850  0.0000E+00  0.1667E+00
    -24.699  0.0000E+00  0.1667E+00
    -24.547  0.0000E+00  0.1667E+00
    -24.396  0.0000E+00  0.1667E+00
    -24.245  0.0000E+00  0.1667E+00
    -24.093  0.0000E+00  0.1667E+00
    -23.942  0.0000E+00  0.1667E+00
    -23.791  0.0000E+00  0.1667E+00
    -23.639  0.0000E+00  0.1667E+00
    -23.488  0.0000E+00  0.1667E+00
    -23.337  0.0000E+00  0.1667E+00
    -23.185  0.0000E+00  0.1667E+00
    -23.034  0.0000E+00  0.1667E+00
    -22.883  0.0000E+00  0.1667E+00
    -22.731  0.0000E+00  0.1667E+00
    -22.580  0.0000E+00  0.1667E+00
    -22.429  0.0000E+00  0.1667E+00
    -22.277  0.0000E+00  0.1667E+00
    -22.126  0.0000E+00  0.1667E+00
    -21.975  0.0000E+00  0.1667E+00
    -21.823  0.0000E+00  0.1667E+00
    -21.672  0.0000E+00  0.1667E+00
    -21.521  0.0000E+00  0.1667E+00
    -21.369  0.0000E+00  0.1667E+00
    -21.218  0.0000E+00  0.1667E+00
    -21.067  0.0000E+00  0.1667E+00
    -20.916  0.0000E+00  0.1667E+00
    -20.764  0.0000E+00  0.1667E+00
    -20.613  0.0000E+00  0.1667E+00
    -20.462  0.0000E+00  0.1667E+00
    -20.310  0.0000E+00  0.1667E+00
    -20.159  0.0000E+00  0.1667E+00
    -20.008  0.0000E+00  0.1667E+00
    -19.856  0.0000E+00  0.1667E+00
    -19.705  0.0000E+00  0.1667E+00
    -19.554  0.0000E+00  0.1667E+00
    -19.402  0.0000E+00  0.1667E+00
    -19.251  0.0000E+00  0.1667E+00
    -19.100  0.0000E+00  0.1667E+00
    -18.948  0.0000E+00  0.1667E+00
    -18.797  0.0000E+00  0.1667E+00
    -18.646  0.0000E+00  0.1667E+00
    -18.494  0.0000E+00  0.1667E+00
    -18.343  0.0000E+00  0.1667E+00
    -18.192  0.0000E+00  0.1667E+00
    -18.040  0.0000E+00  0.1667E+00
    -17.889  0.0000E+00  0.1667E+00
    -17.738  0.0000E+00  0.1667E+00
    -17.587  0.0000E+00  0.1667E+00
    -17.435  0.0000E+00  0.1667E+00
    -17.284  0.0000E+00  0.1667E+00
    -17.133  0.0000E+00  0.1667E+00
    -16.981  0.0000E+00  0.1667E+00
    -16.830  0.1167E-34  0.1667E+00
    -16.679  0.4746E-24  0.1667E+00
    -16.527  0.1761E-15  0.1667E+00
    -16.376  0.5479E-09  0.1667E+00
    -16.225  0.1091E-04  0.1667E+00
    -16.073 -0.1930E-03  0.1666E+00
    -15.922  0.2040E-01  0.1697E+00
    -15.771  0.1067E+00  0.1859E+00
    -15.619  0.5509E+00  0.2692E+00
    -15.468  0.4387E+00  0.3356E+00
    -15.317  0.1738E+00  0.3619E+00
    -15.165  0.3226E-01  0.3668E+00
    -15.014 -0.9021E-03  0.3667E+00
    -14.863  0.2851E-04  0.3667E+00
    -14.711  0.3243E-08  0.3667E+00
    -14.560  0.2295E-14  0.3667E+00
    -14.409  0.0000E+00  0.3667E+00
    -14.258  0.0000E+00  0.3667E+00
    -14.106  0.0000E+00  0.3667E+00
    -13.955  0.0000E+00  0.3667E+00
    -13.804  0.0000E+00  0.3667E+00
    -13.652  0.0000E+00  0.3667E+00
    -13.501  0.0000E+00  0.3667E+00
    -13.350  0.0000E+00  0.3667E+00
    -13.198  0.0000E+00  0.3667E+00
    -13.047  0.0000E+00  0.3667E+00
    -12.896  0.0000E+00  0.3667E+00
    -12.744  0.0000E+00  0.3667E+00
    -12.593  0.0000E+00  0.3667E+00
    -12.442  0.0000E+00  0.3667E+00
    -12.290  0.0000E+00  0.3667E+00
    -12.139  0.0000E+00  0.3667E+00
    -11.988  0.0000E+00  0.3667E+00
    -11.836  0.0000E+00  0.3667E+00
    -11.685  0.0000E+00  0.3667E+00
    -11.534  0.0000E+00  0.3667E+00
    -11.382  0.0000E+00  0.3667E+00
    -11.231  0.0000E+00  0.3667E+00
    -11.080  0.0000E+00  0.3667E+00
    -10.929  0.0000E+00  0.3667E+00
    -10.777  0.0000E+00  0.3667E+00
    -10.626  0.0000E+00  0.3667E+00
    -10.475  0.0000E+00  0.3667E+00
    -10.323  0.0000E+00  0.3667E+00
    -10.172  0.0000E+00  0.3667E+00
    -10.021  0.0000E+00  0.3667E+00
     -9.869  0.0000E+00  0.3667E+00
     -9.718  0.0000E+00  0.3667E+00
     -9.567  0.1076E-30  0.3667E+00
     -9.415  0.4116E-21  0.3667E+00
     -9.264  0.1366E-13  0.3667E+00
     -9.113  0.3542E-08  0.3667E+00
     -8.961  0.5768E-05  0.3667E+00
     -8.810 -0.8081E-04  0.3667E+00
     -8.659  0.4322E-02  0.3673E+00
     -8.507  0.2282E-01  0.3708E+00
     -8.356  0.4236E-01  0.3772E+00
     -8.205  0.2802E-01  0.3814E+00
     -8.053  0.2579E-01  0.3853E+00
     -7.902  0.1736E-01  0.3879E+00
     -7.751  0.3351E-01  0.3930E+00
     -7.600  0.3016E-01  0.3976E+00
     -7.448  0.3102E-01  0.4023E+00
     -7.297  0.5587E-01  0.4107E+00
     -7.146  0.4593E-01  0.4177E+00
     -6.994  0.8575E-01  0.4307E+00
     -6.843  0.1035E+00  0.4463E+00
     -6.692  0.3245E-01  0.4512E+00
     -6.540  0.2465E-01  0.4550E+00
     -6.389  0.3411E-01  0.4601E+00
     -6.238  0.3355E-01  0.4652E+00
     -6.086  0.9727E-02  0.4667E+00
     -5.935  0.7361E-04  0.4667E+00
     -5.784  0.1100E-02  0.4668E+00
     -5.632  0.3449E-01  0.4721E+00
     -5.481  0.3091E-01  0.4767E+00
     -5.330  0.2754E-01  0.4809E+00
     -5.178  0.7144E-01  0.4917E+00
     -5.027  0.5328E-01  0.4998E+00
     -4.876  0.1346E-02  0.5000E+00
     -4.724  0.1156E-03  0.5000E+00
     -4.573  0.1013E-05  0.5000E+00
     -4.422  0.4771E-04  0.5000E+00
     -4.271 -0.3933E-03  0.4999E+00
     -4.119  0.2378E-01  0.5035E+00
     -3.968  0.4649E-01  0.5106E+00
     -3.817  0.6431E-01  0.5203E+00
     -3.665  0.5437E-01  0.5285E+00
     -3.514  0.2957E-01  0.5330E+00
     -3.363  0.1427E-02  0.5332E+00
     -3.211  0.2421E-01  0.5369E+00
     -3.060  0.6326E-01  0.5465E+00
     -2.909  0.9364E-01  0.5606E+00
     -2.757  0.4732E-01  0.5678E+00
     -2.606  0.6376E-01  0.5774E+00
     -2.455  0.8116E-01  0.5897E+00
     -2.303  0.6137E-01  0.5990E+00
     -2.152  0.4132E-01  0.6053E+00
     -2.001  0.8904E-01  0.6187E+00
     -1.849  0.9700E-01  0.6334E+00
     -1.698  0.1185E+00  0.6513E+00
     -1.547  0.1027E+00  0.6669E+00
     -1.395  0.1283E+00  0.6863E+00
     -1.244  0.8821E-01  0.6996E+00
     -1.093  0.1582E+00  0.7236E+00
     -0.941  0.6515E-01  0.7334E+00
     -0.790  0.1444E-01  0.7356E+00
     -0.639  0.4412E-01  0.7423E+00
     -0.488  0.3947E-01  0.7483E+00
     -0.336  0.3831E-01  0.7541E+00
     -0.185  0.4320E-01  0.7606E+00
     -0.034  0.2942E-01  0.7651E+00
      0.118  0.1028E-01  0.7666E+00
      0.269  0.3762E-03  0.7667E+00
      0.420  0.1702E-03  0.7667E+00
      0.572  0.1362E-01  0.7688E+00
      0.723  0.1300E-01  0.7707E+00
      0.874  0.2963E-01  0.7752E+00
      1.026  0.1866E-01  0.7780E+00
      1.177  0.1955E-01  0.7810E+00
      1.328  0.2223E-01  0.7844E+00
      1.480  0.2640E-02  0.7848E+00
      1.631  0.2343E-01  0.7883E+00
      1.782  0.1788E-01  0.7910E+00
      1.934  0.7487E-02  0.7921E+00
      2.085  0.3701E-01  0.7977E+00
      2.236  0.1563E-01  0.8001E+00
      2.388 -0.7100E-03  0.8000E+00
      2.539  0.2481E-04  0.8000E+00
      2.690  0.5931E-04  0.8000E+00
      2.841 -0.9723E-03  0.7999E+00
      2.993  0.3506E-01  0.8052E+00
      3.144  0.8270E-01  0.8177E+00
      3.295  0.6210E-02  0.8186E+00
      3.447  0.6617E-01  0.8286E+00
      3.598  0.7922E-01  0.8406E+00
      3.749  0.5220E-01  0.8485E+00
      3.901  0.7603E-01  0.8600E+00
      4.052  0.7988E-01  0.8721E+00
      4.203  0.5996E-01  0.8812E+00
      4.355  0.9192E-01  0.8951E+00
      4.506  0.8436E-01  0.9079E+00
      4.657  0.1025E+00  0.9234E+00
      4.809  0.9978E-01  0.9385E+00
      4.960  0.1183E+00  0.9564E+00
      5.111  0.9830E-01  0.9713E+00
      5.263  0.1160E+00  0.9888E+00
      5.414  0.8921E-01  0.1002E+01
      5.565  0.9897E-01  0.1017E+01
      5.717  0.1106E+00  0.1034E+01
      5.868  0.9374E-01  0.1048E+01
      6.019  0.9724E-01  0.1063E+01
      6.170  0.1049E+00  0.1079E+01
      6.322  0.9899E-01  0.1094E+01
      6.473  0.8415E-01  0.1107E+01
      6.624  0.1200E+00  0.1125E+01
      6.776  0.9145E-01  0.1138E+01
      6.927  0.1074E+00  0.1155E+01
      7.078  0.1032E+00  0.1170E+01
      7.230  0.7674E-01  0.1182E+01
      7.381  0.5432E-01  0.1190E+01
      7.532  0.4878E-01  0.1198E+01
      7.684  0.1339E-01  0.1200E+01
      7.835  0.2646E-02  0.1200E+01
      7.986 -0.8762E-04  0.1200E+01
      8.138  0.3973E-05  0.1200E+01
      8.289  0.1153E-08  0.1200E+01
      8.440  0.1805E-14  0.1200E+01
      8.592  0.0000E+00  0.1200E+01
      8.743  0.0000E+00  0.1200E+01
      8.894  0.0000E+00  0.1200E+01
      9.046  0.0000E+00  0.1200E+01
      9.197  0.0000E+00  0.1200E+01
      9.348  0.0000E+00  0.1200E+01
      9.499  0.0000E+00  0.1200E+01
      9.651  0.0000E+00  0.1200E+01
      9.802  0.0000E+00  0.1200E+01
