  25  25   0   0
  0.7836878E+01  0.4592913E-09  0.6067658E-09  0.7892630E-09  0.5000000E-15
  1.000000000000000E-004
  CAR 
 unknown system                          
      9.58387554    -33.81779339  301      3.52516365      1.00000000
    -33.818  0.0000E+00  0.0000E+00
    -33.673  0.0000E+00  0.0000E+00
    -33.528  0.0000E+00  0.0000E+00
    -33.384  0.0000E+00  0.0000E+00
    -33.239  0.0000E+00  0.0000E+00
    -33.094  0.0000E+00  0.0000E+00
    -32.950  0.0000E+00  0.0000E+00
    -32.805  0.0000E+00  0.0000E+00
    -32.660  0.1802E-27  0.2607E-28
    -32.516  0.2205E-18  0.3190E-19
    -32.371  0.3477E-11  0.5030E-12
    -32.226  0.6097E-06  0.8821E-07
    -32.082  0.6662E-03  0.9647E-04
    -31.937 -0.1251E-01 -0.1713E-02
    -31.792  0.2297E+00  0.3152E-01
    -31.648  0.1142E-01  0.3317E-01
    -31.503  0.1099E-02  0.3333E-01
    -31.358  0.8391E-05  0.3333E-01
    -31.214  0.1888E-09  0.3333E-01
    -31.069  0.4641E-16  0.3333E-01
    -30.924  0.0000E+00  0.3333E-01
    -30.780  0.0000E+00  0.3333E-01
    -30.635  0.0000E+00  0.3333E-01
    -30.490  0.0000E+00  0.3333E-01
    -30.346  0.0000E+00  0.3333E-01
    -30.201  0.0000E+00  0.3333E-01
    -30.056  0.0000E+00  0.3333E-01
    -29.912  0.0000E+00  0.3333E-01
    -29.767  0.0000E+00  0.3333E-01
    -29.622  0.0000E+00  0.3333E-01
    -29.478  0.0000E+00  0.3333E-01
    -29.333  0.1517E-34  0.3333E-01
    -29.188  0.2369E-24  0.3333E-01
    -29.044  0.5194E-16  0.3333E-01
    -28.899  0.1513E-09  0.3333E-01
    -28.754  0.4956E-05  0.3333E-01
    -28.610  0.7202E-03  0.3344E-01
    -28.465  0.1376E-02  0.3364E-01
    -28.320  0.2439E+00  0.6892E-01
    -28.176  0.5695E+00  0.1513E+00
    -28.031  0.7924E+00  0.2659E+00
    -27.886  0.7038E+00  0.3678E+00
    -27.742  0.7835E+00  0.4811E+00
    -27.597  0.3432E+00  0.5308E+00
    -27.452  0.1650E-01  0.5332E+00
    -27.308  0.1211E-02  0.5333E+00
    -27.163  0.1352E-04  0.5333E+00
    -27.018  0.4867E-09  0.5333E+00
    -26.874  0.1972E-15  0.5333E+00
    -26.729  0.0000E+00  0.5333E+00
    -26.584  0.0000E+00  0.5333E+00
    -26.440  0.0000E+00  0.5333E+00
    -26.295  0.0000E+00  0.5333E+00
    -26.150  0.0000E+00  0.5333E+00
    -26.005  0.0000E+00  0.5333E+00
    -25.861  0.0000E+00  0.5333E+00
    -25.716  0.0000E+00  0.5333E+00
    -25.571  0.0000E+00  0.5333E+00
    -25.427  0.0000E+00  0.5333E+00
    -25.282  0.0000E+00  0.5333E+00
    -25.137  0.0000E+00  0.5333E+00
    -24.993  0.0000E+00  0.5333E+00
    -24.848  0.0000E+00  0.5333E+00
    -24.703  0.0000E+00  0.5333E+00
    -24.559  0.0000E+00  0.5333E+00
    -24.414  0.0000E+00  0.5333E+00
    -24.269  0.0000E+00  0.5333E+00
    -24.125  0.0000E+00  0.5333E+00
    -23.980  0.0000E+00  0.5333E+00
    -23.835  0.0000E+00  0.5333E+00
    -23.691  0.0000E+00  0.5333E+00
    -23.546  0.0000E+00  0.5333E+00
    -23.401  0.0000E+00  0.5333E+00
    -23.257  0.0000E+00  0.5333E+00
    -23.112  0.0000E+00  0.5333E+00
    -22.967  0.0000E+00  0.5333E+00
    -22.823  0.0000E+00  0.5333E+00
    -22.678  0.0000E+00  0.5333E+00
    -22.533  0.0000E+00  0.5333E+00
    -22.389  0.0000E+00  0.5333E+00
    -22.244  0.0000E+00  0.5333E+00
    -22.099  0.0000E+00  0.5333E+00
    -21.955  0.0000E+00  0.5333E+00
    -21.810  0.0000E+00  0.5333E+00
    -21.665  0.0000E+00  0.5333E+00
    -21.521  0.0000E+00  0.5333E+00
    -21.376  0.0000E+00  0.5333E+00
    -21.231  0.0000E+00  0.5333E+00
    -21.087  0.0000E+00  0.5333E+00
    -20.942  0.0000E+00  0.5333E+00
    -20.797  0.0000E+00  0.5333E+00
    -20.653  0.0000E+00  0.5333E+00
    -20.508  0.0000E+00  0.5333E+00
    -20.363  0.0000E+00  0.5333E+00
    -20.219  0.0000E+00  0.5333E+00
    -20.074  0.0000E+00  0.5333E+00
    -19.929  0.0000E+00  0.5333E+00
    -19.785  0.0000E+00  0.5333E+00
    -19.640  0.0000E+00  0.5333E+00
    -19.495  0.0000E+00  0.5333E+00
    -19.351  0.0000E+00  0.5333E+00
    -19.206  0.0000E+00  0.5333E+00
    -19.061  0.0000E+00  0.5333E+00
    -18.917  0.0000E+00  0.5333E+00
    -18.772  0.0000E+00  0.5333E+00
    -18.627  0.0000E+00  0.5333E+00
    -18.483  0.0000E+00  0.5333E+00
    -18.338  0.0000E+00  0.5333E+00
    -18.193  0.0000E+00  0.5333E+00
    -18.049  0.0000E+00  0.5333E+00
    -17.904  0.0000E+00  0.5333E+00
    -17.759  0.0000E+00  0.5333E+00
    -17.615  0.0000E+00  0.5333E+00
    -17.470  0.0000E+00  0.5333E+00
    -17.325  0.0000E+00  0.5333E+00
    -17.180  0.0000E+00  0.5333E+00
    -17.036  0.0000E+00  0.5333E+00
    -16.891  0.0000E+00  0.5333E+00
    -16.746  0.0000E+00  0.5333E+00
    -16.602  0.0000E+00  0.5333E+00
    -16.457  0.0000E+00  0.5333E+00
    -16.312  0.0000E+00  0.5333E+00
    -16.168  0.0000E+00  0.5333E+00
    -16.023  0.0000E+00  0.5333E+00
    -15.878  0.0000E+00  0.5333E+00
    -15.734  0.0000E+00  0.5333E+00
    -15.589  0.0000E+00  0.5333E+00
    -15.444  0.0000E+00  0.5333E+00
    -15.300  0.0000E+00  0.5333E+00
    -15.155  0.0000E+00  0.5333E+00
    -15.010  0.0000E+00  0.5333E+00
    -14.866  0.2891E-30  0.5333E+00
    -14.721  0.9212E-21  0.5333E+00
    -14.576  0.4091E-13  0.5333E+00
    -14.432  0.2424E-07  0.5333E+00
    -14.287  0.1628E-03  0.5334E+00
    -14.142 -0.2545E-02  0.5330E+00
    -13.998  0.1864E+00  0.5600E+00
    -13.853  0.5314E+00  0.6368E+00
    -13.708 -0.2525E-01  0.6332E+00
    -13.564  0.1063E-02  0.6333E+00
    -13.419  0.7463E-06  0.6333E+00
    -13.274  0.4570E-11  0.6333E+00
    -13.130  0.0000E+00  0.6333E+00
    -12.985  0.0000E+00  0.6333E+00
    -12.840  0.0000E+00  0.6333E+00
    -12.696  0.0000E+00  0.6333E+00
    -12.551  0.0000E+00  0.6333E+00
    -12.406  0.0000E+00  0.6333E+00
    -12.262  0.0000E+00  0.6333E+00
    -12.117  0.0000E+00  0.6333E+00
    -11.972  0.0000E+00  0.6333E+00
    -11.828  0.0000E+00  0.6333E+00
    -11.683  0.0000E+00  0.6333E+00
    -11.538  0.0000E+00  0.6333E+00
    -11.394  0.0000E+00  0.6333E+00
    -11.249  0.0000E+00  0.6333E+00
    -11.104  0.0000E+00  0.6333E+00
    -10.960  0.0000E+00  0.6333E+00
    -10.815  0.0000E+00  0.6333E+00
    -10.670  0.0000E+00  0.6333E+00
    -10.526  0.0000E+00  0.6333E+00
    -10.381  0.0000E+00  0.6333E+00
    -10.236  0.0000E+00  0.6333E+00
    -10.092  0.0000E+00  0.6333E+00
     -9.947  0.0000E+00  0.6333E+00
     -9.802  0.0000E+00  0.6333E+00
     -9.658  0.0000E+00  0.6333E+00
     -9.513  0.0000E+00  0.6333E+00
     -9.368  0.0000E+00  0.6333E+00
     -9.224  0.0000E+00  0.6333E+00
     -9.079  0.0000E+00  0.6333E+00
     -8.934  0.0000E+00  0.6333E+00
     -8.789  0.0000E+00  0.6333E+00
     -8.645  0.0000E+00  0.6333E+00
     -8.500  0.0000E+00  0.6333E+00
     -8.355  0.0000E+00  0.6333E+00
     -8.211  0.0000E+00  0.6333E+00
     -8.066  0.0000E+00  0.6333E+00
     -7.921  0.0000E+00  0.6333E+00
     -7.777  0.0000E+00  0.6333E+00
     -7.632  0.0000E+00  0.6333E+00
     -7.487  0.8579E-38  0.6333E+00
     -7.343  0.2323E-27  0.6333E+00
     -7.198  0.8479E-19  0.6333E+00
     -7.053  0.3880E-12  0.6333E+00
     -6.909  0.1833E-07  0.6333E+00
     -6.764  0.3965E-05  0.6333E+00
     -6.619  0.4745E-05  0.6333E+00
     -6.475  0.2118E-02  0.6336E+00
     -6.330  0.7484E-02  0.6347E+00
     -6.185  0.1020E-01  0.6362E+00
     -6.041  0.1387E-01  0.6382E+00
     -5.896  0.1762E-01  0.6408E+00
     -5.751  0.1760E-01  0.6433E+00
     -5.607  0.2290E-01  0.6466E+00
     -5.462  0.1999E-01  0.6495E+00
     -5.317  0.2306E-01  0.6528E+00
     -5.173  0.2976E-01  0.6571E+00
     -5.028  0.2726E-01  0.6611E+00
     -4.883  0.3915E-01  0.6668E+00
     -4.739  0.3236E-01  0.6714E+00
     -4.594  0.3672E-01  0.6768E+00
     -4.449  0.3563E-01  0.6819E+00
     -4.305  0.4056E-01  0.6878E+00
     -4.160  0.4172E-01  0.6938E+00
     -4.015  0.5041E-01  0.7011E+00
     -3.871  0.5268E-01  0.7087E+00
     -3.726  0.7145E-01  0.7191E+00
     -3.581  0.5435E-01  0.7269E+00
     -3.437  0.5907E-01  0.7355E+00
     -3.292  0.8063E-01  0.7471E+00
     -3.147  0.8536E-01  0.7595E+00
     -3.003  0.1112E+00  0.7756E+00
     -2.858  0.1452E+00  0.7966E+00
     -2.713  0.1488E+00  0.8181E+00
     -2.569  0.1260E+00  0.8363E+00
     -2.424  0.1556E+00  0.8588E+00
     -2.279  0.1311E+00  0.8778E+00
     -2.135  0.1393E+00  0.8980E+00
     -1.990  0.7322E-01  0.9086E+00
     -1.845  0.1170E+00  0.9255E+00
     -1.701  0.1254E+00  0.9436E+00
     -1.556  0.1404E+00  0.9639E+00
     -1.411  0.1664E+00  0.9880E+00
     -1.267  0.1779E+00  0.1014E+01
     -1.122  0.1424E+00  0.1034E+01
     -0.977  0.1456E+00  0.1055E+01
     -0.833  0.2156E+00  0.1087E+01
     -0.688  0.1540E+00  0.1109E+01
     -0.543  0.1161E+00  0.1126E+01
     -0.399  0.1245E+00  0.1144E+01
     -0.254  0.1144E+00  0.1160E+01
     -0.109  0.5177E-01  0.1168E+01
      0.036  0.5688E-01  0.1176E+01
      0.180  0.1273E+00  0.1194E+01
      0.325  0.4435E-01  0.1201E+01
      0.470  0.6121E-01  0.1210E+01
      0.614  0.7192E-01  0.1220E+01
      0.759  0.5467E-01  0.1228E+01
      0.904  0.3529E-01  0.1233E+01
      1.048  0.2953E-02  0.1234E+01
      1.193  0.6427E-01  0.1243E+01
      1.338  0.9627E-01  0.1257E+01
      1.482  0.4262E-01  0.1263E+01
      1.627  0.1822E-01  0.1266E+01
      1.772  0.1101E-01  0.1267E+01
      1.916  0.3548E-01  0.1272E+01
      2.061  0.5060E-01  0.1280E+01
      2.206  0.4144E-01  0.1286E+01
      2.350  0.7363E-01  0.1296E+01
      2.495  0.7750E-01  0.1307E+01
      2.640  0.9124E-01  0.1321E+01
      2.784  0.1435E+00  0.1341E+01
      2.929  0.6678E-01  0.1351E+01
      3.074  0.7113E-01  0.1361E+01
      3.218  0.9001E-01  0.1374E+01
      3.363  0.8827E-01  0.1387E+01
      3.508  0.8002E-01  0.1399E+01
      3.652  0.6478E-01  0.1408E+01
      3.797  0.1109E+00  0.1424E+01
      3.942  0.1365E+00  0.1444E+01
      4.086  0.1272E+00  0.1462E+01
      4.231  0.1423E+00  0.1483E+01
      4.376  0.1503E+00  0.1505E+01
      4.520  0.1323E+00  0.1524E+01
      4.665  0.1508E+00  0.1546E+01
      4.810  0.1436E+00  0.1566E+01
      4.954  0.1622E+00  0.1590E+01
      5.099  0.1550E+00  0.1612E+01
      5.244  0.1613E+00  0.1636E+01
      5.388  0.1336E+00  0.1655E+01
      5.533  0.9335E-01  0.1668E+01
      5.678  0.6989E-01  0.1679E+01
      5.822  0.4240E-01  0.1685E+01
      5.967  0.8183E-01  0.1697E+01
      6.112  0.1222E+00  0.1714E+01
      6.256  0.8508E-01  0.1726E+01
      6.401  0.6402E-01  0.1736E+01
      6.546  0.1136E+00  0.1752E+01
      6.690  0.9461E-01  0.1766E+01
      6.835  0.9855E-01  0.1780E+01
      6.980  0.1128E+00  0.1796E+01
      7.124  0.1402E+00  0.1817E+01
      7.269  0.1029E+00  0.1832E+01
      7.414  0.1315E+00  0.1851E+01
      7.558  0.9801E-01  0.1865E+01
      7.703  0.1303E-01  0.1867E+01
      7.848 -0.2585E-03  0.1867E+01
      7.992  0.1932E-04  0.1867E+01
      8.137  0.6562E-08  0.1867E+01
      8.282  0.2590E-13  0.1867E+01
      8.426  0.0000E+00  0.1867E+01
      8.571  0.0000E+00  0.1867E+01
      8.716  0.0000E+00  0.1867E+01
      8.861  0.0000E+00  0.1867E+01
      9.005  0.0000E+00  0.1867E+01
      9.150  0.0000E+00  0.1867E+01
      9.295  0.0000E+00  0.1867E+01
      9.439  0.0000E+00  0.1867E+01
      9.584  0.0000E+00  0.1867E+01
