  19  19   1   0
  0.7267743E+01  0.3656314E-09  0.6668503E-09  0.6836310E-09  0.5000000E-15
  1.000000000000000E-004
  CAR 
 unknown system                          
     17.33559155    -37.57319903  301     -0.69279469      1.00000000
    -37.573  0.0000E+00  0.0000E+00  0.0000E+00  0.0000E+00
    -37.390  0.0000E+00  0.0000E+00  0.0000E+00  0.0000E+00
    -37.207  0.0000E+00  0.0000E+00  0.0000E+00  0.0000E+00
    -37.024  0.0000E+00  0.0000E+00  0.0000E+00  0.0000E+00
    -36.841  0.0000E+00  0.0000E+00  0.0000E+00  0.0000E+00
    -36.658  0.0000E+00  0.0000E+00  0.0000E+00  0.0000E+00
    -36.475  0.0000E+00  0.0000E+00  0.0000E+00  0.0000E+00
    -36.292  0.0000E+00  0.0000E+00  0.0000E+00  0.0000E+00
    -36.109  0.0000E+00  0.0000E+00  0.0000E+00  0.0000E+00
    -35.926  0.0000E+00  0.0000E+00  0.0000E+00  0.0000E+00
    -35.743  0.0000E+00  0.0000E+00  0.0000E+00  0.0000E+00
    -35.560  0.0000E+00  0.0000E+00  0.0000E+00  0.0000E+00
    -35.377  0.0000E+00  0.0000E+00  0.0000E+00  0.0000E+00
    -35.194  0.0000E+00  0.0000E+00  0.0000E+00  0.0000E+00
    -35.011  0.0000E+00  0.0000E+00  0.1010E-01  0.1010E-01
    -34.828  0.0000E+00  0.0000E+00  0.1010E-01  0.1010E-01
    -34.645  0.0000E+00  0.0000E+00  0.1010E-01  0.1010E-01
    -34.462  0.0000E+00  0.0000E+00  0.1010E-01  0.1010E-01
    -34.279  0.0000E+00  0.0000E+00  0.1010E-01  0.1010E-01
    -34.096  0.0000E+00  0.0000E+00  0.1010E-01  0.1010E-01
    -33.913  0.0000E+00  0.0000E+00  0.1010E-01  0.1010E-01
    -33.730  0.0000E+00  0.0000E+00  0.1010E-01  0.1010E-01
    -33.547  0.0000E+00  0.0000E+00  0.1010E-01  0.1010E-01
    -33.364  0.0000E+00  0.0000E+00  0.1010E-01  0.1010E-01
    -33.180  0.0000E+00  0.0000E+00  0.1010E-01  0.1010E-01
    -32.997  0.0000E+00  0.0000E+00  0.1010E-01  0.1010E-01
    -32.814  0.0000E+00  0.0000E+00  0.1010E-01  0.1010E-01
    -32.631  0.0000E+00  0.0000E+00  0.1010E-01  0.1010E-01
    -32.448  0.0000E+00  0.0000E+00  0.1010E-01  0.1010E-01
    -32.265  0.0000E+00  0.0000E+00  0.1010E-01  0.1010E-01
    -32.082  0.0000E+00  0.0000E+00  0.1010E-01  0.1010E-01
    -31.899  0.0000E+00  0.0000E+00  0.1010E-01  0.1010E-01
    -31.716  0.0000E+00  0.0000E+00  0.1010E-01  0.1010E-01
    -31.533  0.0000E+00  0.0000E+00  0.1010E-01  0.1010E-01
    -31.350  0.0000E+00  0.0000E+00  0.1010E-01  0.1010E-01
    -31.167  0.0000E+00  0.0000E+00  0.1010E-01  0.1010E-01
    -30.984  0.0000E+00  0.0000E+00  0.1010E-01  0.1010E-01
    -30.801  0.0000E+00  0.0000E+00  0.1010E-01  0.1010E-01
    -30.618  0.0000E+00  0.0000E+00  0.1010E-01  0.1010E-01
    -30.435  0.0000E+00  0.0000E+00  0.2020E-01  0.2020E-01
    -30.252  0.0000E+00  0.0000E+00  0.4040E-01  0.4040E-01
    -30.069  0.0000E+00  0.0000E+00  0.4040E-01  0.4040E-01
    -29.886  0.0000E+00  0.0000E+00  0.4040E-01  0.4040E-01
    -29.703  0.0000E+00  0.0000E+00  0.4040E-01  0.4040E-01
    -29.520  0.0000E+00  0.0000E+00  0.4040E-01  0.4040E-01
    -29.337  0.0000E+00  0.0000E+00  0.4040E-01  0.4040E-01
    -29.154  0.0000E+00  0.0000E+00  0.4040E-01  0.4040E-01
    -28.971  0.0000E+00  0.0000E+00  0.4040E-01  0.4040E-01
    -28.788  0.0000E+00  0.0000E+00  0.4040E-01  0.4040E-01
    -28.605  0.0000E+00  0.0000E+00  0.4040E-01  0.4040E-01
    -28.422  0.0000E+00  0.0000E+00  0.4040E-01  0.4040E-01
    -28.239  0.0000E+00  0.0000E+00  0.4040E-01  0.4040E-01
    -28.056  0.0000E+00  0.0000E+00  0.4040E-01  0.4040E-01
    -27.873  0.0000E+00  0.0000E+00  0.4040E-01  0.4040E-01
    -27.690  0.0000E+00  0.0000E+00  0.4040E-01  0.4040E-01
    -27.507  0.0000E+00  0.0000E+00  0.4040E-01  0.4040E-01
    -27.324  0.0000E+00  0.0000E+00  0.4040E-01  0.4040E-01
    -27.141  0.0000E+00  0.0000E+00  0.4040E-01  0.4040E-01
    -26.957  0.0000E+00  0.0000E+00  0.4040E-01  0.4040E-01
    -26.774  0.0000E+00  0.0000E+00  0.4040E-01  0.4040E-01
    -26.591  0.0000E+00  0.0000E+00  0.4040E-01  0.4040E-01
    -26.408  0.0000E+00  0.0000E+00  0.4040E-01  0.4040E-01
    -26.225  0.0000E+00  0.0000E+00  0.4040E-01  0.4040E-01
    -26.042  0.0000E+00  0.0000E+00  0.4040E-01  0.4040E-01
    -25.859  0.0000E+00  0.0000E+00  0.4040E-01  0.4040E-01
    -25.676  0.0000E+00  0.0000E+00  0.4040E-01  0.4040E-01
    -25.493  0.0000E+00  0.0000E+00  0.4040E-01  0.4040E-01
    -25.310  0.0000E+00  0.0000E+00  0.4040E-01  0.4040E-01
    -25.127  0.0000E+00  0.0000E+00  0.4040E-01  0.4040E-01
    -24.944  0.0000E+00  0.0000E+00  0.4040E-01  0.4040E-01
    -24.761  0.0000E+00  0.0000E+00  0.4040E-01  0.4040E-01
    -24.578  0.0000E+00  0.0000E+00  0.4040E-01  0.4040E-01
    -24.395  0.0000E+00  0.0000E+00  0.4040E-01  0.4040E-01
    -24.212  0.0000E+00  0.0000E+00  0.4040E-01  0.4040E-01
    -24.029  0.0000E+00  0.0000E+00  0.4040E-01  0.4040E-01
    -23.846  0.0000E+00  0.0000E+00  0.4040E-01  0.4040E-01
    -23.663  0.0000E+00  0.0000E+00  0.4040E-01  0.4040E-01
    -23.480  0.0000E+00  0.0000E+00  0.4040E-01  0.4040E-01
    -23.297  0.0000E+00  0.0000E+00  0.4040E-01  0.4040E-01
    -23.114  0.0000E+00  0.0000E+00  0.4040E-01  0.4040E-01
    -22.931  0.0000E+00  0.0000E+00  0.4040E-01  0.4040E-01
    -22.748  0.0000E+00  0.0000E+00  0.4040E-01  0.4040E-01
    -22.565  0.0000E+00  0.0000E+00  0.4040E-01  0.4040E-01
    -22.382  0.0000E+00  0.0000E+00  0.4040E-01  0.4040E-01
    -22.199  0.0000E+00  0.0000E+00  0.4040E-01  0.4040E-01
    -22.016  0.0000E+00  0.0000E+00  0.4040E-01  0.4040E-01
    -21.833  0.0000E+00  0.0000E+00  0.4040E-01  0.4040E-01
    -21.650  0.0000E+00  0.0000E+00  0.4040E-01  0.4040E-01
    -21.467  0.0000E+00  0.0000E+00  0.4040E-01  0.4040E-01
    -21.284  0.0000E+00  0.0000E+00  0.4040E-01  0.4040E-01
    -21.101  0.0000E+00  0.0000E+00  0.4040E-01  0.4040E-01
    -20.918  0.0000E+00  0.0000E+00  0.4040E-01  0.4040E-01
    -20.735  0.0000E+00  0.0000E+00  0.4040E-01  0.4040E-01
    -20.551  0.0000E+00  0.0000E+00  0.4040E-01  0.4040E-01
    -20.368  0.0000E+00  0.0000E+00  0.4040E-01  0.4040E-01
    -20.185  0.0000E+00  0.0000E+00  0.4040E-01  0.4040E-01
    -20.002  0.0000E+00  0.0000E+00  0.4040E-01  0.4040E-01
    -19.819  0.0000E+00  0.0000E+00  0.4040E-01  0.4040E-01
    -19.636  0.0000E+00  0.0000E+00  0.4040E-01  0.4040E-01
    -19.453  0.0000E+00  0.0000E+00  0.4040E-01  0.4040E-01
    -19.270  0.0000E+00  0.0000E+00  0.4040E-01  0.4040E-01
    -19.087  0.0000E+00  0.0000E+00  0.4040E-01  0.4040E-01
    -18.904  0.0000E+00  0.0000E+00  0.4040E-01  0.4040E-01
    -18.721  0.0000E+00  0.0000E+00  0.4040E-01  0.4040E-01
    -18.538  0.0000E+00  0.0000E+00  0.4040E-01  0.4040E-01
    -18.355  0.0000E+00  0.0000E+00  0.4040E-01  0.4040E-01
    -18.172  0.0000E+00  0.0000E+00  0.4040E-01  0.4040E-01
    -17.989  0.0000E+00  0.0000E+00  0.4040E-01  0.4040E-01
    -17.806  0.0000E+00  0.0000E+00  0.4040E-01  0.4040E-01
    -17.623  0.0000E+00  0.0000E+00  0.4040E-01  0.4040E-01
    -17.440  0.0000E+00  0.0000E+00  0.4040E-01  0.4040E-01
    -17.257  0.4277E-01  0.4277E-01  0.4306E-01  0.4306E-01
    -17.074  0.2499E-01  0.2499E-01  0.5746E-01  0.5746E-01
    -16.891  0.0000E+00  0.0000E+00  0.7071E-01  0.7071E-01
    -16.708  0.0000E+00  0.0000E+00  0.7071E-01  0.7071E-01
    -16.525  0.0000E+00  0.0000E+00  0.7071E-01  0.7071E-01
    -16.342  0.0000E+00  0.0000E+00  0.7071E-01  0.7071E-01
    -16.159  0.0000E+00  0.0000E+00  0.7071E-01  0.7071E-01
    -15.976  0.0000E+00  0.0000E+00  0.7071E-01  0.7071E-01
    -15.793  0.0000E+00  0.0000E+00  0.7071E-01  0.7071E-01
    -15.610  0.0000E+00  0.0000E+00  0.7071E-01  0.7071E-01
    -15.427  0.0000E+00  0.0000E+00  0.7071E-01  0.7071E-01
    -15.244  0.0000E+00  0.0000E+00  0.7071E-01  0.7071E-01
    -15.061  0.0000E+00  0.0000E+00  0.7071E-01  0.7071E-01
    -14.878  0.0000E+00  0.0000E+00  0.7071E-01  0.7071E-01
    -14.695  0.0000E+00  0.0000E+00  0.7071E-01  0.7071E-01
    -14.512  0.0000E+00  0.0000E+00  0.7071E-01  0.7071E-01
    -14.328  0.0000E+00  0.0000E+00  0.7071E-01  0.7071E-01
    -14.145  0.0000E+00  0.0000E+00  0.7071E-01  0.7071E-01
    -13.962  0.0000E+00  0.0000E+00  0.7071E-01  0.7071E-01
    -13.779  0.0000E+00  0.0000E+00  0.7071E-01  0.7071E-01
    -13.596  0.0000E+00  0.0000E+00  0.7071E-01  0.7071E-01
    -13.413  0.0000E+00  0.0000E+00  0.7071E-01  0.7071E-01
    -13.230  0.0000E+00  0.0000E+00  0.7071E-01  0.7071E-01
    -13.047  0.0000E+00  0.0000E+00  0.7071E-01  0.7071E-01
    -12.864  0.0000E+00  0.0000E+00  0.7071E-01  0.7071E-01
    -12.681  0.0000E+00  0.0000E+00  0.7071E-01  0.7071E-01
    -12.498  0.0000E+00  0.0000E+00  0.7071E-01  0.7071E-01
    -12.315  0.0000E+00  0.0000E+00  0.7071E-01  0.7071E-01
    -12.132  0.0000E+00  0.0000E+00  0.7071E-01  0.7071E-01
    -11.949  0.0000E+00  0.0000E+00  0.7071E-01  0.7071E-01
    -11.766  0.0000E+00  0.0000E+00  0.7071E-01  0.7071E-01
    -11.583  0.0000E+00  0.0000E+00  0.7071E-01  0.7071E-01
    -11.400  0.0000E+00  0.0000E+00  0.7071E-01  0.7071E-01
    -11.217  0.0000E+00  0.0000E+00  0.7071E-01  0.7071E-01
    -11.034  0.0000E+00  0.0000E+00  0.7071E-01  0.7071E-01
    -10.851  0.0000E+00  0.0000E+00  0.7071E-01  0.7071E-01
    -10.668  0.0000E+00  0.0000E+00  0.7071E-01  0.7071E-01
    -10.485  0.0000E+00  0.0000E+00  0.7071E-01  0.7071E-01
    -10.302  0.0000E+00  0.0000E+00  0.7071E-01  0.7071E-01
    -10.119  0.0000E+00  0.0000E+00  0.7071E-01  0.7071E-01
     -9.936  0.0000E+00  0.0000E+00  0.7071E-01  0.7071E-01
     -9.753  0.0000E+00  0.0000E+00  0.7071E-01  0.7071E-01
     -9.570  0.0000E+00  0.0000E+00  0.7071E-01  0.7071E-01
     -9.387  0.0000E+00  0.0000E+00  0.7071E-01  0.7071E-01
     -9.204  0.2772E-02  0.2772E-02  0.7083E-01  0.7083E-01
     -9.021  0.1028E-01  0.1028E-01  0.7206E-01  0.7206E-01
     -8.838  0.1134E-01  0.1134E-01  0.7428E-01  0.7428E-01
     -8.655  0.9501E-02  0.9501E-02  0.7604E-01  0.7604E-01
     -8.472  0.7446E-02  0.7446E-02  0.7763E-01  0.7763E-01
     -8.289  0.1760E-01  0.1760E-01  0.7927E-01  0.7927E-01
     -8.105  0.1209E-01  0.1209E-01  0.8186E-01  0.8186E-01
     -7.922  0.1512E-01  0.1512E-01  0.8418E-01  0.8418E-01
     -7.739  0.3492E-01  0.3492E-01  0.8880E-01  0.8880E-01
     -7.556  0.0000E+00  0.0000E+00  0.9091E-01  0.9091E-01
     -7.373  0.2925E-03  0.2925E-03  0.9091E-01  0.9091E-01
     -7.190  0.1851E-01  0.1851E-01  0.9218E-01  0.9218E-01
     -7.007  0.2383E-01  0.2383E-01  0.9771E-01  0.9771E-01
     -6.824  0.1965E-01  0.1965E-01  0.1013E+00  0.1013E+00
     -6.641  0.1523E-01  0.1523E-01  0.1043E+00  0.1043E+00
     -6.458  0.2507E-01  0.2507E-01  0.1085E+00  0.1085E+00
     -6.275  0.4081E-02  0.4081E-02  0.1110E+00  0.1110E+00
     -6.092  0.4027E-06  0.4027E-06  0.1111E+00  0.1111E+00
     -5.909  0.7900E-02  0.7900E-02  0.1116E+00  0.1116E+00
     -5.726  0.3492E-01  0.3492E-01  0.1152E+00  0.1152E+00
     -5.543  0.2594E-01  0.2594E-01  0.1216E+00  0.1216E+00
     -5.360  0.1484E-01  0.1484E-01  0.1241E+00  0.1241E+00
     -5.177  0.1009E-01  0.1009E-01  0.1271E+00  0.1271E+00
     -4.994  0.5982E-02  0.5982E-02  0.1283E+00  0.1283E+00
     -4.811  0.6646E-02  0.6646E-02  0.1294E+00  0.1294E+00
     -4.628  0.0000E+00  0.0000E+00  0.1313E+00  0.1313E+00
     -4.445  0.0000E+00  0.0000E+00  0.1313E+00  0.1313E+00
     -4.262  0.0000E+00  0.0000E+00  0.1313E+00  0.1313E+00
     -4.079  0.0000E+00  0.0000E+00  0.1313E+00  0.1313E+00
     -3.896  0.3445E-01  0.3445E-01  0.1335E+00  0.1335E+00
     -3.713  0.1369E-01  0.1369E-01  0.1413E+00  0.1413E+00
     -3.530  0.4168E-01  0.4168E-01  0.1451E+00  0.1451E+00
     -3.347  0.1737E-01  0.1737E-01  0.1502E+00  0.1502E+00
     -3.164  0.7629E-01  0.7629E-01  0.1572E+00  0.1572E+00
     -2.981  0.0000E+00  0.0000E+00  0.1616E+00  0.1616E+00
     -2.798  0.1393E-01  0.1393E-01  0.1620E+00  0.1620E+00
     -2.615  0.1460E-01  0.1460E-01  0.1644E+00  0.1644E+00
     -2.432  0.1912E-01  0.1912E-01  0.1721E+00  0.1721E+00
     -2.249  0.1364E-01  0.1364E-01  0.1748E+00  0.1748E+00
     -2.066  0.1228E-01  0.1228E-01  0.1785E+00  0.1785E+00
     -1.882  0.1110E-01  0.1110E-01  0.1806E+00  0.1806E+00
     -1.699  0.9210E-02  0.9210E-02  0.1826E+00  0.1826E+00
     -1.516  0.1081E-01  0.1081E-01  0.1844E+00  0.1844E+00
     -1.333  0.1302E-01  0.1302E-01  0.1866E+00  0.1866E+00
     -1.150  0.9108E-02  0.9108E-02  0.1887E+00  0.1887E+00
     -0.967  0.8903E-02  0.8903E-02  0.1904E+00  0.1904E+00
     -0.784  0.3075E-02  0.3075E-02  0.1918E+00  0.1918E+00
     -0.601  0.0000E+00  0.0000E+00  0.1919E+00  0.1919E+00
     -0.418  0.0000E+00  0.0000E+00  0.1919E+00  0.1919E+00
     -0.235  0.0000E+00  0.0000E+00  0.1919E+00  0.1919E+00
     -0.052  0.0000E+00  0.0000E+00  0.1919E+00  0.1919E+00
      0.131  0.0000E+00  0.0000E+00  0.1919E+00  0.1919E+00
      0.314  0.0000E+00  0.0000E+00  0.1919E+00  0.1919E+00
      0.497  0.0000E+00  0.0000E+00  0.1919E+00  0.1919E+00
      0.680  0.0000E+00  0.0000E+00  0.1919E+00  0.1919E+00
      0.863  0.0000E+00  0.0000E+00  0.1919E+00  0.1919E+00
      1.046  0.0000E+00  0.0000E+00  0.1919E+00  0.1919E+00
      1.229  0.0000E+00  0.0000E+00  0.1919E+00  0.1919E+00
      1.412  0.0000E+00  0.0000E+00  0.1919E+00  0.1919E+00
      1.595  0.0000E+00  0.0000E+00  0.1919E+00  0.1919E+00
      1.778  0.0000E+00  0.0000E+00  0.1919E+00  0.1919E+00
      1.961  0.0000E+00  0.0000E+00  0.1919E+00  0.1919E+00
      2.144  0.4404E-02  0.4404E-02  0.1923E+00  0.1923E+00
      2.327  0.3056E-01  0.3056E-01  0.1978E+00  0.1978E+00
      2.510  0.1067E-01  0.1067E-01  0.2032E+00  0.2032E+00
      2.693  0.4328E-01  0.4328E-01  0.2075E+00  0.2075E+00
      2.876  0.4379E-03  0.4379E-03  0.2121E+00  0.2121E+00
      3.059  0.1347E-01  0.1347E-01  0.2128E+00  0.2128E+00
      3.242  0.3176E-01  0.3176E-01  0.2188E+00  0.2188E+00
      3.425  0.1668E-01  0.1668E-01  0.2224E+00  0.2224E+00
      3.608  0.3803E-01  0.3803E-01  0.2263E+00  0.2263E+00
      3.791  0.5995E-02  0.5995E-02  0.2320E+00  0.2320E+00
      3.974  0.4750E-01  0.4750E-01  0.2347E+00  0.2347E+00
      4.157  0.1499E-01  0.1499E-01  0.2407E+00  0.2407E+00
      4.341  0.3559E-01  0.3559E-01  0.2447E+00  0.2447E+00
      4.524  0.2823E-01  0.2823E-01  0.2510E+00  0.2510E+00
      4.707  0.3717E-01  0.3717E-01  0.2571E+00  0.2571E+00
      4.890  0.6065E-02  0.6065E-02  0.2624E+00  0.2624E+00
      5.073  0.5815E-01  0.5815E-01  0.2664E+00  0.2664E+00
      5.256  0.9301E-02  0.9301E-02  0.2728E+00  0.2728E+00
      5.439  0.4185E-01  0.4185E-01  0.2777E+00  0.2777E+00
      5.622  0.5774E-02  0.5774E-02  0.2827E+00  0.2827E+00
      5.805  0.3241E-01  0.3241E-01  0.2868E+00  0.2868E+00
      5.988  0.2461E-01  0.2461E-01  0.2921E+00  0.2921E+00
      6.171  0.3805E-01  0.3805E-01  0.2960E+00  0.2960E+00
      6.354  0.2174E-01  0.2174E-01  0.3020E+00  0.3020E+00
      6.537  0.4921E-01  0.4921E-01  0.3062E+00  0.3062E+00
      6.720  0.1218E-01  0.1218E-01  0.3128E+00  0.3128E+00
      6.903  0.4050E-01  0.4050E-01  0.3183E+00  0.3183E+00
      7.086  0.1313E-01  0.1313E-01  0.3231E+00  0.3231E+00
      7.269  0.3047E-01  0.3047E-01  0.3280E+00  0.3280E+00
      7.452  0.1541E-01  0.1541E-01  0.3331E+00  0.3331E+00
      7.635  0.1652E-01  0.1652E-01  0.3356E+00  0.3356E+00
      7.818  0.4065E-01  0.4065E-01  0.3415E+00  0.3415E+00
      8.001  0.2063E-01  0.2063E-01  0.3471E+00  0.3471E+00
      8.184  0.2309E-01  0.2309E-01  0.3507E+00  0.3507E+00
      8.367  0.2944E-01  0.2944E-01  0.3561E+00  0.3561E+00
      8.550  0.2101E-01  0.2101E-01  0.3608E+00  0.3608E+00
      8.733  0.1695E-01  0.1695E-01  0.3651E+00  0.3651E+00
      8.916  0.2621E-01  0.2621E-01  0.3685E+00  0.3685E+00
      9.099  0.1913E-01  0.1913E-01  0.3729E+00  0.3729E+00
      9.282  0.1984E-01  0.1984E-01  0.3762E+00  0.3762E+00
      9.465  0.2275E-01  0.2275E-01  0.3803E+00  0.3803E+00
      9.648  0.1626E-01  0.1626E-01  0.3836E+00  0.3836E+00
      9.831  0.3083E-01  0.3083E-01  0.3878E+00  0.3878E+00
     10.014  0.1774E-01  0.1774E-01  0.3918E+00  0.3918E+00
     10.197  0.1145E-01  0.1145E-01  0.3946E+00  0.3946E+00
     10.380  0.1498E-01  0.1498E-01  0.3970E+00  0.3970E+00
     10.564  0.2890E-01  0.2890E-01  0.4004E+00  0.4004E+00
     10.747  0.1153E-01  0.1153E-01  0.4039E+00  0.4039E+00
     10.930  0.2067E-01  0.2067E-01  0.4069E+00  0.4069E+00
     11.113  0.2077E-01  0.2077E-01  0.4115E+00  0.4115E+00
     11.296  0.1851E-01  0.1851E-01  0.4149E+00  0.4149E+00
     11.479  0.2583E-01  0.2583E-01  0.4190E+00  0.4190E+00
     11.662  0.2139E-01  0.2139E-01  0.4236E+00  0.4236E+00
     11.845  0.2365E-01  0.2365E-01  0.4275E+00  0.4275E+00
     12.028  0.2107E-01  0.2107E-01  0.4316E+00  0.4316E+00
     12.211  0.2585E-01  0.2585E-01  0.4358E+00  0.4358E+00
     12.394  0.2420E-01  0.2420E-01  0.4405E+00  0.4405E+00
     12.577  0.2158E-01  0.2158E-01  0.4446E+00  0.4446E+00
     12.760  0.2124E-01  0.2124E-01  0.4486E+00  0.4486E+00
     12.943  0.2201E-01  0.2201E-01  0.4521E+00  0.4521E+00
     13.126  0.2683E-01  0.2683E-01  0.4568E+00  0.4568E+00
     13.309  0.2337E-01  0.2337E-01  0.4612E+00  0.4612E+00
     13.492  0.2589E-01  0.2589E-01  0.4658E+00  0.4658E+00
     13.675  0.2613E-01  0.2613E-01  0.4700E+00  0.4700E+00
     13.858  0.2555E-01  0.2555E-01  0.4748E+00  0.4748E+00
     14.041  0.1708E-01  0.1708E-01  0.4786E+00  0.4786E+00
     14.224  0.1349E-01  0.1349E-01  0.4815E+00  0.4815E+00
     14.407  0.7728E-02  0.7728E-02  0.4834E+00  0.4834E+00
     14.590  0.3711E-02  0.3711E-02  0.4844E+00  0.4844E+00
     14.773  0.9839E-03  0.9839E-03  0.4848E+00  0.4848E+00
     14.956  0.0000E+00  0.0000E+00  0.4848E+00  0.4848E+00
     15.139  0.0000E+00  0.0000E+00  0.4848E+00  0.4848E+00
     15.322  0.0000E+00  0.0000E+00  0.4848E+00  0.4848E+00
     15.505  0.0000E+00  0.0000E+00  0.4848E+00  0.4848E+00
     15.688  0.0000E+00  0.0000E+00  0.4848E+00  0.4848E+00
     15.871  0.0000E+00  0.0000E+00  0.4848E+00  0.4848E+00
     16.054  0.0000E+00  0.0000E+00  0.4848E+00  0.4848E+00
     16.237  0.0000E+00  0.0000E+00  0.4848E+00  0.4848E+00
     16.420  0.0000E+00  0.0000E+00  0.4848E+00  0.4848E+00
     16.603  0.0000E+00  0.0000E+00  0.4848E+00  0.4848E+00
     16.787  0.0000E+00  0.0000E+00  0.4848E+00  0.4848E+00
     16.970  0.0000E+00  0.0000E+00  0.4848E+00  0.4848E+00
     17.153  0.0000E+00  0.0000E+00  0.4848E+00  0.4848E+00
     17.336  0.0000E+00  0.0000E+00  0.4848E+00  0.4848E+00
     17.33559155    -37.57319903  301     -0.69279469      1.00000000
    -37.573  0.0000E+00  0.0000E+00  0.0000E+00  0.0000E+00  0.0000E+00  0.0000E+00  0.0000E+00  0.0000E+00  0.0000E+00  0.0000E+00  0.0000E+00  0.0000E+00  0.0000E+00  0.0000E+00  0.0000E+00  0.0000E+00  0.0000E+00  0.0000E+00
    -37.390  0.0000E+00  0.0000E+00  0.0000E+00  0.0000E+00  0.0000E+00  0.0000E+00  0.0000E+00  0.0000E+00  0.0000E+00  0.0000E+00  0.0000E+00  0.0000E+00  0.0000E+00  0.0000E+00  0.0000E+00  0.0000E+00  0.0000E+00  0.0000E+00
    -37.207  0.0000E+00  0.0000E+00  0.0000E+00  0.0000E+00  0.0000E+00  0.0000E+00  0.0000E+00  0.0000E+00  0.0000E+00  0.0000E+00  0.0000E+00  0.0000E+00  0.0000E+00  0.0000E+00  0.0000E+00  0.0000E+00  0.0000E+00  0.0000E+00
    -37.024  0.0000E+00  0.0000E+00  0.0000E+00  0.0000E+00  0.0000E+00  0.0000E+00  0.0000E+00  0.0000E+00  0.0000E+00  0.0000E+00  0.0000E+00  0.0000E+00  0.0000E+00  0.0000E+00  0.0000E+00  0.0000E+00  0.0000E+00  0.0000E+00
    -36.841  0.0000E+00  0.0000E+00  0.0000E+00  0.0000E+00  0.0000E+00  0.0000E+00  0.0000E+00  0.0000E+00  0.0000E+00  0.0000E+00  0.0000E+00  0.0000E+00  0.0000E+00  0.0000E+00  0.0000E+00  0.0000E+00  0.0000E+00  0.0000E+00
    -36.658  0.0000E+00  0.0000E+00  0.0000E+00  0.0000E+00  0.0000E+00  0.0000E+00  0.0000E+00  0.0000E+00  0.0000E+00  0.0000E+00  0.0000E+00  0.0000E+00  0.0000E+00  0.0000E+00  0.0000E+00  0.0000E+00  0.0000E+00  0.0000E+00
    -36.475  0.0000E+00  0.0000E+00  0.0000E+00  0.0000E+00  0.0000E+00  0.0000E+00  0.0000E+00  0.0000E+00  0.0000E+00  0.0000E+00  0.0000E+00  0.0000E+00  0.0000E+00  0.0000E+00  0.0000E+00  0.0000E+00  0.0000E+00  0.0000E+00
    -36.292  0.0000E+00  0.0000E+00  0.0000E+00  0.0000E+00  0.0000E+00  0.0000E+00  0.0000E+00  0.0000E+00  0.0000E+00  0.0000E+00  0.0000E+00  0.0000E+00  0.0000E+00  0.0000E+00  0.0000E+00  0.0000E+00  0.0000E+00  0.0000E+00
    -36.109  0.0000E+00  0.0000E+00  0.0000E+00  0.0000E+00  0.0000E+00  0.0000E+00  0.0000E+00  0.0000E+00  0.0000E+00  0.0000E+00  0.0000E+00  0.0000E+00  0.0000E+00  0.0000E+00  0.0000E+00  0.0000E+00  0.0000E+00  0.0000E+00
    -35.926  0.0000E+00  0.0000E+00  0.0000E+00  0.0000E+00  0.0000E+00  0.0000E+00  0.0000E+00  0.0000E+00  0.0000E+00  0.0000E+00  0.0000E+00  0.0000E+00  0.0000E+00  0.0000E+00  0.0000E+00  0.0000E+00  0.0000E+00  0.0000E+00
    -35.743  0.0000E+00  0.0000E+00  0.0000E+00  0.0000E+00  0.0000E+00  0.0000E+00  0.0000E+00  0.0000E+00  0.0000E+00  0.0000E+00  0.0000E+00  0.0000E+00  0.0000E+00  0.0000E+00  0.0000E+00  0.0000E+00  0.0000E+00  0.0000E+00
    -35.560  0.0000E+00  0.0000E+00  0.0000E+00  0.0000E+00  0.0000E+00  0.0000E+00  0.0000E+00  0.0000E+00  0.0000E+00  0.0000E+00  0.0000E+00  0.0000E+00  0.0000E+00  0.0000E+00  0.0000E+00  0.0000E+00  0.0000E+00  0.0000E+00
    -35.377  0.0000E+00  0.0000E+00  0.0000E+00  0.0000E+00  0.0000E+00  0.0000E+00  0.0000E+00  0.0000E+00  0.0000E+00  0.0000E+00  0.0000E+00  0.0000E+00  0.0000E+00  0.0000E+00  0.0000E+00  0.0000E+00  0.0000E+00  0.0000E+00
    -35.194  0.0000E+00  0.0000E+00  0.0000E+00  0.0000E+00  0.0000E+00  0.0000E+00  0.0000E+00  0.0000E+00  0.0000E+00  0.0000E+00  0.0000E+00  0.0000E+00  0.0000E+00  0.0000E+00  0.0000E+00  0.0000E+00  0.0000E+00  0.0000E+00
    -35.011  0.0000E+00  0.0000E+00  0.0000E+00  0.0000E+00  0.0000E+00  0.0000E+00  0.0000E+00  0.0000E+00  0.0000E+00  0.0000E+00  0.0000E+00  0.0000E+00  0.0000E+00  0.0000E+00  0.0000E+00  0.0000E+00  0.0000E+00  0.0000E+00
    -34.828  0.0000E+00  0.0000E+00  0.0000E+00  0.0000E+00  0.0000E+00  0.0000E+00  0.0000E+00  0.0000E+00  0.0000E+00  0.0000E+00  0.0000E+00  0.0000E+00  0.0000E+00  0.0000E+00  0.0000E+00  0.0000E+00  0.0000E+00  0.0000E+00
    -34.645  0.0000E+00  0.0000E+00  0.0000E+00  0.0000E+00  0.0000E+00  0.0000E+00  0.0000E+00  0.0000E+00  0.0000E+00  0.0000E+00  0.0000E+00  0.0000E+00  0.0000E+00  0.0000E+00  0.0000E+00  0.0000E+00  0.0000E+00  0.0000E+00
    -34.462  0.0000E+00  0.0000E+00  0.0000E+00  0.0000E+00  0.0000E+00  0.0000E+00  0.0000E+00  0.0000E+00  0.0000E+00  0.0000E+00  0.0000E+00  0.0000E+00  0.0000E+00  0.0000E+00  0.0000E+00  0.0000E+00  0.0000E+00  0.0000E+00
    -34.279  0.0000E+00  0.0000E+00  0.0000E+00  0.0000E+00  0.0000E+00  0.0000E+00  0.0000E+00  0.0000E+00  0.0000E+00  0.0000E+00  0.0000E+00  0.0000E+00  0.0000E+00  0.0000E+00  0.0000E+00  0.0000E+00  0.0000E+00  0.0000E+00
    -34.096  0.0000E+00  0.0000E+00  0.0000E+00  0.0000E+00  0.0000E+00  0.0000E+00  0.0000E+00  0.0000E+00  0.0000E+00  0.0000E+00  0.0000E+00  0.0000E+00  0.0000E+00  0.0000E+00  0.0000E+00  0.0000E+00  0.0000E+00  0.0000E+00
    -33.913  0.0000E+00  0.0000E+00  0.0000E+00  0.0000E+00  0.0000E+00  0.0000E+00  0.0000E+00  0.0000E+00  0.0000E+00  0.0000E+00  0.0000E+00  0.0000E+00  0.0000E+00  0.0000E+00  0.0000E+00  0.0000E+00  0.0000E+00  0.0000E+00
    -33.730  0.0000E+00  0.0000E+00  0.0000E+00  0.0000E+00  0.0000E+00  0.0000E+00  0.0000E+00  0.0000E+00  0.0000E+00  0.0000E+00  0.0000E+00  0.0000E+00  0.0000E+00  0.0000E+00  0.0000E+00  0.0000E+00  0.0000E+00  0.0000E+00
    -33.547  0.0000E+00  0.0000E+00  0.0000E+00  0.0000E+00  0.0000E+00  0.0000E+00  0.0000E+00  0.0000E+00  0.0000E+00  0.0000E+00  0.0000E+00  0.0000E+00  0.0000E+00  0.0000E+00  0.0000E+00  0.0000E+00  0.0000E+00  0.0000E+00
    -33.364  0.0000E+00  0.0000E+00  0.0000E+00  0.0000E+00  0.0000E+00  0.0000E+00  0.0000E+00  0.0000E+00  0.0000E+00  0.0000E+00  0.0000E+00  0.0000E+00  0.0000E+00  0.0000E+00  0.0000E+00  0.0000E+00  0.0000E+00  0.0000E+00
    -33.180  0.0000E+00  0.0000E+00  0.0000E+00  0.0000E+00  0.0000E+00  0.0000E+00  0.0000E+00  0.0000E+00  0.0000E+00  0.0000E+00  0.0000E+00  0.0000E+00  0.0000E+00  0.0000E+00  0.0000E+00  0.0000E+00  0.0000E+00  0.0000E+00
    -32.997  0.0000E+00  0.0000E+00  0.0000E+00  0.0000E+00  0.0000E+00  0.0000E+00  0.0000E+00  0.0000E+00  0.0000E+00  0.0000E+00  0.0000E+00  0.0000E+00  0.0000E+00  0.0000E+00  0.0000E+00  0.0000E+00  0.0000E+00  0.0000E+00
    -32.814  0.0000E+00  0.0000E+00  0.0000E+00  0.0000E+00  0.0000E+00  0.0000E+00  0.0000E+00  0.0000E+00  0.0000E+00  0.0000E+00  0.0000E+00  0.0000E+00  0.0000E+00  0.0000E+00  0.0000E+00  0.0000E+00  0.0000E+00  0.0000E+00
    -32.631  0.0000E+00  0.0000E+00  0.0000E+00  0.0000E+00  0.0000E+00  0.0000E+00  0.0000E+00  0.0000E+00  0.0000E+00  0.0000E+00  0.0000E+00  0.0000E+00  0.0000E+00  0.0000E+00  0.0000E+00  0.0000E+00  0.0000E+00  0.0000E+00
    -32.448  0.0000E+00  0.0000E+00  0.0000E+00  0.0000E+00  0.0000E+00  0.0000E+00  0.0000E+00  0.0000E+00  0.0000E+00  0.0000E+00  0.0000E+00  0.0000E+00  0.0000E+00  0.0000E+00  0.0000E+00  0.0000E+00  0.0000E+00  0.0000E+00
    -32.265  0.0000E+00  0.0000E+00  0.0000E+00  0.0000E+00  0.0000E+00  0.0000E+00  0.0000E+00  0.0000E+00  0.0000E+00  0.0000E+00  0.0000E+00  0.0000E+00  0.0000E+00  0.0000E+00  0.0000E+00  0.0000E+00  0.0000E+00  0.0000E+00
    -32.082  0.0000E+00  0.0000E+00  0.0000E+00  0.0000E+00  0.0000E+00  0.0000E+00  0.0000E+00  0.0000E+00  0.0000E+00  0.0000E+00  0.0000E+00  0.0000E+00  0.0000E+00  0.0000E+00  0.0000E+00  0.0000E+00  0.0000E+00  0.0000E+00
    -31.899  0.0000E+00  0.0000E+00  0.0000E+00  0.0000E+00  0.0000E+00  0.0000E+00  0.0000E+00  0.0000E+00  0.0000E+00  0.0000E+00  0.0000E+00  0.0000E+00  0.0000E+00  0.0000E+00  0.0000E+00  0.0000E+00  0.0000E+00  0.0000E+00
    -31.716  0.0000E+00  0.0000E+00  0.0000E+00  0.0000E+00  0.0000E+00  0.0000E+00  0.0000E+00  0.0000E+00  0.0000E+00  0.0000E+00  0.0000E+00  0.0000E+00  0.0000E+00  0.0000E+00  0.0000E+00  0.0000E+00  0.0000E+00  0.0000E+00
    -31.533  0.0000E+00  0.0000E+00  0.0000E+00  0.0000E+00  0.0000E+00  0.0000E+00  0.0000E+00  0.0000E+00  0.0000E+00  0.0000E+00  0.0000E+00  0.0000E+00  0.0000E+00  0.0000E+00  0.0000E+00  0.0000E+00  0.0000E+00  0.0000E+00
    -31.350  0.0000E+00  0.0000E+00  0.0000E+00  0.0000E+00  0.0000E+00  0.0000E+00  0.0000E+00  0.0000E+00  0.0000E+00  0.0000E+00  0.0000E+00  0.0000E+00  0.0000E+00  0.0000E+00  0.0000E+00  0.0000E+00  0.0000E+00  0.0000E+00
    -31.167  0.0000E+00  0.0000E+00  0.0000E+00  0.0000E+00  0.0000E+00  0.0000E+00  0.0000E+00  0.0000E+00  0.0000E+00  0.0000E+00  0.0000E+00  0.0000E+00  0.0000E+00  0.0000E+00  0.0000E+00  0.0000E+00  0.0000E+00  0.0000E+00
    -30.984  0.0000E+00  0.0000E+00  0.0000E+00  0.0000E+00  0.0000E+00  0.0000E+00  0.0000E+00  0.0000E+00  0.0000E+00  0.0000E+00  0.0000E+00  0.0000E+00  0.0000E+00  0.0000E+00  0.0000E+00  0.0000E+00  0.0000E+00  0.0000E+00
    -30.801  0.0000E+00  0.0000E+00  0.0000E+00  0.0000E+00  0.0000E+00  0.0000E+00  0.0000E+00  0.0000E+00  0.0000E+00  0.0000E+00  0.0000E+00  0.0000E+00  0.0000E+00  0.0000E+00  0.0000E+00  0.0000E+00  0.0000E+00  0.0000E+00
    -30.618  0.0000E+00  0.0000E+00  0.0000E+00  0.0000E+00  0.0000E+00  0.0000E+00  0.0000E+00  0.0000E+00  0.0000E+00  0.0000E+00  0.0000E+00  0.0000E+00  0.0000E+00  0.0000E+00  0.0000E+00  0.0000E+00  0.0000E+00  0.0000E+00
    -30.435  0.0000E+00  0.0000E+00  0.0000E+00  0.0000E+00  0.0000E+00  0.0000E+00  0.0000E+00  0.0000E+00  0.0000E+00  0.0000E+00  0.0000E+00  0.0000E+00  0.0000E+00  0.0000E+00  0.0000E+00  0.0000E+00  0.0000E+00  0.0000E+00
    -30.252  0.0000E+00  0.0000E+00  0.0000E+00  0.0000E+00  0.0000E+00  0.0000E+00  0.0000E+00  0.0000E+00  0.0000E+00  0.0000E+00  0.0000E+00  0.0000E+00  0.0000E+00  0.0000E+00  0.0000E+00  0.0000E+00  0.0000E+00  0.0000E+00
    -30.069  0.0000E+00  0.0000E+00  0.0000E+00  0.0000E+00  0.0000E+00  0.0000E+00  0.0000E+00  0.0000E+00  0.0000E+00  0.0000E+00  0.0000E+00  0.0000E+00  0.0000E+00  0.0000E+00  0.0000E+00  0.0000E+00  0.0000E+00  0.0000E+00
    -29.886  0.0000E+00  0.0000E+00  0.0000E+00  0.0000E+00  0.0000E+00  0.0000E+00  0.0000E+00  0.0000E+00  0.0000E+00  0.0000E+00  0.0000E+00  0.0000E+00  0.0000E+00  0.0000E+00  0.0000E+00  0.0000E+00  0.0000E+00  0.0000E+00
    -29.703  0.0000E+00  0.0000E+00  0.0000E+00  0.0000E+00  0.0000E+00  0.0000E+00  0.0000E+00  0.0000E+00  0.0000E+00  0.0000E+00  0.0000E+00  0.0000E+00  0.0000E+00  0.0000E+00  0.0000E+00  0.0000E+00  0.0000E+00  0.0000E+00
    -29.520  0.0000E+00  0.0000E+00  0.0000E+00  0.0000E+00  0.0000E+00  0.0000E+00  0.0000E+00  0.0000E+00  0.0000E+00  0.0000E+00  0.0000E+00  0.0000E+00  0.0000E+00  0.0000E+00  0.0000E+00  0.0000E+00  0.0000E+00  0.0000E+00
    -29.337  0.0000E+00  0.0000E+00  0.0000E+00  0.0000E+00  0.0000E+00  0.0000E+00  0.0000E+00  0.0000E+00  0.0000E+00  0.0000E+00  0.0000E+00  0.0000E+00  0.0000E+00  0.0000E+00  0.0000E+00  0.0000E+00  0.0000E+00  0.0000E+00
    -29.154  0.0000E+00  0.0000E+00  0.0000E+00  0.0000E+00  0.0000E+00  0.0000E+00  0.0000E+00  0.0000E+00  0.0000E+00  0.0000E+00  0.0000E+00  0.0000E+00  0.0000E+00  0.0000E+00  0.0000E+00  0.0000E+00  0.0000E+00  0.0000E+00
    -28.971  0.0000E+00  0.0000E+00  0.0000E+00  0.0000E+00  0.0000E+00  0.0000E+00  0.0000E+00  0.0000E+00  0.0000E+00  0.0000E+00  0.0000E+00  0.0000E+00  0.0000E+00  0.0000E+00  0.0000E+00  0.0000E+00  0.0000E+00  0.0000E+00
    -28.788  0.0000E+00  0.0000E+00  0.0000E+00  0.0000E+00  0.0000E+00  0.0000E+00  0.0000E+00  0.0000E+00  0.0000E+00  0.0000E+00  0.0000E+00  0.0000E+00  0.0000E+00  0.0000E+00  0.0000E+00  0.0000E+00  0.0000E+00  0.0000E+00
    -28.605  0.0000E+00  0.0000E+00  0.0000E+00  0.0000E+00  0.0000E+00  0.0000E+00  0.0000E+00  0.0000E+00  0.0000E+00  0.0000E+00  0.0000E+00  0.0000E+00  0.0000E+00  0.0000E+00  0.0000E+00  0.0000E+00  0.0000E+00  0.0000E+00
    -28.422  0.0000E+00  0.0000E+00  0.0000E+00  0.0000E+00  0.0000E+00  0.0000E+00  0.0000E+00  0.0000E+00  0.0000E+00  0.0000E+00  0.0000E+00  0.0000E+00  0.0000E+00  0.0000E+00  0.0000E+00  0.0000E+00  0.0000E+00  0.0000E+00