       N       E                     dE             d eps       ncg     rms          rms(c)
DAV:   1     0.437327899772E+03    0.43733E+03   -0.27129E+04 15560   0.803E+02
DAV:   2    -0.709390193844E+02   -0.50827E+03   -0.48797E+03 18832   0.355E+02
DAV:   3    -0.107111233206E+03   -0.36172E+02   -0.35864E+02 21424   0.816E+01
DAV:   4    -0.109302779937E+03   -0.21915E+01   -0.21849E+01 26008   0.179E+01
DAV:   5    -0.109377387175E+03   -0.74607E-01   -0.74586E-01 24248   0.349E+00    0.585E+01
DAV:   6    -0.102865965738E+03    0.65114E+01   -0.16319E+01 21304   0.198E+01    0.251E+01
DAV:   7    -0.101986130923E+03    0.87983E+00   -0.73820E+00 21096   0.122E+01    0.131E+01
DAV:   8    -0.101498765743E+03    0.48737E+00   -0.29398E+00 21344   0.900E+00    0.676E+00
DAV:   9    -0.101466642773E+03    0.32123E-01   -0.69298E-01 22160   0.392E+00    0.207E+00
DAV:  10    -0.101468020016E+03   -0.13772E-02   -0.11462E-01 22312   0.185E+00    0.790E-01
DAV:  11    -0.101468926679E+03   -0.90666E-03   -0.23896E-02 20760   0.105E+00    0.351E-01
DAV:  12    -0.101469088592E+03   -0.16191E-03   -0.40169E-03 21640   0.358E-01    0.230E-01
DAV:  13    -0.101470064801E+03   -0.97621E-03   -0.10831E-03 15472   0.156E-01    0.111E-01
DAV:  14    -0.101470564195E+03   -0.49939E-03   -0.47288E-04 15960   0.112E-01    0.369E-02
DAV:  15    -0.101470629152E+03   -0.64958E-04   -0.67747E-05 11488   0.450E-02
   1 F= -.10147063E+03 E0= -.10147074E+03  d E =-.101471E+03
       N       E                     dE             d eps       ncg     rms          rms(c)
DAV:   1    -0.101416079325E+03    0.54485E-01   -0.11748E+01 16056   0.211E+01    0.222E+00
DAV:   2    -0.101578040613E+03   -0.16196E+00   -0.20626E+00 15536   0.581E+00    0.121E+00
DAV:   3    -0.101574144339E+03    0.38963E-02   -0.51970E-02 20432   0.121E+00    0.769E-01
DAV:   4    -0.101572352267E+03    0.17921E-02   -0.19204E-02 20920   0.917E-01    0.541E-01
DAV:   5    -0.101570572673E+03    0.17796E-02   -0.10682E-02 21504   0.604E-01    0.186E-01
DAV:   6    -0.101570575430E+03   -0.27566E-05   -0.13368E-03 20032   0.217E-01    0.137E-01
DAV:   7    -0.101570576148E+03   -0.71874E-06   -0.22834E-04 12368   0.102E-01
   2 F= -.10157058E+03 E0= -.10157069E+03  d E =-.999470E-01
       N       E                     dE             d eps       ncg     rms          rms(c)
DAV:   1    -0.101560356980E+03    0.10218E-01   -0.12581E+00 16520   0.685E+00    0.731E-01
DAV:   2    -0.101577984883E+03   -0.17628E-01   -0.22242E-01 15936   0.188E+00    0.371E-01
DAV:   3    -0.101577502737E+03    0.48215E-03   -0.50661E-03 20256   0.369E-01    0.224E-01
DAV:   4    -0.101577220329E+03    0.28241E-03   -0.18111E-03 21736   0.240E-01    0.118E-01
DAV:   5    -0.101577166214E+03    0.54115E-04   -0.68270E-04 18928   0.159E-01
   3 F= -.10157717E+03 E0= -.10157728E+03  d E =-.106537E+00
       N       E                     dE             d eps       ncg     rms          rms(c)
DAV:   1    -0.101623127489E+03   -0.45907E-01   -0.38205E+00 16304   0.108E+01    0.123E+00
DAV:   2    -0.101637954170E+03   -0.14827E-01   -0.34622E-01 16568   0.287E+00    0.704E-01
DAV:   3    -0.101635248898E+03    0.27053E-02   -0.22051E-02 21648   0.990E-01    0.397E-01
DAV:   4    -0.101633627654E+03    0.16212E-02   -0.92825E-03 21720   0.624E-01    0.264E-01
DAV:   5    -0.101633096177E+03    0.53148E-03   -0.27626E-03 21768   0.339E-01    0.937E-02
DAV:   6    -0.101633109943E+03   -0.13766E-04   -0.41816E-04 17528   0.134E-01
   4 F= -.10163311E+03 E0= -.10163325E+03  d E =-.559437E-01
       N       E                     dE             d eps       ncg     rms          rms(c)
DAV:   1    -0.101633219685E+03   -0.12351E-03   -0.74902E+00 15944   0.151E+01    0.170E+00
DAV:   2    -0.101663305810E+03   -0.30086E-01   -0.68859E-01 16488   0.408E+00    0.980E-01
DAV:   3    -0.101657955278E+03    0.53505E-02   -0.41636E-02 21440   0.137E+00    0.540E-01
DAV:   4    -0.101654978286E+03    0.29770E-02   -0.17125E-02 21544   0.850E-01    0.377E-01
DAV:   5    -0.101653958909E+03    0.10194E-02   -0.55302E-03 23312   0.484E-01    0.136E-01
DAV:   6    -0.101653983067E+03   -0.24158E-04   -0.83322E-04 19744   0.189E-01
   5 F= -.10165398E+03 E0= -.10165415E+03  d E =-.768169E-01
       N       E                     dE             d eps       ncg     rms          rms(c)
DAV:   1    -0.101681251467E+03   -0.27293E-01   -0.12499E+00 15360   0.572E+00    0.682E-01
DAV:   2    -0.101684410814E+03   -0.31593E-02   -0.84929E-02 18120   0.162E+00    0.389E-01
DAV:   3    -0.101683689257E+03    0.72156E-03   -0.46846E-03 21352   0.434E-01    0.173E-01
DAV:   4    -0.101683390954E+03    0.29830E-03   -0.12781E-03 20896   0.226E-01    0.126E-01
DAV:   5    -0.101683346813E+03    0.44141E-04   -0.55070E-04 18176   0.160E-01
   6 F= -.10168335E+03 E0= -.10168352E+03  d E =-.293637E-01
       N       E                     dE             d eps       ncg     rms          rms(c)
DAV:   1    -0.101714681997E+03   -0.31291E-01   -0.11275E+01 15360   0.172E+01    0.214E+00
DAV:   2    -0.101742947527E+03   -0.28266E-01   -0.77328E-01 17832   0.487E+00    0.118E+00
DAV:   3    -0.101736175141E+03    0.67724E-02   -0.42986E-02 21112   0.135E+00    0.526E-01
DAV:   4    -0.101733612629E+03    0.25625E-02   -0.14091E-02 24152   0.739E-01    0.397E-01
DAV:   5    -0.101733052382E+03    0.56025E-03   -0.54804E-03 21880   0.511E-01    0.230E-01
DAV:   6    -0.101732983278E+03    0.69104E-04   -0.14646E-03 22360   0.247E-01    0.162E-01
DAV:   7    -0.101733030237E+03   -0.46959E-04   -0.19237E-04 11568   0.998E-02
   7 F= -.10173303E+03 E0= -.10173317E+03  d E =-.790472E-01
       N       E                     dE             d eps       ncg     rms          rms(c)
DAV:   1    -0.101734511785E+03   -0.15285E-02   -0.15677E+00 15376   0.640E+00    0.794E-01
DAV:   2    -0.101738395500E+03   -0.38837E-02   -0.10685E-01 18064   0.182E+00    0.434E-01
DAV:   3    -0.101737473080E+03    0.92242E-03   -0.61835E-03 21320   0.511E-01    0.193E-01
DAV:   4    -0.101737117108E+03    0.35597E-03   -0.19971E-03 22400   0.293E-01    0.145E-01
DAV:   5    -0.101737022474E+03    0.94634E-04   -0.84606E-04 20072   0.198E-01
   8 F= -.10173702E+03 E0= -.10173718E+03  d E =-.830394E-01
       N       E                     dE             d eps       ncg     rms          rms(c)
DAV:   1    -0.101775762547E+03   -0.38645E-01   -0.32149E+00 15360   0.974E+00    0.877E-01
DAV:   2    -0.101795149154E+03   -0.19387E-01   -0.27511E-01 17232   0.265E+00    0.481E-01
DAV:   3    -0.101794700456E+03    0.44870E-03   -0.10743E-02 23040   0.547E-01    0.253E-01
DAV:   4    -0.101794405797E+03    0.29466E-03   -0.24542E-03 24072   0.326E-01    0.179E-01
DAV:   5    -0.101794227719E+03    0.17808E-03   -0.12476E-03 20648   0.232E-01    0.745E-02
DAV:   6    -0.101794219991E+03    0.77279E-05   -0.18778E-04 10336   0.947E-02
   9 F= -.10179422E+03 E0= -.10179441E+03  d E =-.571975E-01
       N       E                     dE             d eps       ncg     rms          rms(c)
DAV:   1    -0.101718110308E+03    0.76117E-01   -0.28939E+01 15360   0.292E+01    0.279E+00
DAV:   2    -0.101895991682E+03   -0.17788E+00   -0.25082E+00 17024   0.800E+00    0.146E+00
DAV:   3    -0.101892027311E+03    0.39644E-02   -0.99388E-02 24448   0.158E+00    0.762E-01
DAV:   4    -0.101889193555E+03    0.28338E-02   -0.20083E-02 23392   0.939E-01    0.539E-01
DAV:   5    -0.101887825570E+03    0.13680E-02   -0.11176E-02 21496   0.657E-01    0.230E-01
DAV:   6    -0.101887726551E+03    0.99020E-04   -0.22566E-03 21488   0.301E-01    0.135E-01
DAV:   7    -0.101887727989E+03   -0.14381E-05   -0.28254E-04 15120   0.118E-01
  10 F= -.10188773E+03 E0= -.10188802E+03  d E =-.150706E+00
       N       E                     dE             d eps       ncg     rms          rms(c)
DAV:   1    -0.101917149836E+03   -0.29423E-01   -0.67616E+00 15360   0.140E+01    0.137E+00
DAV:   2    -0.101960515562E+03   -0.43366E-01   -0.63899E-01 16872   0.398E+00    0.761E-01
DAV:   3    -0.101959240221E+03    0.12753E-02   -0.30124E-02 22840   0.103E+00    0.400E-01
DAV:   4    -0.101958293648E+03    0.94657E-03   -0.85737E-03 23184   0.618E-01    0.335E-01
DAV:   5    -0.101957711029E+03    0.58262E-03   -0.34880E-03 22320   0.370E-01    0.112E-01
DAV:   6    -0.101957746786E+03   -0.35756E-04   -0.47431E-04 17408   0.115E-01
  11 F= -.10195775E+03 E0= -.10195804E+03  d E =-.700188E-01
       N       E                     dE             d eps       ncg     rms          rms(c)
DAV:   1    -0.101895093244E+03    0.62618E-01   -0.17640E+01 15360   0.226E+01    0.213E+00
DAV:   2    -0.102009287784E+03   -0.11419E+00   -0.16686E+00 16584   0.641E+00    0.124E+00
DAV:   3    -0.102005480981E+03    0.38068E-02   -0.77054E-02 22784   0.164E+00    0.654E-01
DAV:   4    -0.102003696385E+03    0.17846E-02   -0.21044E-02 23232   0.988E-01    0.552E-01
DAV:   5    -0.102001606422E+03    0.20900E-02   -0.91594E-03 22328   0.599E-01    0.182E-01
DAV:   6    -0.102002310098E+03   -0.70368E-03   -0.12852E-03 19984   0.189E-01    0.125E-01
DAV:   7    -0.102002320818E+03   -0.10720E-04   -0.19421E-04 12152   0.823E-02
  12 F= -.10200232E+03 E0= -.10200229E+03  d E =-.114593E+00
       N       E                     dE             d eps       ncg     rms          rms(c)
DAV:   1    -0.102029400907E+03   -0.27091E-01   -0.52684E+00 15264   0.114E+01    0.106E+00
DAV:   2    -0.102054475930E+03   -0.25075E-01   -0.36908E-01 17592   0.311E+00    0.459E-01
DAV:   3    -0.102054143963E+03    0.33197E-03   -0.16097E-02 25712   0.526E-01    0.284E-01
DAV:   4    -0.102053714792E+03    0.42917E-03   -0.19015E-03 20120   0.233E-01    0.118E-01
DAV:   5    -0.102053753493E+03   -0.38701E-04   -0.57609E-04 18992   0.156E-01
  13 F= -.10205375E+03 E0= -.10205372E+03  d E =-.514327E-01
       N       E                     dE             d eps       ncg     rms          rms(c)
DAV:   1    -0.101906519040E+03    0.14720E+00   -0.47630E+01 15176   0.341E+01    0.318E+00
DAV:   2    -0.102138584199E+03   -0.23207E+00   -0.34666E+00 17584   0.943E+00    0.145E+00
DAV:   3    -0.102136697425E+03    0.18868E-02   -0.15807E-01 26288   0.171E+00    0.909E-01
DAV:   4    -0.102133479393E+03    0.32180E-02   -0.22176E-02 21168   0.964E-01    0.563E-01
DAV:   5    -0.102132152627E+03    0.13268E-02   -0.13046E-02 23512   0.791E-01    0.254E-01
DAV:   6    -0.102132108492E+03    0.44135E-04   -0.20383E-03 20328   0.294E-01    0.157E-01
DAV:   7    -0.102131660603E+03    0.44789E-03   -0.36119E-04 14656   0.113E-01    0.393E-02
DAV:   8    -0.102131661611E+03   -0.10081E-05   -0.10632E-04 10456   0.757E-02
  14 F= -.10213166E+03 E0= -.10213198E+03  d E =-.129341E+00
       N       E                     dE             d eps       ncg     rms          rms(c)
DAV:   1    -0.102155638212E+03   -0.23978E-01   -0.68148E+00 15360   0.147E+01    0.138E+00
DAV:   2    -0.102204982859E+03   -0.49345E-01   -0.65782E-01 16952   0.410E+00    0.681E-01
DAV:   3    -0.102204723291E+03    0.25957E-03   -0.27920E-02 22592   0.934E-01    0.379E-01
DAV:   4    -0.102204315879E+03    0.40741E-03   -0.64939E-03 24504   0.566E-01    0.313E-01
DAV:   5    -0.102203895379E+03    0.42050E-03   -0.25349E-03 21600   0.333E-01    0.122E-01
DAV:   6    -0.102203952010E+03   -0.56630E-04   -0.44209E-04 17992   0.105E-01
  15 F= -.10220395E+03 E0= -.10220398E+03  d E =-.722904E-01
       N       E                     dE             d eps       ncg     rms          rms(c)
DAV:   1    -0.102159791139E+03    0.44104E-01   -0.11590E+01 15360   0.192E+01    0.185E+00
DAV:   2    -0.102244234088E+03   -0.84443E-01   -0.11254E+00 16712   0.535E+00    0.894E-01
DAV:   3    -0.102243809262E+03    0.42483E-03   -0.47817E-02 22536   0.120E+00    0.496E-01
DAV:   4    -0.102243198771E+03    0.61049E-03   -0.11904E-02 24880   0.762E-01    0.413E-01
DAV:   5    -0.102242498545E+03    0.70023E-03   -0.44280E-03 21896   0.423E-01    0.159E-01
DAV:   6    -0.102242601579E+03   -0.10303E-03   -0.76911E-04 20592   0.132E-01    0.104E-01
DAV:   7    -0.102242621417E+03   -0.19838E-04   -0.82874E-05 10240   0.719E-02
  16 F= -.10224262E+03 E0= -.10224266E+03  d E =-.110960E+00
       N       E                     dE             d eps       ncg     rms          rms(c)
DAV:   1    -0.102288687955E+03   -0.46086E-01   -0.78306E+00 15096   0.133E+01    0.140E+00
DAV:   2    -0.102315640074E+03   -0.26952E-01   -0.45311E-01 20448   0.383E+00    0.897E-01
DAV:   3    -0.102314589931E+03    0.10501E-02   -0.25967E-02 24184   0.964E-01    0.401E-01
DAV:   4    -0.102314182319E+03    0.40761E-03   -0.67107E-03 23200   0.580E-01    0.307E-01
DAV:   5    -0.102313778157E+03    0.40416E-03   -0.29987E-03 21960   0.346E-01    0.165E-01
DAV:   6    -0.102313788572E+03   -0.10415E-04   -0.48462E-04 18440   0.135E-01
  17 F= -.10231379E+03 E0= -.10231387E+03  d E =-.711672E-01
       N       E                     dE             d eps       ncg     rms          rms(c)
DAV:   1    -0.102279612312E+03    0.34166E-01   -0.25573E+01 14936   0.241E+01    0.264E+00
DAV:   2    -0.102369685682E+03   -0.90073E-01   -0.15077E+00 21064   0.695E+00    0.164E+00
DAV:   3    -0.102366260182E+03    0.34255E-02   -0.80746E-02 24688   0.166E+00    0.722E-01
DAV:   4    -0.102365312391E+03    0.94779E-03   -0.19379E-02 22976   0.964E-01    0.558E-01
DAV:   5    -0.102364069219E+03    0.12432E-02   -0.95295E-03 22624   0.616E-01    0.301E-01
DAV:   6    -0.102364132614E+03   -0.63395E-04   -0.17209E-03 23576   0.246E-01    0.153E-01
DAV:   7    -0.102364204715E+03   -0.72101E-04   -0.22027E-04 12904   0.970E-02
  18 F= -.10236420E+03 E0= -.10236435E+03  d E =-.121583E+00
       N       E                     dE             d eps       ncg     rms          rms(c)
DAV:   1    -0.102366134272E+03   -0.20017E-02   -0.97769E+00 14424   0.161E+01    0.139E+00
DAV:   2    -0.102427106896E+03   -0.60973E-01   -0.79775E-01 16912   0.457E+00    0.759E-01
DAV:   3    -0.102427765735E+03   -0.65884E-03   -0.34540E-02 23616   0.936E-01    0.452E-01
DAV:   4    -0.102427500549E+03    0.26519E-03   -0.55101E-03 24056   0.501E-01    0.311E-01
DAV:   5    -0.102427100382E+03    0.40017E-03   -0.28673E-03 21352   0.352E-01    0.108E-01
DAV:   6    -0.102427119658E+03   -0.19276E-04   -0.49738E-04 18656   0.131E-01
  19 F= -.10242712E+03 E0= -.10242726E+03  d E =-.629149E-01
       N       E                     dE             d eps       ncg     rms          rms(c)
DAV:   1    -0.102224789252E+03    0.20231E+00   -0.39167E+01 14336   0.323E+01    0.291E+00
DAV:   2    -0.102471137741E+03   -0.24635E+00   -0.32172E+00 16896   0.920E+00    0.155E+00
DAV:   3    -0.102474085991E+03   -0.29483E-02   -0.13541E-01 24016   0.178E+00    0.915E-01
DAV:   4    -0.102472971263E+03    0.11147E-02   -0.18864E-02 23624   0.914E-01    0.593E-01
DAV:   5    -0.102471744380E+03    0.12269E-02   -0.10900E-02 21464   0.669E-01    0.227E-01
DAV:   6    -0.102471719718E+03    0.24662E-04   -0.19798E-03 20760   0.275E-01    0.995E-02
DAV:   7    -0.102471715305E+03    0.44130E-05   -0.20176E-04 12232   0.101E-01
  20 F= -.10247172E+03 E0= -.10247185E+03  d E =-.107511E+00
       N       E                     dE             d eps       ncg     rms          rms(c)
DAV:   1    -0.102473158422E+03   -0.14387E-02   -0.15767E+01 15360   0.195E+01    0.169E+00
DAV:   2    -0.102544320000E+03   -0.71162E-01   -0.98998E-01 18752   0.532E+00    0.829E-01
DAV:   3    -0.102545388016E+03   -0.10680E-02   -0.40801E-02 25864   0.893E-01    0.527E-01
DAV:   4    -0.102544921691E+03    0.46633E-03   -0.48688E-03 21056   0.441E-01    0.242E-01
DAV:   5    -0.102544851058E+03    0.70633E-04   -0.27464E-03 23552   0.354E-01    0.122E-01
DAV:   6    -0.102544802229E+03    0.48829E-04   -0.45228E-04 16680   0.144E-01
  21 F= -.10254480E+03 E0= -.10254475E+03  d E =-.730869E-01
       N       E                     dE             d eps       ncg     rms          rms(c)
DAV:   1    -0.102502063681E+03    0.42787E-01   -0.15580E+01 15248   0.194E+01    0.166E+00
DAV:   2    -0.102572595708E+03   -0.70532E-01   -0.97721E-01 18544   0.528E+00    0.824E-01
DAV:   3    -0.102573155573E+03   -0.55987E-03   -0.40753E-02 25888   0.883E-01    0.531E-01
DAV:   4    -0.102572631319E+03    0.52425E-03   -0.44376E-03 20512   0.406E-01    0.217E-01
DAV:   5    -0.102572682045E+03   -0.50726E-04   -0.23143E-03 23552   0.324E-01    0.122E-01
DAV:   6    -0.102572612733E+03    0.69312E-04   -0.46148E-04 15824   0.150E-01
  22 F= -.10257261E+03 E0= -.10257274E+03  d E =-.100897E+00
       N       E                     dE             d eps       ncg     rms          rms(c)
DAV:   1    -0.102592777646E+03   -0.20096E-01   -0.59856E+00 14936   0.134E+01    0.113E+00
DAV:   2    -0.102637309622E+03   -0.44532E-01   -0.54080E-01 16632   0.370E+00    0.706E-01
DAV:   3    -0.102637435897E+03   -0.12627E-03   -0.18745E-02 22440   0.685E-01    0.398E-01
DAV:   4    -0.102637283043E+03    0.15285E-03   -0.40664E-03 23888   0.410E-01    0.271E-01
DAV:   5    -0.102637023829E+03    0.25921E-03   -0.21197E-03 21352   0.310E-01    0.788E-02
DAV:   6    -0.102637026026E+03   -0.21973E-05   -0.23522E-04 13472   0.994E-02
  23 F= -.10263703E+03 E0= -.10263715E+03  d E =-.644133E-01
       N       E                     dE             d eps       ncg     rms          rms(c)
DAV:   1    -0.102608976372E+03    0.28047E-01   -0.69328E+00 14984   0.144E+01    0.121E+00
DAV:   2    -0.102660591624E+03   -0.51615E-01   -0.62937E-01 16664   0.398E+00    0.755E-01
DAV:   3    -0.102660788977E+03   -0.19735E-03   -0.21997E-02 22512   0.747E-01    0.429E-01
DAV:   4    -0.102660641067E+03    0.14791E-03   -0.48314E-03 24064   0.450E-01    0.299E-01
DAV:   5    -0.102660323403E+03    0.31766E-03   -0.25483E-03 21376   0.340E-01    0.861E-02
DAV:   6    -0.102660329336E+03   -0.59336E-05   -0.30490E-04 15304   0.108E-01
  24 F= -.10266033E+03 E0= -.10266045E+03  d E =-.877166E-01
       N       E                     dE             d eps       ncg     rms          rms(c)
DAV:   1    -0.102693955867E+03   -0.33632E-01   -0.35959E+00 15160   0.997E+00    0.106E+00
DAV:   2    -0.102710638450E+03   -0.16683E-01   -0.27293E-01 18432   0.288E+00    0.741E-01
DAV:   3    -0.102710238433E+03    0.40002E-03   -0.13986E-02 22352   0.746E-01    0.354E-01
DAV:   4    -0.102709987083E+03    0.25135E-03   -0.34267E-03 24344   0.376E-01    0.261E-01
DAV:   5    -0.102709744950E+03    0.24213E-03   -0.16536E-03 21704   0.284E-01    0.136E-01
DAV:   6    -0.102709753289E+03   -0.83395E-05   -0.24920E-04 13712   0.101E-01
  25 F= -.10270975E+03 E0= -.10270985E+03  d E =-.494240E-01
       N       E                     dE             d eps       ncg     rms          rms(c)
DAV:   1    -0.102680567365E+03    0.29178E-01   -0.15218E+01 15336   0.205E+01    0.225E+00
DAV:   2    -0.102751323990E+03   -0.70757E-01   -0.11638E+00 18472   0.590E+00    0.154E+00
DAV:   3    -0.102749405662E+03    0.19183E-02   -0.58036E-02 22488   0.155E+00    0.733E-01
DAV:   4    -0.102748667181E+03    0.73848E-03   -0.15082E-02 24464   0.769E-01    0.537E-01
DAV:   5    -0.102747803739E+03    0.86344E-03   -0.65650E-03 21568   0.590E-01    0.286E-01
DAV:   6    -0.102747871375E+03   -0.67636E-04   -0.14012E-03 24416   0.205E-01    0.186E-01
DAV:   7    -0.102747930514E+03   -0.59139E-04   -0.22252E-04 13576   0.954E-02
  26 F= -.10274793E+03 E0= -.10274793E+03  d E =-.876012E-01
       N       E                     dE             d eps       ncg     rms          rms(c)
DAV:   1    -0.102759108457E+03   -0.11237E-01   -0.57730E+00 15288   0.131E+01    0.136E+00
DAV:   2    -0.102794367212E+03   -0.35259E-01   -0.53660E-01 17792   0.383E+00    0.948E-01
DAV:   3    -0.102792348727E+03    0.20185E-02   -0.30553E-02 21912   0.130E+00    0.419E-01
DAV:   4    -0.102791459833E+03    0.88889E-03   -0.64426E-03 22856   0.521E-01    0.344E-01
DAV:   5    -0.102791117147E+03    0.34269E-03   -0.27109E-03 23408   0.341E-01    0.132E-01
DAV:   6    -0.102791146540E+03   -0.29393E-04   -0.34149E-04 16248   0.111E-01
  27 F= -.10279115E+03 E0= -.10279118E+03  d E =-.432160E-01
       N       E                     dE             d eps       ncg     rms          rms(c)
DAV:   1    -0.102784123623E+03    0.69935E-02   -0.27249E+00 15360   0.904E+00    0.920E-01
DAV:   2    -0.102800988999E+03   -0.16865E-01   -0.25369E-01 17680   0.263E+00    0.649E-01
DAV:   3    -0.102800195443E+03    0.79356E-03   -0.13997E-02 22016   0.862E-01    0.288E-01
DAV:   4    -0.102799802379E+03    0.39306E-03   -0.29546E-03 22432   0.367E-01    0.240E-01
DAV:   5    -0.102799641947E+03    0.16043E-03   -0.13576E-03 23568   0.244E-01    0.905E-02
DAV:   6    -0.102799654496E+03   -0.12549E-04   -0.13965E-04 10936   0.778E-02
  28 F= -.10279965E+03 E0= -.10279969E+03  d E =-.517240E-01
       N       E                     dE             d eps       ncg     rms          rms(c)
DAV:   1    -0.102808116543E+03   -0.84746E-02   -0.54470E+00 15360   0.130E+01    0.115E+00
DAV:   2    -0.102843479198E+03   -0.35363E-01   -0.50404E-01 16488   0.346E+00    0.722E-01
DAV:   3    -0.102842532171E+03    0.94703E-03   -0.16634E-02 22184   0.602E-01    0.509E-01
DAV:   4    -0.102841608184E+03    0.92399E-03   -0.38317E-03 21056   0.345E-01    0.169E-01
DAV:   5    -0.102841633441E+03   -0.25257E-04   -0.16898E-03 22080   0.282E-01    0.828E-02
DAV:   6    -0.102841572660E+03    0.60781E-04   -0.29962E-04 14424   0.132E-01
  29 F= -.10284157E+03 E0= -.10284161E+03  d E =-.419182E-01
       N       E                     dE             d eps       ncg     rms          rms(c)
DAV:   1    -0.102836564136E+03    0.50693E-02   -0.19277E+00 15680   0.772E+00    0.681E-01
DAV:   2    -0.102849112059E+03   -0.12548E-01   -0.17860E-01 16576   0.204E+00    0.426E-01
DAV:   3    -0.102848802842E+03    0.30922E-03   -0.59191E-03 22344   0.359E-01    0.297E-01
DAV:   4    -0.102848494252E+03    0.30859E-03   -0.13835E-03 20344   0.213E-01    0.104E-01
DAV:   5    -0.102848491404E+03    0.28477E-05   -0.64081E-04 19128   0.179E-01
  30 F= -.10284849E+03 E0= -.10284854E+03  d E =-.488369E-01
       N       E                     dE             d eps       ncg     rms          rms(c)
DAV:   1    -0.102837304416E+03    0.11190E-01   -0.42696E+00 16384   0.122E+01    0.111E+00
DAV:   2    -0.102875264813E+03   -0.37960E-01   -0.48459E-01 15184   0.314E+00    0.572E-01
DAV:   3    -0.102875037361E+03    0.22745E-03   -0.14054E-02 21432   0.651E-01    0.318E-01
DAV:   4    -0.102874733147E+03    0.30421E-03   -0.34826E-03 22952   0.432E-01    0.255E-01
DAV:   5    -0.102874418762E+03    0.31438E-03   -0.21271E-03 22416   0.299E-01    0.835E-02
DAV:   6    -0.102874428392E+03   -0.96299E-05   -0.23394E-04 13640   0.878E-02
  31 F= -.10287443E+03 E0= -.10287443E+03  d E =-.259370E-01
       N       E                     dE             d eps       ncg     rms          rms(c)
DAV:   1    -0.102871273715E+03    0.31450E-02   -0.58749E-01 16416   0.452E+00    0.396E-01
DAV:   2    -0.102876532084E+03   -0.52584E-02   -0.67499E-02 15968   0.117E+00    0.218E-01
DAV:   3    -0.102876515519E+03    0.16565E-04   -0.19106E-03 21032   0.236E-01    0.124E-01
DAV:   4    -0.102876472688E+03    0.42830E-04   -0.41012E-04 15016   0.158E-01
  32 F= -.10287647E+03 E0= -.10287646E+03  d E =-.279813E-01
       N       E                     dE             d eps       ncg     rms          rms(c)
DAV:   1    -0.102875596433E+03    0.91909E-03   -0.39370E+00 15360   0.108E+01    0.936E-01
DAV:   2    -0.102901692344E+03   -0.26096E-01   -0.34013E-01 16160   0.284E+00    0.475E-01
DAV:   3    -0.102901351363E+03    0.34098E-03   -0.11545E-02 20712   0.609E-01    0.326E-01
DAV:   4    -0.102901052927E+03    0.29844E-03   -0.29862E-03 22616   0.376E-01    0.199E-01
DAV:   5    -0.102900849646E+03    0.20328E-03   -0.15570E-03 22096   0.276E-01    0.535E-02
DAV:   6    -0.102900839923E+03    0.97236E-05   -0.20840E-04 12184   0.977E-02
  33 F= -.10290084E+03 E0= -.10290084E+03  d E =-.243672E-01
       N       E                     dE             d eps       ncg     rms          rms(c)
DAV:   1    -0.102897276474E+03    0.35732E-02   -0.10788E+00 15360   0.567E+00    0.481E-01
DAV:   2    -0.102904487153E+03   -0.72107E-02   -0.93887E-02 16424   0.149E+00    0.247E-01
DAV:   3    -0.102904418833E+03    0.68320E-04   -0.31006E-03 20728   0.306E-01    0.172E-01
DAV:   4    -0.102904342429E+03    0.76403E-04   -0.73416E-04 19752   0.190E-01
  34 F= -.10290434E+03 E0= -.10290434E+03  d E =-.278697E-01
       N       E                     dE             d eps       ncg     rms          rms(c)
DAV:   1    -0.102919955295E+03   -0.15536E-01   -0.34665E+00 16336   0.929E+00    0.969E-01
DAV:   2    -0.102927835730E+03   -0.78804E-02   -0.19381E-01 16872   0.233E+00    0.493E-01
DAV:   3    -0.102926183284E+03    0.16524E-02   -0.10101E-02 23312   0.511E-01    0.266E-01
DAV:   4    -0.102925657854E+03    0.52543E-03   -0.27521E-03 21776   0.365E-01    0.183E-01
DAV:   5    -0.102925461900E+03    0.19595E-03   -0.12724E-03 21008   0.249E-01    0.102E-01
DAV:   6    -0.102925456029E+03    0.58706E-05   -0.13429E-04 10248   0.884E-02
  35 F= -.10292546E+03 E0= -.10292548E+03  d E =-.211136E-01
       N       E                     dE             d eps       ncg     rms          rms(c)
DAV:   1    -0.102924774873E+03    0.68703E-03   -0.20827E+00 16256   0.718E+00    0.730E-01
DAV:   2    -0.102929488476E+03   -0.47136E-02   -0.11575E-01 16800   0.179E+00    0.375E-01
DAV:   3    -0.102928488050E+03    0.10004E-02   -0.59231E-03 23272   0.385E-01    0.206E-01
DAV:   4    -0.102928187140E+03    0.30091E-03   -0.15924E-03 21624   0.274E-01    0.139E-01
DAV:   5    -0.102928079449E+03    0.10769E-03   -0.73486E-04 18872   0.191E-01    0.800E-02
DAV:   6    -0.102928075617E+03    0.38323E-05   -0.91141E-05 10240   0.748E-02
  36 F= -.10292808E+03 E0= -.10292814E+03  d E =-.237332E-01
       N       E                     dE             d eps       ncg     rms          rms(c)
DAV:   1    -0.102929677860E+03   -0.15984E-02   -0.28347E+00 15360   0.899E+00    0.792E-01
DAV:   2    -0.102942939204E+03   -0.13261E-01   -0.21742E-01 16256   0.238E+00    0.535E-01
DAV:   3    -0.102942091363E+03    0.84784E-03   -0.82259E-03 20648   0.476E-01    0.283E-01
DAV:   4    -0.102941465430E+03    0.62593E-03   -0.16265E-03 23640   0.251E-01    0.149E-01
DAV:   5    -0.102941438273E+03    0.27157E-04   -0.59294E-04 18408   0.154E-01
  37 F= -.10294144E+03 E0= -.10294144E+03  d E =-.133627E-01
       N       E                     dE             d eps       ncg     rms          rms(c)
DAV:   1    -0.102938655679E+03    0.28098E-02   -0.10636E+00 15360   0.552E+00    0.485E-01
DAV:   2    -0.102943682605E+03   -0.50269E-02   -0.82263E-02 16312   0.146E+00    0.337E-01
DAV:   3    -0.102943402828E+03    0.27978E-03   -0.32212E-03 20720   0.302E-01    0.176E-01
DAV:   4    -0.102943181868E+03    0.22096E-03   -0.63174E-04 18760   0.164E-01    0.104E-01
DAV:   5    -0.102943158695E+03    0.23174E-04   -0.35912E-04 15568   0.141E-01
  38 F= -.10294316E+03 E0= -.10294382E+03  d E =-.150831E-01
       N       E                     dE             d eps       ncg     rms          rms(c)
DAV:   1    -0.102943122517E+03    0.59352E-04   -0.12569E+00 16384   0.661E+00    0.555E-01
DAV:   2    -0.102955238205E+03   -0.12116E-01   -0.15039E-01 15600   0.169E+00    0.282E-01
DAV:   3    -0.102955154221E+03    0.83985E-04   -0.43417E-03 21776   0.364E-01    0.179E-01
DAV:   4    -0.102955053819E+03    0.10040E-03   -0.94215E-04 19992   0.225E-01    0.119E-01
DAV:   5    -0.102954981724E+03    0.72095E-04   -0.56057E-04 19240   0.160E-01
  39 F= -.10295498E+03 E0= -.10295572E+03  d E =-.118230E-01
       N       E                     dE             d eps       ncg     rms          rms(c)
DAV:   1    -0.102947667500E+03    0.73863E-02   -0.11180E+00 16384   0.625E+00    0.518E-01
DAV:   2    -0.102958504915E+03   -0.10837E-01   -0.13492E-01 15664   0.160E+00    0.274E-01
DAV:   3    -0.102958459321E+03    0.45594E-04   -0.39756E-03 21776   0.348E-01    0.170E-01
DAV:   4    -0.102958378540E+03    0.80782E-04   -0.86868E-04 19984   0.216E-01
  40 F= -.10295838E+03 E0= -.10295915E+03  d E =-.152198E-01
       N       E                     dE             d eps       ncg     rms          rms(c)
DAV:   1    -0.102963236200E+03   -0.47769E-02   -0.85313E-01 15368   0.484E+00    0.453E-01
DAV:   2    -0.102967361151E+03   -0.41250E-02   -0.59262E-02 17464   0.131E+00    0.247E-01
DAV:   3    -0.102967257657E+03    0.10349E-03   -0.23951E-03 22672   0.257E-01    0.158E-01
DAV:   4    -0.102967191356E+03    0.66301E-04   -0.47106E-04 16584   0.161E-01
  41 F= -.10296719E+03 E0= -.10296795E+03  d E =-.881282E-02
       N       E                     dE             d eps       ncg     rms          rms(c)
DAV:   1    -0.102965606491E+03    0.16512E-02   -0.10056E+00 15336   0.525E+00    0.493E-01
DAV:   2    -0.102970302128E+03   -0.46956E-02   -0.69311E-02 17632   0.141E+00    0.270E-01
DAV:   3    -0.102970189000E+03    0.11313E-03   -0.28473E-03 22680   0.290E-01    0.176E-01
DAV:   4    -0.102970130026E+03    0.58974E-04   -0.68294E-04 19592   0.189E-01
  42 F= -.10297013E+03 E0= -.10297087E+03  d E =-.117515E-01
       N       E                     dE             d eps       ncg     rms          rms(c)
DAV:   1    -0.102971783302E+03   -0.15943E-02   -0.81113E-01 16384   0.507E+00    0.399E-01
DAV:   2    -0.102978193354E+03   -0.64101E-02   -0.82792E-02 16072   0.135E+00    0.289E-01
DAV:   3    -0.102977393372E+03    0.79998E-03   -0.37525E-03 21328   0.408E-01    0.161E-01
DAV:   4    -0.102978044733E+03   -0.65136E-03   -0.64221E-04 18712   0.187E-01    0.137E-01
DAV:   5    -0.102977255839E+03    0.78889E-03   -0.42626E-04 17528   0.132E-01    0.311E-02
DAV:   6    -0.102977255324E+03    0.51448E-06   -0.58725E-05 10240   0.526E-02
  43 F= -.10297726E+03 E0= -.10297793E+03  d E =-.712530E-02
       N       E                     dE             d eps       ncg     rms          rms(c)
DAV:   1    -0.102976230325E+03    0.10255E-02   -0.39905E-01 16392   0.355E+00    0.276E-01
DAV:   2    -0.102979380145E+03   -0.31498E-02   -0.40609E-02 16280   0.938E-01    0.193E-01
DAV:   3    -0.102979360884E+03    0.19261E-04   -0.16608E-03 20128   0.263E-01    0.108E-01
DAV:   4    -0.102979322052E+03    0.38832E-04   -0.28758E-04 13728   0.132E-01
  44 F= -.10297932E+03 E0= -.10297932E+03  d E =-.919203E-02
       N       E                     dE             d eps       ncg     rms          rms(c)
DAV:   1    -0.102984732872E+03   -0.53720E-02   -0.63995E-01 15576   0.403E+00    0.362E-01
DAV:   2    -0.102986139950E+03   -0.14071E-02   -0.38686E-02 17016   0.107E+00    0.244E-01
DAV:   3    -0.102985938111E+03    0.20184E-03   -0.23541E-03 22456   0.338E-01    0.127E-01
DAV:   4    -0.102985798085E+03    0.14003E-03   -0.66031E-04 18368   0.190E-01    0.776E-02
DAV:   5    -0.102985745719E+03    0.52366E-04   -0.21052E-04 10416   0.115E-01
  45 F= -.10298575E+03 E0= -.10298637E+03  d E =-.642367E-02
       N       E                     dE             d eps       ncg     rms          rms(c)
DAV:   1    -0.102985144403E+03    0.65368E-03   -0.19113E+00 15392   0.695E+00    0.626E-01
DAV:   2    -0.102991333926E+03   -0.61895E-02   -0.11727E-01 17824   0.190E+00    0.462E-01
DAV:   3    -0.102990655962E+03    0.67796E-03   -0.76987E-03 21680   0.644E-01    0.225E-01
DAV:   4    -0.102990194977E+03    0.46099E-03   -0.21283E-03 21696   0.332E-01    0.146E-01
DAV:   5    -0.102990051445E+03    0.14353E-03   -0.80469E-04 19784   0.192E-01    0.401E-02
DAV:   6    -0.102990054650E+03   -0.32051E-05   -0.83715E-05 10240   0.620E-02
  46 F= -.10299005E+03 E0= -.10299067E+03  d E =-.107326E-01
       N       E                     dE             d eps       ncg     rms          rms(c)
DAV:   1    -0.102991427663E+03   -0.13762E-02   -0.78294E-01 16376   0.475E+00    0.369E-01
DAV:   2    -0.102996339320E+03   -0.49117E-02   -0.64718E-02 16720   0.121E+00    0.215E-01
DAV:   3    -0.102996326117E+03    0.13203E-04   -0.23013E-03 22568   0.230E-01    0.128E-01
DAV:   4    -0.102996261419E+03    0.64698E-04   -0.46205E-04 16648   0.142E-01
  47 F= -.10299626E+03 E0= -.10299685E+03  d E =-.620677E-02
       N       E                     dE             d eps       ncg     rms          rms(c)
DAV:   1    -0.102992200140E+03    0.41260E-02   -0.10251E+00 16392   0.545E+00    0.425E-01
DAV:   2    -0.102998502410E+03   -0.63023E-02   -0.84721E-02 16768   0.138E+00    0.251E-01
DAV:   3    -0.102998497269E+03    0.51403E-05   -0.31747E-03 22864   0.279E-01    0.149E-01
DAV:   4    -0.102998431440E+03    0.65830E-04   -0.68334E-04 18632   0.183E-01
  48 F= -.10299843E+03 E0= -.10299898E+03  d E =-.837679E-02
       N       E                     dE             d eps       ncg     rms          rms(c)
DAV:   1    -0.103001332195E+03   -0.28349E-02   -0.46449E-01 16248   0.360E+00    0.291E-01
DAV:   2    -0.103003505630E+03   -0.21734E-02   -0.32450E-02 17448   0.910E-01    0.168E-01
DAV:   3    -0.103003422611E+03    0.83020E-04   -0.12492E-03 21304   0.165E-01    0.101E-01
DAV:   4    -0.103003368618E+03    0.53993E-04   -0.24180E-04 13528   0.116E-01
  49 F= -.10300337E+03 E0= -.10300391E+03  d E =-.493718E-02
       N       E                     dE             d eps       ncg     rms          rms(c)
DAV:   1    -0.102998166901E+03    0.52557E-02   -0.21237E+00 16040   0.769E+00    0.606E-01
DAV:   2    -0.103008073561E+03   -0.99067E-02   -0.14787E-01 17456   0.195E+00    0.344E-01
DAV:   3    -0.103007021799E+03    0.10518E-02   -0.56313E-03 22056   0.337E-01    0.213E-01
DAV:   4    -0.103006724461E+03    0.29734E-03   -0.82913E-04 19784   0.162E-01    0.575E-02
DAV:   5    -0.103006729239E+03   -0.47779E-05   -0.13375E-04 10944   0.754E-02
  50 F= -.10300673E+03 E0= -.10300725E+03  d E =-.829780E-02
       N       E                     dE             d eps       ncg     rms          rms(c)
DAV:   1    -0.103009392614E+03   -0.26682E-02   -0.50995E-01 15056   0.361E+00    0.383E-01
DAV:   2    -0.103010895496E+03   -0.15029E-02   -0.30679E-02 18272   0.967E-01    0.170E-01
DAV:   3    -0.103010721386E+03    0.17411E-03   -0.14883E-03 22360   0.203E-01    0.110E-01
DAV:   4    -0.103010654544E+03    0.66842E-04   -0.32881E-04 14704   0.139E-01
  51 F= -.10301065E+03 E0= -.10301117E+03  d E =-.392531E-02
       N       E                     dE             d eps       ncg     rms          rms(c)
DAV:   1    -0.103009442215E+03    0.12792E-02   -0.10756E+00 15184   0.526E+00    0.541E-01
DAV:   2    -0.103012517357E+03   -0.30751E-02   -0.64319E-02 18120   0.139E+00    0.250E-01
DAV:   3    -0.103012157049E+03    0.36031E-03   -0.31455E-03 22712   0.300E-01    0.167E-01
DAV:   4    -0.103012032078E+03    0.12497E-03   -0.84532E-04 19800   0.207E-01    0.905E-02
DAV:   5    -0.103011956049E+03    0.76028E-04   -0.39517E-04 14176   0.160E-01
  52 F= -.10301196E+03 E0= -.10301245E+03  d E =-.522681E-02
       N       E                     dE             d eps       ncg     rms          rms(c)
DAV:   1    -0.103012999177E+03   -0.96710E-03   -0.24372E-01 16416   0.279E+00    0.297E-01
DAV:   2    -0.103014481036E+03   -0.14819E-02   -0.24093E-02 17448   0.771E-01    0.170E-01
DAV:   3    -0.103014385164E+03    0.95872E-04   -0.13823E-03 19920   0.269E-01    0.907E-02
DAV:   4    -0.103014316557E+03    0.68606E-04   -0.29327E-04 13984   0.132E-01
  53 F= -.10301432E+03 E0= -.10301480E+03  d E =-.236051E-02
       N       E                     dE             d eps       ncg     rms          rms(c)
DAV:   1    -0.103012733336E+03    0.16518E-02   -0.42937E-01 16384   0.371E+00    0.399E-01
DAV:   2    -0.103015288323E+03   -0.25550E-02   -0.42207E-02 17056   0.999E-01    0.204E-01
DAV:   3    -0.103015146320E+03    0.14200E-03   -0.21589E-03 22184   0.321E-01    0.122E-01
DAV:   4    -0.103015043077E+03    0.10324E-03   -0.50510E-04 17328   0.166E-01    0.874E-02
DAV:   5    -0.103015005059E+03    0.38018E-04   -0.20379E-04 10576   0.108E-01
  54 F= -.10301501E+03 E0= -.10301549E+03  d E =-.304901E-02
       N       E                     dE             d eps       ncg     rms          rms(c)
DAV:   1    -0.103016127096E+03   -0.10840E-02   -0.20407E-01 15904   0.244E+00    0.224E-01
DAV:   2    -0.103017261405E+03   -0.11343E-02   -0.16768E-02 17000   0.633E-01    0.113E-01
DAV:   3    -0.103017213299E+03    0.48106E-04   -0.57569E-04 20080   0.122E-01
  55 F= -.10301721E+03 E0= -.10301769E+03  d E =-.220824E-02
       N       E                     dE             d eps       ncg     rms          rms(c)
DAV:   1    -0.103015140140E+03    0.21213E-02   -0.63692E-01 15456   0.431E+00    0.399E-01
DAV:   2    -0.103018613348E+03   -0.34732E-02   -0.52853E-02 16968   0.114E+00    0.214E-01
DAV:   3    -0.103018457717E+03    0.15563E-03   -0.20162E-03 22384   0.228E-01    0.123E-01
DAV:   4    -0.103018396650E+03    0.61067E-04   -0.51901E-04 16736   0.173E-01
  56 F= -.10301840E+03 E0= -.10301887E+03  d E =-.339159E-02
       N       E                     dE             d eps       ncg     rms          rms(c)
DAV:   1    -0.103018652552E+03   -0.19483E-03   -0.22857E-01 15400   0.277E+00    0.342E-01
DAV:   2    -0.103020226142E+03   -0.15736E-02   -0.27616E-02 16184   0.776E-01    0.132E-01
DAV:   3    -0.103020149686E+03    0.76455E-04   -0.11629E-03 19496   0.177E-01    0.817E-02
DAV:   4    -0.103020101939E+03    0.47747E-04   -0.19915E-04 12832   0.104E-01
  57 F= -.10302010E+03 E0= -.10302058E+03  d E =-.170529E-02
       N       E                     dE             d eps       ncg     rms          rms(c)
DAV:   1    -0.103019841229E+03    0.30846E-03   -0.64590E-02 15592   0.148E+00    0.182E-01
DAV:   2    -0.103020263836E+03   -0.42261E-03   -0.78340E-03 16368   0.409E-01    0.728E-02
DAV:   3    -0.103020243389E+03    0.20447E-04   -0.31904E-04 17352   0.926E-02
  58 F= -.10302024E+03 E0= -.10302073E+03  d E =-.184674E-02
       N       E                     dE             d eps       ncg     rms          rms(c)
DAV:   1    -0.103022207634E+03   -0.19438E-02   -0.15520E-01 14360   0.191E+00    0.342E-01
DAV:   2    -0.103022041425E+03    0.16621E-03   -0.87127E-03 18168   0.556E-01    0.123E-01
DAV:   3    -0.103021919030E+03    0.12240E-03   -0.52245E-04 17456   0.122E-01    0.730E-02
DAV:   4    -0.103021876518E+03    0.42512E-04   -0.12956E-04 10240   0.824E-02
  59 F= -.10302188E+03 E0= -.10302236E+03  d E =-.163313E-02
       N       E                     dE             d eps       ncg     rms          rms(c)
DAV:   1    -0.103022523853E+03   -0.60482E-03   -0.13464E-01 14376   0.179E+00    0.303E-01
DAV:   2    -0.103022403330E+03    0.12052E-03   -0.75121E-03 18200   0.517E-01    0.112E-01
DAV:   3    -0.103022310314E+03    0.93016E-04   -0.52434E-04 17416   0.141E-01
  60 F= -.10302231E+03 E0= -.10302280E+03  d E =-.206692E-02
