  23  23   1   0
  0.7763898E+01  0.5670025E-09  0.5818048E-09  0.5605490E-09  0.5000000E-15
  1.000000000000000E-004
  CAR 
 unknown system                          
     10.89833460    -37.86613875  301     -1.53660610      1.00000000
    -37.866  0.0000E+00  0.0000E+00  0.0000E+00  0.0000E+00
    -37.704  0.0000E+00  0.0000E+00  0.0000E+00  0.0000E+00
    -37.541  0.0000E+00  0.0000E+00  0.0000E+00  0.0000E+00
    -37.378  0.0000E+00  0.0000E+00  0.0000E+00  0.0000E+00
    -37.216  0.0000E+00  0.0000E+00  0.0000E+00  0.0000E+00
    -37.053  0.0000E+00  0.0000E+00  0.0000E+00  0.0000E+00
    -36.891  0.0000E+00  0.0000E+00  0.0000E+00  0.0000E+00
    -36.728  0.0000E+00  0.0000E+00  0.0000E+00  0.0000E+00
    -36.566  0.0000E+00  0.0000E+00  0.0000E+00  0.0000E+00
    -36.403  0.0000E+00  0.0000E+00  0.0000E+00  0.0000E+00
    -36.241  0.0000E+00  0.0000E+00  0.0000E+00  0.0000E+00
    -36.078  0.0000E+00  0.0000E+00  0.0000E+00  0.0000E+00
    -35.916  0.0000E+00  0.0000E+00  0.0000E+00  0.0000E+00
    -35.753  0.0000E+00  0.0000E+00  0.0000E+00  0.0000E+00
    -35.590  0.0000E+00  0.0000E+00  0.1010E-01  0.1010E-01
    -35.428  0.0000E+00  0.0000E+00  0.1010E-01  0.1010E-01
    -35.265  0.0000E+00  0.0000E+00  0.1010E-01  0.1010E-01
    -35.103  0.0000E+00  0.0000E+00  0.1010E-01  0.1010E-01
    -34.940  0.0000E+00  0.0000E+00  0.1010E-01  0.1010E-01
    -34.778  0.0000E+00  0.0000E+00  0.1010E-01  0.1010E-01
    -34.615  0.0000E+00  0.0000E+00  0.1010E-01  0.1010E-01
    -34.453  0.0000E+00  0.0000E+00  0.1010E-01  0.1010E-01
    -34.290  0.0000E+00  0.0000E+00  0.1010E-01  0.1010E-01
    -34.128  0.0000E+00  0.0000E+00  0.1010E-01  0.1010E-01
    -33.965  0.0000E+00  0.0000E+00  0.1010E-01  0.1010E-01
    -33.802  0.0000E+00  0.0000E+00  0.1010E-01  0.1010E-01
    -33.640  0.0000E+00  0.0000E+00  0.1010E-01  0.1010E-01
    -33.477  0.0000E+00  0.0000E+00  0.1010E-01  0.1010E-01
    -33.315  0.0000E+00  0.0000E+00  0.1010E-01  0.1010E-01
    -33.152  0.0000E+00  0.0000E+00  0.1010E-01  0.1010E-01
    -32.990  0.0000E+00  0.0000E+00  0.1010E-01  0.1010E-01
    -32.827  0.0000E+00  0.0000E+00  0.1010E-01  0.1010E-01
    -32.665  0.0000E+00  0.0000E+00  0.1010E-01  0.1010E-01
    -32.502  0.0000E+00  0.0000E+00  0.1010E-01  0.1010E-01
    -32.339  0.0000E+00  0.0000E+00  0.1010E-01  0.1010E-01
    -32.177  0.0000E+00  0.0000E+00  0.1010E-01  0.1010E-01
    -32.014  0.0000E+00  0.0000E+00  0.1010E-01  0.1010E-01
    -31.852  0.0000E+00  0.0000E+00  0.1010E-01  0.1010E-01
    -31.689  0.0000E+00  0.0000E+00  0.1010E-01  0.1010E-01
    -31.527  0.0000E+00  0.0000E+00  0.1010E-01  0.1010E-01
    -31.364  0.0000E+00  0.0000E+00  0.1010E-01  0.1010E-01
    -31.202  0.0000E+00  0.0000E+00  0.2020E-01  0.2020E-01
    -31.039  0.0000E+00  0.0000E+00  0.2020E-01  0.2020E-01
    -30.877  0.0000E+00  0.0000E+00  0.2020E-01  0.2020E-01
    -30.714  0.0000E+00  0.0000E+00  0.4040E-01  0.4040E-01
    -30.551  0.0000E+00  0.0000E+00  0.6061E-01  0.6061E-01
    -30.389  0.0000E+00  0.0000E+00  0.7071E-01  0.7071E-01
    -30.226  0.0000E+00  0.0000E+00  0.7071E-01  0.7071E-01
    -30.064  0.0000E+00  0.0000E+00  0.7071E-01  0.7071E-01
    -29.901  0.0000E+00  0.0000E+00  0.7071E-01  0.7071E-01
    -29.739  0.0000E+00  0.0000E+00  0.7071E-01  0.7071E-01
    -29.576  0.0000E+00  0.0000E+00  0.7071E-01  0.7071E-01
    -29.414  0.0000E+00  0.0000E+00  0.7071E-01  0.7071E-01
    -29.251  0.0000E+00  0.0000E+00  0.7071E-01  0.7071E-01
    -29.089  0.0000E+00  0.0000E+00  0.7071E-01  0.7071E-01
    -28.926  0.0000E+00  0.0000E+00  0.7071E-01  0.7071E-01
    -28.763  0.0000E+00  0.0000E+00  0.7071E-01  0.7071E-01
    -28.601  0.0000E+00  0.0000E+00  0.7071E-01  0.7071E-01
    -28.438  0.0000E+00  0.0000E+00  0.7071E-01  0.7071E-01
    -28.276  0.0000E+00  0.0000E+00  0.7071E-01  0.7071E-01
    -28.113  0.0000E+00  0.0000E+00  0.7071E-01  0.7071E-01
    -27.951  0.0000E+00  0.0000E+00  0.7071E-01  0.7071E-01
    -27.788  0.0000E+00  0.0000E+00  0.7071E-01  0.7071E-01
    -27.626  0.0000E+00  0.0000E+00  0.7071E-01  0.7071E-01
    -27.463  0.0000E+00  0.0000E+00  0.7071E-01  0.7071E-01
    -27.301  0.0000E+00  0.0000E+00  0.7071E-01  0.7071E-01
    -27.138  0.0000E+00  0.0000E+00  0.7071E-01  0.7071E-01
    -26.975  0.0000E+00  0.0000E+00  0.7071E-01  0.7071E-01
    -26.813  0.0000E+00  0.0000E+00  0.7071E-01  0.7071E-01
    -26.650  0.0000E+00  0.0000E+00  0.7071E-01  0.7071E-01
    -26.488  0.0000E+00  0.0000E+00  0.7071E-01  0.7071E-01
    -26.325  0.0000E+00  0.0000E+00  0.7071E-01  0.7071E-01
    -26.163  0.0000E+00  0.0000E+00  0.7071E-01  0.7071E-01
    -26.000  0.0000E+00  0.0000E+00  0.7071E-01  0.7071E-01
    -25.838  0.0000E+00  0.0000E+00  0.7071E-01  0.7071E-01
    -25.675  0.0000E+00  0.0000E+00  0.7071E-01  0.7071E-01
    -25.512  0.0000E+00  0.0000E+00  0.7071E-01  0.7071E-01
    -25.350  0.0000E+00  0.0000E+00  0.7071E-01  0.7071E-01
    -25.187  0.0000E+00  0.0000E+00  0.7071E-01  0.7071E-01
    -25.025  0.0000E+00  0.0000E+00  0.7071E-01  0.7071E-01
    -24.862  0.0000E+00  0.0000E+00  0.7071E-01  0.7071E-01
    -24.700  0.0000E+00  0.0000E+00  0.7071E-01  0.7071E-01
    -24.537  0.0000E+00  0.0000E+00  0.7071E-01  0.7071E-01
    -24.375  0.0000E+00  0.0000E+00  0.7071E-01  0.7071E-01
    -24.212  0.0000E+00  0.0000E+00  0.7071E-01  0.7071E-01
    -24.050  0.0000E+00  0.0000E+00  0.7071E-01  0.7071E-01
    -23.887  0.0000E+00  0.0000E+00  0.7071E-01  0.7071E-01
    -23.724  0.0000E+00  0.0000E+00  0.7071E-01  0.7071E-01
    -23.562  0.0000E+00  0.0000E+00  0.7071E-01  0.7071E-01
    -23.399  0.0000E+00  0.0000E+00  0.7071E-01  0.7071E-01
    -23.237  0.0000E+00  0.0000E+00  0.7071E-01  0.7071E-01
    -23.074  0.0000E+00  0.0000E+00  0.7071E-01  0.7071E-01
    -22.912  0.0000E+00  0.0000E+00  0.7071E-01  0.7071E-01
    -22.749  0.0000E+00  0.0000E+00  0.7071E-01  0.7071E-01
    -22.587  0.0000E+00  0.0000E+00  0.7071E-01  0.7071E-01
    -22.424  0.0000E+00  0.0000E+00  0.7071E-01  0.7071E-01
    -22.262  0.0000E+00  0.0000E+00  0.7071E-01  0.7071E-01
    -22.099  0.0000E+00  0.0000E+00  0.7071E-01  0.7071E-01
    -21.936  0.0000E+00  0.0000E+00  0.7071E-01  0.7071E-01
    -21.774  0.0000E+00  0.0000E+00  0.7071E-01  0.7071E-01
    -21.611  0.0000E+00  0.0000E+00  0.7071E-01  0.7071E-01
    -21.449  0.0000E+00  0.0000E+00  0.7071E-01  0.7071E-01
    -21.286  0.0000E+00  0.0000E+00  0.7071E-01  0.7071E-01
    -21.124  0.0000E+00  0.0000E+00  0.7071E-01  0.7071E-01
    -20.961  0.0000E+00  0.0000E+00  0.7071E-01  0.7071E-01
    -20.799  0.0000E+00  0.0000E+00  0.7071E-01  0.7071E-01
    -20.636  0.0000E+00  0.0000E+00  0.7071E-01  0.7071E-01
    -20.473  0.0000E+00  0.0000E+00  0.7071E-01  0.7071E-01
    -20.311  0.0000E+00  0.0000E+00  0.7071E-01  0.7071E-01
    -20.148  0.0000E+00  0.0000E+00  0.7071E-01  0.7071E-01
    -19.986  0.0000E+00  0.0000E+00  0.7071E-01  0.7071E-01
    -19.823  0.0000E+00  0.0000E+00  0.7071E-01  0.7071E-01
    -19.661  0.0000E+00  0.0000E+00  0.7071E-01  0.7071E-01
    -19.498  0.0000E+00  0.0000E+00  0.7071E-01  0.7071E-01
    -19.336  0.0000E+00  0.0000E+00  0.7071E-01  0.7071E-01
    -19.173  0.0000E+00  0.0000E+00  0.7071E-01  0.7071E-01
    -19.011  0.0000E+00  0.0000E+00  0.7071E-01  0.7071E-01
    -18.848  0.0000E+00  0.0000E+00  0.7071E-01  0.7071E-01
    -18.685  0.0000E+00  0.0000E+00  0.7071E-01  0.7071E-01
    -18.523  0.0000E+00  0.0000E+00  0.7071E-01  0.7071E-01
    -18.360  0.0000E+00  0.0000E+00  0.7071E-01  0.7071E-01
    -18.198  0.0000E+00  0.0000E+00  0.7071E-01  0.7071E-01
    -18.035  0.0000E+00  0.0000E+00  0.7071E-01  0.7071E-01
    -17.873  0.0000E+00  0.0000E+00  0.7071E-01  0.7071E-01
    -17.710  0.0000E+00  0.0000E+00  0.7071E-01  0.7071E-01
    -17.548  0.0000E+00  0.0000E+00  0.1010E+00  0.1010E+00
    -17.385  0.0000E+00  0.0000E+00  0.1010E+00  0.1010E+00
    -17.223  0.0000E+00  0.0000E+00  0.1010E+00  0.1010E+00
    -17.060  0.0000E+00  0.0000E+00  0.1010E+00  0.1010E+00
    -16.897  0.0000E+00  0.0000E+00  0.1010E+00  0.1010E+00
    -16.735  0.0000E+00  0.0000E+00  0.1010E+00  0.1010E+00
    -16.572  0.0000E+00  0.0000E+00  0.1010E+00  0.1010E+00
    -16.410  0.0000E+00  0.0000E+00  0.1010E+00  0.1010E+00
    -16.247  0.0000E+00  0.0000E+00  0.1010E+00  0.1010E+00
    -16.085  0.0000E+00  0.0000E+00  0.1010E+00  0.1010E+00
    -15.922  0.0000E+00  0.0000E+00  0.1010E+00  0.1010E+00
    -15.760  0.0000E+00  0.0000E+00  0.1010E+00  0.1010E+00
    -15.597  0.0000E+00  0.0000E+00  0.1010E+00  0.1010E+00
    -15.434  0.0000E+00  0.0000E+00  0.1010E+00  0.1010E+00
    -15.272  0.0000E+00  0.0000E+00  0.1010E+00  0.1010E+00
    -15.109  0.0000E+00  0.0000E+00  0.1010E+00  0.1010E+00
    -14.947  0.0000E+00  0.0000E+00  0.1010E+00  0.1010E+00
    -14.784  0.0000E+00  0.0000E+00  0.1010E+00  0.1010E+00
    -14.622  0.0000E+00  0.0000E+00  0.1010E+00  0.1010E+00
    -14.459  0.0000E+00  0.0000E+00  0.1010E+00  0.1010E+00
    -14.297  0.0000E+00  0.0000E+00  0.1010E+00  0.1010E+00
    -14.134  0.0000E+00  0.0000E+00  0.1010E+00  0.1010E+00
    -13.972  0.0000E+00  0.0000E+00  0.1010E+00  0.1010E+00
    -13.809  0.0000E+00  0.0000E+00  0.1010E+00  0.1010E+00
    -13.646  0.0000E+00  0.0000E+00  0.1010E+00  0.1010E+00
    -13.484  0.0000E+00  0.0000E+00  0.1010E+00  0.1010E+00
    -13.321  0.0000E+00  0.0000E+00  0.1010E+00  0.1010E+00
    -13.159  0.0000E+00  0.0000E+00  0.1010E+00  0.1010E+00
    -12.996  0.0000E+00  0.0000E+00  0.1010E+00  0.1010E+00
    -12.834  0.0000E+00  0.0000E+00  0.1010E+00  0.1010E+00
    -12.671  0.0000E+00  0.0000E+00  0.1010E+00  0.1010E+00
    -12.509  0.0000E+00  0.0000E+00  0.1010E+00  0.1010E+00
    -12.346  0.0000E+00  0.0000E+00  0.1010E+00  0.1010E+00
    -12.184  0.0000E+00  0.0000E+00  0.1010E+00  0.1010E+00
    -12.021  0.0000E+00  0.0000E+00  0.1010E+00  0.1010E+00
    -11.858  0.0000E+00  0.0000E+00  0.1010E+00  0.1010E+00
    -11.696  0.0000E+00  0.0000E+00  0.1010E+00  0.1010E+00
    -11.533  0.0000E+00  0.0000E+00  0.1010E+00  0.1010E+00
    -11.371  0.0000E+00  0.0000E+00  0.1010E+00  0.1010E+00
    -11.208  0.0000E+00  0.0000E+00  0.1010E+00  0.1010E+00
    -11.046  0.0000E+00  0.0000E+00  0.1010E+00  0.1010E+00
    -10.883  0.0000E+00  0.0000E+00  0.1010E+00  0.1010E+00
    -10.721  0.0000E+00  0.0000E+00  0.1010E+00  0.1010E+00
    -10.558  0.0000E+00  0.0000E+00  0.1010E+00  0.1010E+00
    -10.395  0.0000E+00  0.0000E+00  0.1010E+00  0.1010E+00
    -10.233  0.0000E+00  0.0000E+00  0.1010E+00  0.1010E+00
    -10.070  0.0000E+00  0.0000E+00  0.1010E+00  0.1010E+00
     -9.908  0.0000E+00  0.0000E+00  0.1010E+00  0.1010E+00
     -9.745  0.0000E+00  0.0000E+00  0.1010E+00  0.1010E+00
     -9.583  0.0000E+00  0.0000E+00  0.1010E+00  0.1010E+00
     -9.420  0.0000E+00  0.0000E+00  0.1010E+00  0.1010E+00
     -9.258  0.6361E-02  0.6361E-02  0.1012E+00  0.1012E+00
     -9.095  0.2006E-01  0.2006E-01  0.1032E+00  0.1032E+00
     -8.933  0.4576E-01  0.4576E-01  0.1089E+00  0.1089E+00
     -8.770  0.0000E+00  0.0000E+00  0.1111E+00  0.1111E+00
     -8.607  0.0000E+00  0.0000E+00  0.1111E+00  0.1111E+00
     -8.445  0.0000E+00  0.0000E+00  0.1111E+00  0.1111E+00
     -8.282  0.9126E-02  0.9126E-02  0.1114E+00  0.1114E+00
     -8.120  0.1888E-01  0.1888E-01  0.1137E+00  0.1137E+00
     -7.957  0.2693E-01  0.2693E-01  0.1182E+00  0.1182E+00
     -7.795  0.6744E-02  0.6744E-02  0.1211E+00  0.1211E+00
     -7.632  0.0000E+00  0.0000E+00  0.1212E+00  0.1212E+00
     -7.470  0.0000E+00  0.0000E+00  0.1212E+00  0.1212E+00
     -7.307  0.3656E-02  0.3656E-02  0.1212E+00  0.1212E+00
     -7.145  0.2902E-01  0.2902E-01  0.1244E+00  0.1244E+00
     -6.982  0.4007E-02  0.4007E-02  0.1313E+00  0.1313E+00
     -6.819  0.0000E+00  0.0000E+00  0.1313E+00  0.1313E+00
     -6.657  0.8713E-03  0.8713E-03  0.1313E+00  0.1313E+00
     -6.494  0.2349E-01  0.2349E-01  0.1355E+00  0.1355E+00
     -6.332  0.0000E+00  0.0000E+00  0.1414E+00  0.1414E+00
     -6.169  0.0000E+00  0.0000E+00  0.1414E+00  0.1414E+00
     -6.007  0.0000E+00  0.0000E+00  0.1414E+00  0.1414E+00
     -5.844  0.8774E-02  0.8774E-02  0.1415E+00  0.1415E+00
     -5.682  0.6816E-01  0.6816E-01  0.1491E+00  0.1491E+00
     -5.519  0.0000E+00  0.0000E+00  0.1515E+00  0.1515E+00
     -5.356  0.0000E+00  0.0000E+00  0.1515E+00  0.1515E+00
     -5.194  0.0000E+00  0.0000E+00  0.1515E+00  0.1515E+00
     -5.031  0.0000E+00  0.0000E+00  0.1515E+00  0.1515E+00
     -4.869  0.6391E-02  0.6391E-02  0.1516E+00  0.1516E+00
     -4.706  0.2716E-01  0.2716E-01  0.1561E+00  0.1561E+00
     -4.544  0.1518E-03  0.1518E-03  0.1616E+00  0.1616E+00
     -4.381  0.4425E-01  0.4425E-01  0.1648E+00  0.1648E+00
     -4.219  0.3070E-01  0.3070E-01  0.1706E+00  0.1706E+00
     -4.056  0.2978E-02  0.2978E-02  0.1717E+00  0.1717E+00
     -3.894  0.4941E-01  0.4941E-01  0.1784E+00  0.1784E+00
     -3.731  0.9018E-01  0.9018E-01  0.1865E+00  0.1865E+00
     -3.568  0.5591E-01  0.5591E-01  0.1938E+00  0.1938E+00
     -3.406  0.9605E-02  0.9605E-02  0.2019E+00  0.2019E+00
     -3.243  0.4428E-02  0.4428E-02  0.2021E+00  0.2021E+00
     -3.081  0.6483E-01  0.6483E-01  0.2078E+00  0.2078E+00
     -2.918  0.1589E-01  0.1589E-01  0.2122E+00  0.2122E+00
     -2.756  0.2543E-01  0.2543E-01  0.2214E+00  0.2214E+00
     -2.593  0.1292E-01  0.1292E-01  0.2224E+00  0.2224E+00
     -2.431  0.2403E-01  0.2403E-01  0.2317E+00  0.2317E+00
     -2.268  0.8450E-01  0.8450E-01  0.2374E+00  0.2374E+00
     -2.106  0.0000E+00  0.0000E+00  0.2424E+00  0.2424E+00
     -1.943  0.8106E-01  0.8106E-01  0.2476E+00  0.2476E+00
     -1.780  0.3739E-01  0.3739E-01  0.2548E+00  0.2548E+00
     -1.618  0.1094E-01  0.1094E-01  0.2625E+00  0.2625E+00
     -1.455  0.0000E+00  0.0000E+00  0.2626E+00  0.2626E+00
     -1.293  0.0000E+00  0.0000E+00  0.2626E+00  0.2626E+00
     -1.130  0.0000E+00  0.0000E+00  0.2626E+00  0.2626E+00
     -0.968  0.0000E+00  0.0000E+00  0.2626E+00  0.2626E+00
     -0.805  0.0000E+00  0.0000E+00  0.2626E+00  0.2626E+00
     -0.643  0.0000E+00  0.0000E+00  0.2626E+00  0.2626E+00
     -0.480  0.0000E+00  0.0000E+00  0.2626E+00  0.2626E+00
     -0.317  0.0000E+00  0.0000E+00  0.2626E+00  0.2626E+00
     -0.155  0.0000E+00  0.0000E+00  0.2626E+00  0.2626E+00
      0.008  0.0000E+00  0.0000E+00  0.2626E+00  0.2626E+00
      0.170  0.0000E+00  0.0000E+00  0.2626E+00  0.2626E+00
      0.333  0.0000E+00  0.0000E+00  0.2626E+00  0.2626E+00
      0.495  0.0000E+00  0.0000E+00  0.2626E+00  0.2626E+00
      0.658  0.0000E+00  0.0000E+00  0.2626E+00  0.2626E+00
      0.820  0.0000E+00  0.0000E+00  0.2626E+00  0.2626E+00
      0.983  0.0000E+00  0.0000E+00  0.2626E+00  0.2626E+00
      1.145  0.0000E+00  0.0000E+00  0.2626E+00  0.2626E+00
      1.308  0.0000E+00  0.0000E+00  0.2626E+00  0.2626E+00
      1.471  0.1198E-01  0.1198E-01  0.2630E+00  0.2630E+00
      1.633  0.3156E-01  0.3156E-01  0.2686E+00  0.2686E+00
      1.796  0.2213E-01  0.2213E-01  0.2738E+00  0.2738E+00
      1.958  0.3534E-01  0.3534E-01  0.2776E+00  0.2776E+00
      2.121  0.0000E+00  0.0000E+00  0.2828E+00  0.2828E+00
      2.283  0.0000E+00  0.0000E+00  0.2828E+00  0.2828E+00
      2.446  0.3890E-01  0.3890E-01  0.2845E+00  0.2845E+00
      2.608  0.2797E-01  0.2797E-01  0.2921E+00  0.2921E+00
      2.771  0.6580E-02  0.6580E-02  0.2930E+00  0.2930E+00
      2.933  0.3858E-01  0.3858E-01  0.2986E+00  0.2986E+00
      3.096  0.1191E-01  0.1191E-01  0.3019E+00  0.3019E+00
      3.259  0.3013E-02  0.3013E-02  0.3031E+00  0.3031E+00
      3.421  0.3414E-01  0.3414E-01  0.3119E+00  0.3119E+00
      3.584  0.6650E-01  0.6650E-01  0.3153E+00  0.3153E+00
      3.746  0.2182E-01  0.2182E-01  0.3233E+00  0.3233E+00
      3.909  0.5016E-01  0.5016E-01  0.3282E+00  0.3282E+00
      4.071  0.4519E-01  0.4519E-01  0.3347E+00  0.3347E+00
      4.234  0.3369E-01  0.3369E-01  0.3408E+00  0.3408E+00
      4.396  0.2913E-01  0.2913E-01  0.3451E+00  0.3451E+00
      4.559  0.2683E-01  0.2683E-01  0.3529E+00  0.3529E+00
      4.722  0.6430E-01  0.6430E-01  0.3586E+00  0.3586E+00
      4.884  0.1432E-02  0.1432E-02  0.3637E+00  0.3637E+00
      5.047  0.3815E-01  0.3815E-01  0.3684E+00  0.3684E+00
      5.209  0.3491E-01  0.3491E-01  0.3732E+00  0.3732E+00
      5.372  0.3166E-01  0.3166E-01  0.3810E+00  0.3810E+00
      5.534  0.4115E-01  0.4115E-01  0.3865E+00  0.3865E+00
      5.697  0.2621E-01  0.2621E-01  0.3927E+00  0.3927E+00
      5.859  0.5306E-01  0.5306E-01  0.3979E+00  0.3979E+00
      6.022  0.2605E-01  0.2605E-01  0.4051E+00  0.4051E+00
      6.184  0.5455E-01  0.5454E-01  0.4118E+00  0.4118E+00
      6.347  0.8895E-01  0.8895E-01  0.4170E+00  0.4170E+00
      6.510  0.1296E-01  0.1296E-01  0.4241E+00  0.4241E+00
      6.672  0.4449E-01  0.4449E-01  0.4282E+00  0.4282E+00
      6.835  0.1322E-01  0.1322E-01  0.4340E+00  0.4340E+00
      6.997  0.4226E-01  0.4226E-01  0.4371E+00  0.4371E+00
      7.160  0.2617E-01  0.2617E-01  0.4439E+00  0.4439E+00
      7.322  0.2719E-01  0.2719E-01  0.4465E+00  0.4465E+00
      7.485  0.3612E-01  0.3612E-01  0.4533E+00  0.4533E+00
      7.647  0.2111E-01  0.2111E-01  0.4555E+00  0.4555E+00
      7.810  0.3833E-01  0.3833E-01  0.4610E+00  0.4610E+00
      7.972  0.1650E-01  0.1650E-01  0.4655E+00  0.4655E+00
      8.135  0.3914E-01  0.3914E-01  0.4695E+00  0.4695E+00
      8.298  0.1686E-01  0.1686E-01  0.4742E+00  0.4742E+00
      8.460  0.3352E-01  0.3349E-01  0.4761E+00  0.4761E+00
      8.623  0.2068E-01  0.2068E-01  0.4841E+00  0.4841E+00
      8.785  0.0000E+00  0.0000E+00  0.4848E+00  0.4848E+00
      8.948  0.0000E+00  0.0000E+00  0.4848E+00  0.4848E+00
      9.110  0.0000E+00  0.0000E+00  0.4848E+00  0.4848E+00
      9.273  0.0000E+00  0.0000E+00  0.4848E+00  0.4848E+00
      9.435  0.0000E+00  0.0000E+00  0.4848E+00  0.4848E+00
      9.598  0.0000E+00  0.0000E+00  0.4848E+00  0.4848E+00
      9.760  0.0000E+00  0.0000E+00  0.4848E+00  0.4848E+00
      9.923  0.0000E+00  0.0000E+00  0.4848E+00  0.4848E+00
     10.086  0.0000E+00  0.0000E+00  0.4848E+00  0.4848E+00
     10.248  0.0000E+00  0.0000E+00  0.4848E+00  0.4848E+00
     10.411  0.0000E+00  0.0000E+00  0.4848E+00  0.4848E+00
     10.573  0.0000E+00  0.0000E+00  0.4848E+00  0.4848E+00
     10.736  0.0000E+00  0.0000E+00  0.4848E+00  0.4848E+00
     10.898  0.0000E+00  0.0000E+00  0.4848E+00  0.4848E+00
     10.89833460    -37.86613875  301     -1.53660610      1.00000000
    -37.866  0.0000E+00  0.0000E+00  0.0000E+00  0.0000E+00  0.0000E+00  0.0000E+00  0.0000E+00  0.0000E+00  0.0000E+00  0.0000E+00  0.0000E+00  0.0000E+00  0.0000E+00  0.0000E+00  0.0000E+00  0.0000E+00  0.0000E+00  0.0000E+00
    -37.704  0.0000E+00  0.0000E+00  0.0000E+00  0.0000E+00  0.0000E+00  0.0000E+00  0.0000E+00  0.0000E+00  0.0000E+00  0.0000E+00  0.0000E+00  0.0000E+00  0.0000E+00  0.0000E+00  0.0000E+00  0.0000E+00  0.0000E+00  0.0000E+00
    -37.541  0.0000E+00  0.0000E+00  0.0000E+00  0.0000E+00  0.0000E+00  0.0000E+00  0.0000E+00  0.0000E+00  0.0000E+00  0.0000E+00  0.0000E+00  0.0000E+00  0.0000E+00  0.0000E+00  0.0000E+00  0.0000E+00  0.0000E+00  0.0000E+00
    -37.378  0.0000E+00  0.0000E+00  0.0000E+00  0.0000E+00  0.0000E+00  0.0000E+00  0.0000E+00  0.0000E+00  0.0000E+00  0.0000E+00  0.0000E+00  0.0000E+00  0.0000E+00  0.0000E+00  0.0000E+00  0.0000E+00  0.0000E+00  0.0000E+00
    -37.216  0.0000E+00  0.0000E+00  0.0000E+00  0.0000E+00  0.0000E+00  0.0000E+00  0.0000E+00  0.0000E+00  0.0000E+00  0.0000E+00  0.0000E+00  0.0000E+00  0.0000E+00  0.0000E+00  0.0000E+00  0.0000E+00  0.0000E+00  0.0000E+00
    -37.053  0.0000E+00  0.0000E+00  0.0000E+00  0.0000E+00  0.0000E+00  0.0000E+00  0.0000E+00  0.0000E+00  0.0000E+00  0.0000E+00  0.0000E+00  0.0000E+00  0.0000E+00  0.0000E+00  0.0000E+00  0.0000E+00  0.0000E+00  0.0000E+00
    -36.891  0.0000E+00  0.0000E+00  0.0000E+00  0.0000E+00  0.0000E+00  0.0000E+00  0.0000E+00  0.0000E+00  0.0000E+00  0.0000E+00  0.0000E+00  0.0000E+00  0.0000E+00  0.0000E+00  0.0000E+00  0.0000E+00  0.0000E+00  0.0000E+00
    -36.728  0.0000E+00  0.0000E+00  0.0000E+00  0.0000E+00  0.0000E+00  0.0000E+00  0.0000E+00  0.0000E+00  0.0000E+00  0.0000E+00  0.0000E+00  0.0000E+00  0.0000E+00  0.0000E+00  0.0000E+00  0.0000E+00  0.0000E+00  0.0000E+00
    -36.566  0.0000E+00  0.0000E+00  0.0000E+00  0.0000E+00  0.0000E+00  0.0000E+00  0.0000E+00  0.0000E+00  0.0000E+00  0.0000E+00  0.0000E+00  0.0000E+00  0.0000E+00  0.0000E+00  0.0000E+00  0.0000E+00  0.0000E+00  0.0000E+00
    -36.403  0.0000E+00  0.0000E+00  0.0000E+00  0.0000E+00  0.0000E+00  0.0000E+00  0.0000E+00  0.0000E+00  0.0000E+00  0.0000E+00  0.0000E+00  0.0000E+00  0.0000E+00  0.0000E+00  0.0000E+00  0.0000E+00  0.0000E+00  0.0000E+00
    -36.241  0.0000E+00  0.0000E+00  0.0000E+00  0.0000E+00  0.0000E+00  0.0000E+00  0.0000E+00  0.0000E+00  0.0000E+00  0.0000E+00  0.0000E+00  0.0000E+00  0.0000E+00  0.0000E+00  0.0000E+00  0.0000E+00  0.0000E+00  0.0000E+00
    -36.078  0.0000E+00  0.0000E+00  0.0000E+00  0.0000E+00  0.0000E+00  0.0000E+00  0.0000E+00  0.0000E+00  0.0000E+00  0.0000E+00  0.0000E+00  0.0000E+00  0.0000E+00  0.0000E+00  0.0000E+00  0.0000E+00  0.0000E+00  0.0000E+00
    -35.916  0.0000E+00  0.0000E+00  0.0000E+00  0.0000E+00  0.0000E+00  0.0000E+00  0.0000E+00  0.0000E+00  0.0000E+00  0.0000E+00  0.0000E+00  0.0000E+00  0.0000E+00  0.0000E+00  0.0000E+00  0.0000E+00  0.0000E+00  0.0000E+00
    -35.753  0.0000E+00  0.0000E+00  0.0000E+00  0.0000E+00  0.0000E+00  0.0000E+00  0.0000E+00  0.0000E+00  0.0000E+00  0.0000E+00  0.0000E+00  0.0000E+00  0.0000E+00  0.0000E+00  0.0000E+00  0.0000E+00  0.0000E+00  0.0000E+00
    -35.590  0.0000E+00  0.0000E+00  0.0000E+00  0.0000E+00  0.0000E+00  0.0000E+00  0.0000E+00  0.0000E+00  0.0000E+00  0.0000E+00  0.0000E+00  0.0000E+00  0.0000E+00  0.0000E+00  0.0000E+00  0.0000E+00  0.0000E+00  0.0000E+00
    -35.428  0.0000E+00  0.0000E+00  0.0000E+00  0.0000E+00  0.0000E+00  0.0000E+00  0.0000E+00  0.0000E+00  0.0000E+00  0.0000E+00  0.0000E+00  0.0000E+00  0.0000E+00  0.0000E+00  0.0000E+00  0.0000E+00  0.0000E+00  0.0000E+00
    -35.265  0.0000E+00  0.0000E+00  0.0000E+00  0.0000E+00  0.0000E+00  0.0000E+00  0.0000E+00  0.0000E+00  0.0000E+00  0.0000E+00  0.0000E+00  0.0000E+00  0.0000E+00  0.0000E+00  0.0000E+00  0.0000E+00  0.0000E+00  0.0000E+00
    -35.103  0.0000E+00  0.0000E+00  0.0000E+00  0.0000E+00  0.0000E+00  0.0000E+00  0.0000E+00  0.0000E+00  0.0000E+00  0.0000E+00  0.0000E+00  0.0000E+00  0.0000E+00  0.0000E+00  0.0000E+00  0.0000E+00  0.0000E+00  0.0000E+00
    -34.940  0.0000E+00  0.0000E+00  0.0000E+00  0.0000E+00  0.0000E+00  0.0000E+00  0.0000E+00  0.0000E+00  0.0000E+00  0.0000E+00  0.0000E+00  0.0000E+00  0.0000E+00  0.0000E+00  0.0000E+00  0.0000E+00  0.0000E+00  0.0000E+00
    -34.778  0.0000E+00  0.0000E+00  0.0000E+00  0.0000E+00  0.0000E+00  0.0000E+00  0.0000E+00  0.0000E+00  0.0000E+00  0.0000E+00  0.0000E+00  0.0000E+00  0.0000E+00  0.0000E+00  0.0000E+00  0.0000E+00  0.0000E+00  0.0000E+00
    -34.615  0.0000E+00  0.0000E+00  0.0000E+00  0.0000E+00  0.0000E+00  0.0000E+00  0.0000E+00  0.0000E+00  0.0000E+00  0.0000E+00  0.0000E+00  0.0000E+00  0.0000E+00  0.0000E+00  0.0000E+00  0.0000E+00  0.0000E+00  0.0000E+00
    -34.453  0.0000E+00  0.0000E+00  0.0000E+00  0.0000E+00  0.0000E+00  0.0000E+00  0.0000E+00  0.0000E+00  0.0000E+00  0.0000E+00  0.0000E+00  0.0000E+00  0.0000E+00  0.0000E+00  0.0000E+00  0.0000E+00  0.0000E+00  0.0000E+00
    -34.290  0.0000E+00  0.0000E+00  0.0000E+00  0.0000E+00  0.0000E+00  0.0000E+00  0.0000E+00  0.0000E+00  0.0000E+00  0.0000E+00  0.0000E+00  0.0000E+00  0.0000E+00  0.0000E+00  0.0000E+00  0.0000E+00  0.0000E+00  0.0000E+00
    -34.128  0.0000E+00  0.0000E+00  0.0000E+00  0.0000E+00  0.0000E+00  0.0000E+00  0.0000E+00  0.0000E+00  0.0000E+00  0.0000E+00  0.0000E+00  0.0000E+00  0.0000E+00  0.0000E+00  0.0000E+00  0.0000E+00  0.0000E+00  0.0000E+00
    -33.965  0.0000E+00  0.0000E+00  0.0000E+00  0.0000E+00  0.0000E+00  0.0000E+00  0.0000E+00  0.0000E+00  0.0000E+00  0.0000E+00  0.0000E+00  0.0000E+00  0.0000E+00  0.0000E+00  0.0000E+00  0.0000E+00  0.0000E+00  0.0000E+00
    -33.802  0.0000E+00  0.0000E+00  0.0000E+00  0.0000E+00  0.0000E+00  0.0000E+00  0.0000E+00  0.0000E+00  0.0000E+00  0.0000E+00  0.0000E+00  0.0000E+00  0.0000E+00  0.0000E+00  0.0000E+00  0.0000E+00  0.0000E+00  0.0000E+00
    -33.640  0.0000E+00  0.0000E+00  0.0000E+00  0.0000E+00  0.0000E+00  0.0000E+00  0.0000E+00  0.0000E+00  0.0000E+00  0.0000E+00  0.0000E+00  0.0000E+00  0.0000E+00  0.0000E+00  0.0000E+00  0.0000E+00  0.0000E+00  0.0000E+00
    -33.477  0.0000E+00  0.0000E+00  0.0000E+00  0.0000E+00  0.0000E+00  0.0000E+00  0.0000E+00  0.0000E+00  0.0000E+00  0.0000E+00  0.0000E+00  0.0000E+00  0.0000E+00  0.0000E+00  0.0000E+00  0.0000E+00  0.0000E+00  0.0000E+00
    -33.315  0.0000E+00  0.0000E+00  0.0000E+00  0.0000E+00  0.0000E+00  0.0000E+00  0.0000E+00  0.0000E+00  0.0000E+00  0.0000E+00  0.0000E+00  0.0000E+00  0.0000E+00  0.0000E+00  0.0000E+00  0.0000E+00  0.0000E+00  0.0000E+00
    -33.152  0.0000E+00  0.0000E+00  0.0000E+00  0.0000E+00  0.0000E+00  0.0000E+00  0.0000E+00  0.0000E+00  0.0000E+00  0.0000E+00  0.0000E+00  0.0000E+00  0.0000E+00  0.0000E+00  0.0000E+00  0.0000E+00  0.0000E+00  0.0000E+00
    -32.990  0.0000E+00  0.0000E+00  0.0000E+00  0.0000E+00  0.0000E+00  0.0000E+00  0.0000E+00  0.0000E+00  0.0000E+00  0.0000E+00  0.0000E+00  0.0000E+00  0.0000E+00  0.0000E+00  0.0000E+00  0.0000E+00  0.0000E+00  0.0000E+00
    -32.827  0.0000E+00  0.0000E+00  0.0000E+00  0.0000E+00  0.0000E+00  0.0000E+00  0.0000E+00  0.0000E+00  0.0000E+00  0.0000E+00  0.0000E+00  0.0000E+00  0.0000E+00  0.0000E+00  0.0000E+00  0.0000E+00  0.0000E+00  0.0000E+00
    -32.665  0.0000E+00  0.0000E+00  0.0000E+00  0.0000E+00  0.0000E+00  0.0000E+00  0.0000E+00  0.0000E+00  0.0000E+00  0.0000E+00  0.0000E+00  0.0000E+00  0.0000E+00  0.0000E+00  0.0000E+00  0.0000E+00  0.0000E+00  0.0000E+00
    -32.502  0.0000E+00  0.0000E+00  0.0000E+00  0.0000E+00  0.0000E+00  0.0000E+00  0.0000E+00  0.0000E+00  0.0000E+00  0.0000E+00  0.0000E+00  0.0000E+00  0.0000E+00  0.0000E+00  0.0000E+00  0.0000E+00  0.0000E+00  0.0000E+00
    -32.339  0.0000E+00  0.0000E+00  0.0000E+00  0.0000E+00  0.0000E+00  0.0000E+00  0.0000E+00  0.0000E+00  0.0000E+00  0.0000E+00  0.0000E+00  0.0000E+00  0.0000E+00  0.0000E+00  0.0000E+00  0.0000E+00  0.0000E+00  0.0000E+00
    -32.177  0.0000E+00  0.0000E+00  0.0000E+00  0.0000E+00  0.0000E+00  0.0000E+00  0.0000E+00  0.0000E+00  0.0000E+00  0.0000E+00  0.0000E+00  0.0000E+00  0.0000E+00  0.0000E+00  0.0000E+00  0.0000E+00  0.0000E+00  0.0000E+00
    -32.014  0.0000E+00  0.0000E+00  0.0000E+00  0.0000E+00  0.0000E+00  0.0000E+00  0.0000E+00  0.0000E+00  0.0000E+00  0.0000E+00  0.0000E+00  0.0000E+00  0.0000E+00  0.0000E+00  0.0000E+00  0.0000E+00  0.0000E+00  0.0000E+00
    -31.852  0.0000E+00  0.0000E+00  0.0000E+00  0.0000E+00  0.0000E+00  0.0000E+00  0.0000E+00  0.0000E+00  0.0000E+00  0.0000E+00  0.0000E+00  0.0000E+00  0.0000E+00  0.0000E+00  0.0000E+00  0.0000E+00  0.0000E+00  0.0000E+00
    -31.689  0.0000E+00  0.0000E+00  0.0000E+00  0.0000E+00  0.0000E+00  0.0000E+00  0.0000E+00  0.0000E+00  0.0000E+00  0.0000E+00  0.0000E+00  0.0000E+00  0.0000E+00  0.0000E+00  0.0000E+00  0.0000E+00  0.0000E+00  0.0000E+00
    -31.527  0.0000E+00  0.0000E+00  0.0000E+00  0.0000E+00  0.0000E+00  0.0000E+00  0.0000E+00  0.0000E+00  0.0000E+00  0.0000E+00  0.0000E+00  0.0000E+00  0.0000E+00  0.0000E+00  0.0000E+00  0.0000E+00  0.0000E+00  0.0000E+00
    -31.364  0.0000E+00  0.0000E+00  0.0000E+00  0.0000E+00  0.0000E+00  0.0000E+00  0.0000E+00  0.0000E+00  0.0000E+00  0.0000E+00  0.0000E+00  0.0000E+00  0.0000E+00  0.0000E+00  0.0000E+00  0.0000E+00  0.0000E+00  0.0000E+00
    -31.202  0.0000E+00  0.0000E+00  0.0000E+00  0.0000E+00  0.0000E+00  0.0000E+00  0.0000E+00  0.0000E+00  0.0000E+00  0.0000E+00  0.0000E+00  0.0000E+00  0.0000E+00  0.0000E+00  0.0000E+00  0.0000E+00  0.0000E+00  0.0000E+00
    -31.039  0.0000E+00  0.0000E+00  0.0000E+00  0.0000E+00  0.0000E+00  0.0000E+00  0.0000E+00  0.0000E+00  0.0000E+00  0.0000E+00  0.0000E+00  0.0000E+00  0.0000E+00  0.0000E+00  0.0000E+00  0.0000E+00  0.0000E+00  0.0000E+00
    -30.877  0.0000E+00  0.0000E+00  0.0000E+00  0.0000E+00  0.0000E+00  0.0000E+00  0.0000E+00  0.0000E+00  0.0000E+00  0.0000E+00  0.0000E+00  0.0000E+00  0.0000E+00  0.0000E+00  0.0000E+00  0.0000E+00  0.0000E+00  0.0000E+00
    -30.714  0.0000E+00  0.0000E+00  0.0000E+00  0.0000E+00  0.0000E+00  0.0000E+00  0.0000E+00  0.0000E+00  0.0000E+00  0.0000E+00  0.0000E+00  0.0000E+00  0.0000E+00  0.0000E+00  0.0000E+00  0.0000E+00  0.0000E+00  0.0000E+00
    -30.551  0.0000E+00  0.0000E+00  0.0000E+00  0.0000E+00  0.0000E+00  0.0000E+00  0.0000E+00  0.0000E+00  0.0000E+00  0.0000E+00  0.0000E+00  0.0000E+00  0.0000E+00  0.0000E+00  0.0000E+00  0.0000E+00  0.0000E+00  0.0000E+00
    -30.389  0.0000E+00  0.0000E+00  0.0000E+00  0.0000E+00  0.0000E+00  0.0000E+00  0.0000E+00  0.0000E+00  0.0000E+00  0.0000E+00  0.0000E+00  0.0000E+00  0.0000E+00  0.0000E+00  0.0000E+00  0.0000E+00  0.0000E+00  0.0000E+00
    -30.226  0.0000E+00  0.0000E+00  0.0000E+00  0.0000E+00  0.0000E+00  0.0000E+00  0.0000E+00  0.0000E+00  0.0000E+00  0.0000E+00  0.0000E+00  0.0000E+00  0.0000E+00  0.0000E+00  0.0000E+00  0.0000E+00  0.0000E+00  0.0000E+00
    -30.064  0.0000E+00  0.0000E+00  0.0000E+00  0.0000E+00  0.0000E+00  0.0000E+00  0.0000E+00  0.0000E+00  0.0000E+00  0.0000E+00  0.0000E+00  0.0000E+00  0.0000E+00  0.0000E+00  0.0000E+00  0.0000E+00  0.0000E+00  0.0000E+00
    -29.901  0.0000E+00  0.0000E+00  0.0000E+00  0.0000E+00  0.0000E+00  0.0000E+00  0.0000E+00  0.0000E+00  0.0000E+00  0.0000E+00  0.0000E+00  0.0000E+00  0.0000E+00  0.0000E+00  0.0000E+00  0.0000E+00  0.0000E+00  0.0000E+00
    -29.739  0.0000E+00  0.0000E+00  0.0000E+00  0.0000E+00  0.0000E+00  0.0000E+00  0.0000E+00  0.0000E+00  0.0000E+00  0.0000E+00  0.0000E+00  0.0000E+00  0.0000E+00  0.0000E+00  0.0000E+00  0.0000E+00  0.0000E+00  0.0000E+00