       N       E                     dE             d eps       ncg     rms          rms(c)
DAV:   1    -0.188677414362E+02   -0.18868E+02   -0.40771E+03 14320   0.376E+02
DAV:   2    -0.543873892459E+02   -0.35520E+02   -0.34379E+02 18436   0.958E+01
DAV:   3    -0.557050479915E+02   -0.13177E+01   -0.13116E+01 17516   0.175E+01
DAV:   4    -0.557082337866E+02   -0.31858E-02   -0.31855E-02 17144   0.102E+00
DAV:   5    -0.557082446981E+02   -0.10912E-04   -0.10911E-04 15888   0.554E-02    0.118E+01
DAV:   6    -0.538496818768E+02    0.18586E+01   -0.51066E-01 16132   0.386E+00    0.670E+00
DAV:   7    -0.529480243501E+02    0.90166E+00   -0.14441E+00 16484   0.644E+00    0.706E-01
DAV:   8    -0.529718042586E+02   -0.23780E-01   -0.12359E-01 15748   0.182E+00    0.459E-01
DAV:   9    -0.529674475766E+02    0.43567E-02   -0.65761E-03 17224   0.457E-01    0.726E-02
DAV:  10    -0.529676485452E+02   -0.20097E-03   -0.12184E-03 16876   0.195E-01    0.228E-02
DAV:  11    -0.529677067838E+02   -0.58239E-04   -0.11365E-04 15196   0.549E-02
   1 F= -.52967707E+02 E0= -.52967642E+02  d E =-.529677E+02
       N       E                     dE             d eps       ncg     rms          rms(c)
DAV:   1    -0.529784931719E+02   -0.10845E-01   -0.21703E-01 15532   0.266E+00    0.211E-01
DAV:   2    -0.529790930145E+02   -0.59984E-03   -0.10043E-02 16804   0.553E-01    0.150E-01
DAV:   3    -0.529789381727E+02    0.15484E-03   -0.39317E-04 17360   0.174E-01    0.278E-02
DAV:   4    -0.529789622320E+02   -0.24059E-04   -0.25974E-04 12832   0.835E-02
   2 F= -.52978962E+02 E0= -.52978901E+02  d E =-.112554E-01
       N       E                     dE             d eps       ncg     rms          rms(c)
DAV:   1    -0.529793129806E+02   -0.37481E-03   -0.95209E-03 15748   0.559E-01    0.448E-02
DAV:   2    -0.529793488540E+02   -0.35873E-04   -0.47071E-04 16656   0.119E-01
   3 F= -.52979349E+02 E0= -.52979288E+02  d E =-.116421E-01
       N       E                     dE             d eps       ncg     rms          rms(c)
DAV:   1    -0.529850305232E+02   -0.57175E-02   -0.20170E-02 15180   0.765E-01    0.646E-02
DAV:   2    -0.529850753557E+02   -0.44833E-04   -0.55397E-04 16968   0.121E-01
   4 F= -.52985075E+02 E0= -.52985013E+02  d E =-.572650E-02
       N       E                     dE             d eps       ncg     rms          rms(c)
DAV:   1    -0.529999725109E+02   -0.14942E-01   -0.18106E-01 15120   0.229E+00    0.187E-01
DAV:   2    -0.530003090952E+02   -0.33658E-03   -0.48255E-03 16980   0.352E-01    0.120E-01
DAV:   3    -0.530003694414E+02   -0.60346E-04   -0.31455E-04 16548   0.108E-01
   5 F= -.53000369E+02 E0= -.53000305E+02  d E =-.210206E-01
       N       E                     dE             d eps       ncg     rms          rms(c)
DAV:   1    -0.530202254684E+02   -0.19916E-01   -0.72678E-01 15124   0.462E+00    0.377E-01
DAV:   2    -0.530217289639E+02   -0.15035E-02   -0.21728E-02 16920   0.744E-01    0.244E-01
DAV:   3    -0.530219411445E+02   -0.21218E-03   -0.12937E-03 16636   0.221E-01    0.480E-02
DAV:   4    -0.530219431075E+02   -0.19630E-05   -0.37416E-04 16132   0.101E-01
   6 F= -.53021943E+02 E0= -.53021874E+02  d E =-.425943E-01
       N       E                     dE             d eps       ncg     rms          rms(c)
DAV:   1    -0.530182933688E+02    0.36478E-02   -0.29570E+00 15120   0.935E+00    0.750E-01
DAV:   2    -0.530237976126E+02   -0.55042E-02   -0.90214E-02 16900   0.151E+00    0.484E-01
DAV:   3    -0.530242891995E+02   -0.49159E-03   -0.52783E-03 16972   0.457E-01    0.971E-02
DAV:   4    -0.530243125745E+02   -0.23375E-04   -0.16126E-03 16432   0.211E-01    0.589E-02
DAV:   5    -0.530243988751E+02   -0.86301E-04   -0.13989E-04 16044   0.690E-02
   7 F= -.53024399E+02 E0= -.53024323E+02  d E =-.450500E-01
       N       E                     dE             d eps       ncg     rms          rms(c)
DAV:   1    -0.530293462107E+02   -0.50336E-02   -0.69129E-01 15104   0.451E+00    0.365E-01
DAV:   2    -0.530304339589E+02   -0.10877E-02   -0.20467E-02 16936   0.725E-01    0.236E-01
DAV:   3    -0.530304885291E+02   -0.54570E-04   -0.12708E-03 16824   0.222E-01    0.473E-02
DAV:   4    -0.530304899164E+02   -0.13873E-05   -0.37739E-04 16104   0.102E-01
   8 F= -.53030490E+02 E0= -.53030417E+02  d E =-.511411E-01
       N       E                     dE             d eps       ncg     rms          rms(c)
DAV:   1    -0.530375227483E+02   -0.70342E-02   -0.73856E-02 15252   0.155E+00    0.119E-01
DAV:   2    -0.530376828530E+02   -0.16010E-03   -0.29152E-03 16828   0.277E-01    0.806E-02
DAV:   3    -0.530376597520E+02    0.23101E-04   -0.10790E-04 13560   0.731E-02
   9 F= -.53037660E+02 E0= -.53037584E+02  d E =-.716984E-02
       N       E                     dE             d eps       ncg     rms          rms(c)
DAV:   1    -0.530454509056E+02   -0.77681E-02   -0.64291E-01 15256   0.458E+00    0.355E-01
DAV:   2    -0.530470687614E+02   -0.16179E-02   -0.25172E-02 16888   0.816E-01    0.241E-01
DAV:   3    -0.530470103634E+02    0.58398E-04   -0.96583E-04 17004   0.209E-01
  10 F= -.53047010E+02 E0= -.53046922E+02  d E =-.165204E-01
       N       E                     dE             d eps       ncg     rms          rms(c)
DAV:   1    -0.530520630207E+02   -0.49943E-02   -0.66818E-02 15412   0.151E+00    0.126E-01
DAV:   2    -0.530522959641E+02   -0.23294E-03   -0.30880E-03 17004   0.297E-01    0.888E-02
DAV:   3    -0.530522789022E+02    0.17062E-04   -0.11212E-04 14124   0.913E-02
  11 F= -.53052279E+02 E0= -.53052185E+02  d E =-.526854E-02
       N       E                     dE             d eps       ncg     rms          rms(c)
DAV:   1    -0.530554935710E+02   -0.31976E-02   -0.25853E-01 15228   0.294E+00    0.221E-01
DAV:   2    -0.530560612271E+02   -0.56766E-03   -0.10786E-02 16992   0.561E-01    0.155E-01
DAV:   3    -0.530558872859E+02    0.17394E-03   -0.42581E-04 17832   0.162E-01    0.283E-02
DAV:   4    -0.530558951120E+02   -0.78261E-05   -0.23352E-04 15240   0.799E-02
  12 F= -.53055895E+02 E0= -.53055788E+02  d E =-.888475E-02
       N       E                     dE             d eps       ncg     rms          rms(c)
DAV:   1    -0.530588672494E+02   -0.29800E-02   -0.52516E-02 14976   0.133E+00    0.910E-02
DAV:   2    -0.530589735470E+02   -0.10630E-03   -0.18216E-03 17004   0.224E-01    0.636E-02
DAV:   3    -0.530589572771E+02    0.16270E-04   -0.74702E-05 12104   0.571E-02
  13 F= -.53058957E+02 E0= -.53058844E+02  d E =-.306217E-02
       N       E                     dE             d eps       ncg     rms          rms(c)
DAV:   1    -0.530639848988E+02   -0.50114E-02   -0.47158E-01 14972   0.398E+00    0.276E-01
DAV:   2    -0.530648865640E+02   -0.90167E-03   -0.16307E-02 16968   0.669E-01    0.193E-01
DAV:   3    -0.530647229816E+02    0.16358E-03   -0.79498E-04 16596   0.175E-01    0.323E-02
DAV:   4    -0.530647099229E+02    0.13059E-04   -0.21504E-04 15988   0.788E-02
  14 F= -.53064710E+02 E0= -.53064578E+02  d E =-.881481E-02
       N       E                     dE             d eps       ncg     rms          rms(c)
DAV:   1    -0.530684245129E+02   -0.37015E-02   -0.35859E-02 15632   0.107E+00    0.870E-02
DAV:   2    -0.530684591321E+02   -0.34619E-04   -0.14459E-03 16752   0.210E-01    0.589E-02
DAV:   3    -0.530684168791E+02    0.42253E-04   -0.69859E-05 12780   0.690E-02
  15 F= -.53068417E+02 E0= -.53068287E+02  d E =-.370696E-02
       N       E                     dE             d eps       ncg     rms          rms(c)
DAV:   1    -0.530708536704E+02   -0.23945E-02   -0.12304E-01 15564   0.200E+00    0.166E-01
DAV:   2    -0.530710210828E+02   -0.16741E-03   -0.55018E-03 16696   0.409E-01    0.114E-01
DAV:   3    -0.530708667634E+02    0.15432E-03   -0.27505E-04 18060   0.131E-01    0.185E-02
DAV:   4    -0.530708731731E+02   -0.64097E-05   -0.14103E-04 10528   0.616E-02
  16 F= -.53070873E+02 E0= -.53070748E+02  d E =-.616325E-02
       N       E                     dE             d eps       ncg     rms          rms(c)
DAV:   1    -0.530722036004E+02   -0.13368E-02   -0.46464E-03 14984   0.374E-01    0.323E-02
DAV:   2    -0.530722081740E+02   -0.45736E-05   -0.17262E-04 15412   0.655E-02
  17 F= -.53072208E+02 E0= -.53072084E+02  d E =-.133500E-02
       N       E                     dE             d eps       ncg     rms          rms(c)
DAV:   1    -0.530758557607E+02   -0.36522E-02   -0.41832E-02 14828   0.111E+00    0.941E-02
DAV:   2    -0.530758828041E+02   -0.27043E-04   -0.13892E-03 16968   0.186E-01    0.592E-02
DAV:   3    -0.530758571716E+02    0.25632E-04   -0.74204E-05 12040   0.500E-02
  18 F= -.53075857E+02 E0= -.53075736E+02  d E =-.498400E-02
       N       E                     dE             d eps       ncg     rms          rms(c)
DAV:   1    -0.530815167511E+02   -0.56339E-02   -0.16751E-01 14780   0.224E+00    0.189E-01
DAV:   2    -0.530816591708E+02   -0.14242E-03   -0.61394E-03 16916   0.390E-01    0.120E-01
DAV:   3    -0.530815492626E+02    0.10991E-03   -0.33428E-04 16152   0.103E-01    0.217E-02
DAV:   4    -0.530815438628E+02    0.53998E-05   -0.73617E-05 12456   0.447E-02
  19 F= -.53081544E+02 E0= -.53081428E+02  d E =-.106707E-01
       N       E                     dE             d eps       ncg     rms          rms(c)
DAV:   1    -0.530856721480E+02   -0.41229E-02   -0.67400E-01 14808   0.448E+00    0.372E-01
DAV:   2    -0.530861143752E+02   -0.44223E-03   -0.24202E-02 16912   0.777E-01    0.236E-01
DAV:   3    -0.530856413664E+02    0.47301E-03   -0.13692E-03 16196   0.209E-01    0.422E-02
DAV:   4    -0.530856236325E+02    0.17734E-04   -0.31247E-04 16016   0.911E-02
  20 F= -.53085624E+02 E0= -.53085518E+02  d E =-.147505E-01
       N       E                     dE             d eps       ncg     rms          rms(c)
DAV:   1    -0.530904291972E+02   -0.47878E-02   -0.38733E-02 15344   0.117E+00    0.752E-02
DAV:   2    -0.530905440932E+02   -0.11490E-03   -0.18749E-03 16932   0.237E-01    0.597E-02
DAV:   3    -0.530904970872E+02    0.47006E-04   -0.48866E-05 13296   0.734E-02
  21 F= -.53090497E+02 E0= -.53090390E+02  d E =-.487345E-02
       N       E                     dE             d eps       ncg     rms          rms(c)
DAV:   1    -0.530929155909E+02   -0.23715E-02   -0.88041E-02 15292   0.178E+00    0.116E-01
DAV:   2    -0.530932066825E+02   -0.29109E-03   -0.45702E-03 16920   0.368E-01    0.928E-02
DAV:   3    -0.530930962776E+02    0.11040E-03   -0.10918E-04 14928   0.109E-01    0.189E-02
DAV:   4    -0.530931065190E+02   -0.10241E-04   -0.12133E-04  9436   0.537E-02
  22 F= -.53093107E+02 E0= -.53092997E+02  d E =-.748289E-02
       N       E                     dE             d eps       ncg     rms          rms(c)
DAV:   1    -0.530977468961E+02   -0.46506E-02   -0.43791E-02 14708   0.122E+00    0.907E-02
DAV:   2    -0.530978602238E+02   -0.11333E-03   -0.24075E-03 16840   0.241E-01    0.626E-02
DAV:   3    -0.530978244892E+02    0.35735E-04   -0.67416E-05 12480   0.546E-02
  23 F= -.53097824E+02 E0= -.53097713E+02  d E =-.471797E-02
       N       E                     dE             d eps       ncg     rms          rms(c)
DAV:   1    -0.531035397078E+02   -0.56795E-02   -0.38702E-01 14632   0.364E+00    0.267E-01
DAV:   2    -0.531045760596E+02   -0.10364E-02   -0.21118E-02 16868   0.718E-01    0.185E-01
DAV:   3    -0.531042851492E+02    0.29091E-03   -0.62408E-04 16584   0.158E-01    0.407E-02
DAV:   4    -0.531042844333E+02    0.71595E-06   -0.20437E-04 15792   0.758E-02
  24 F= -.53104284E+02 E0= -.53104167E+02  d E =-.111779E-01
       N       E                     dE             d eps       ncg     rms          rms(c)
DAV:   1    -0.531066818712E+02   -0.23967E-02   -0.19691E-02 15020   0.837E-01    0.509E-02
DAV:   2    -0.531067282745E+02   -0.46403E-04   -0.77369E-04 16884   0.146E-01
  25 F= -.53106728E+02 E0= -.53106611E+02  d E =-.244384E-02
       N       E                     dE             d eps       ncg     rms          rms(c)
DAV:   1    -0.531105002238E+02   -0.38184E-02   -0.17736E-01 15020   0.251E+00    0.159E-01
DAV:   2    -0.531108450988E+02   -0.34487E-03   -0.64187E-03 16920   0.423E-01    0.116E-01
DAV:   3    -0.531107120639E+02    0.13303E-03   -0.27844E-04 17096   0.121E-01    0.165E-02
DAV:   4    -0.531107139981E+02   -0.19342E-05   -0.11065E-04  9140   0.576E-02
  26 F= -.53110714E+02 E0= -.53110596E+02  d E =-.642956E-02
       N       E                     dE             d eps       ncg     rms          rms(c)
DAV:   1    -0.531122956833E+02   -0.15836E-02   -0.81571E-03 15184   0.541E-01    0.325E-02
DAV:   2    -0.531123190279E+02   -0.23345E-04   -0.32913E-04 16492   0.967E-02
  27 F= -.53112319E+02 E0= -.53112201E+02  d E =-.160503E-02
       N       E                     dE             d eps       ncg     rms          rms(c)
DAV:   1    -0.531156252082E+02   -0.33295E-02   -0.72664E-02 14960   0.161E+00    0.974E-02
DAV:   2    -0.531157700881E+02   -0.14488E-03   -0.24134E-03 17008   0.264E-01    0.738E-02
DAV:   3    -0.531157176086E+02    0.52480E-04   -0.80592E-05 13584   0.782E-02
  28 F= -.53115718E+02 E0= -.53115600E+02  d E =-.500361E-02
       N       E                     dE             d eps       ncg     rms          rms(c)
DAV:   1    -0.531157460247E+02    0.24063E-04   -0.29086E-01 14880   0.323E+00    0.189E-01
DAV:   2    -0.531164734386E+02   -0.72741E-03   -0.10941E-02 16948   0.558E-01    0.147E-01
DAV:   3    -0.531162598615E+02    0.21358E-03   -0.31285E-04 17324   0.145E-01    0.243E-02
DAV:   4    -0.531162729009E+02   -0.13039E-04   -0.19361E-04 11776   0.714E-02
  29 F= -.53116273E+02 E0= -.53116156E+02  d E =-.555890E-02
       N       E                     dE             d eps       ncg     rms          rms(c)
DAV:   1    -0.531199372272E+02   -0.36774E-02   -0.32680E-02 15616   0.109E+00    0.745E-02
DAV:   2    -0.531200431729E+02   -0.10595E-03   -0.19215E-03 16804   0.251E-01    0.597E-02
DAV:   3    -0.531199829712E+02    0.60202E-04   -0.53845E-05 13236   0.807E-02
  30 F= -.53119983E+02 E0= -.53119866E+02  d E =-.371007E-02
       N       E                     dE             d eps       ncg     rms          rms(c)
DAV:   1    -0.531203964535E+02   -0.35328E-03   -0.89163E-03 15828   0.578E-01    0.395E-02
DAV:   2    -0.531204344565E+02   -0.38003E-04   -0.57319E-04 15948   0.136E-01
  31 F= -.53120434E+02 E0= -.53120318E+02  d E =-.416156E-02
       N       E                     dE             d eps       ncg     rms          rms(c)
DAV:   1    -0.531223577476E+02   -0.19613E-02   -0.13864E-02 15676   0.645E-01    0.470E-02
DAV:   2    -0.531224154870E+02   -0.57739E-04   -0.81817E-04 16392   0.144E-01
  32 F= -.53122415E+02 E0= -.53122301E+02  d E =-.198103E-02
       N       E                     dE             d eps       ncg     rms          rms(c)
DAV:   1    -0.531241750325E+02   -0.18173E-02   -0.90146E-02 15652   0.164E+00    0.122E-01
DAV:   2    -0.531245059280E+02   -0.33090E-03   -0.49327E-03 16468   0.347E-01    0.853E-02
DAV:   3    -0.531244523148E+02    0.53613E-04   -0.10722E-04 15764   0.689E-02
  33 F= -.53124452E+02 E0= -.53124341E+02  d E =-.401786E-02
       N       E                     dE             d eps       ncg     rms          rms(c)
DAV:   1    -0.531256694559E+02   -0.11635E-02   -0.18282E-02 15052   0.779E-01    0.540E-02
DAV:   2    -0.531257012842E+02   -0.31828E-04   -0.66917E-04 16916   0.141E-01
  34 F= -.53125701E+02 E0= -.53125590E+02  d E =-.124897E-02
       N       E                     dE             d eps       ncg     rms          rms(c)
DAV:   1    -0.531260279784E+02   -0.35852E-03   -0.19366E-02 15140   0.796E-01    0.570E-02
DAV:   2    -0.531260404220E+02   -0.12444E-04   -0.51476E-04 17012   0.124E-01
  35 F= -.53126040E+02 E0= -.53125929E+02  d E =-.158811E-02
       N       E                     dE             d eps       ncg     rms          rms(c)
DAV:   1    -0.531266776216E+02   -0.64964E-03   -0.34267E-03 14924   0.337E-01    0.226E-02
DAV:   2    -0.531266830637E+02   -0.54421E-05   -0.90071E-05  9656   0.511E-02
  36 F= -.53126683E+02 E0= -.53126573E+02  d E =-.642642E-03
       N       E                     dE             d eps       ncg     rms          rms(c)
DAV:   1    -0.531285180873E+02   -0.18405E-02   -0.32667E-02 14532   0.102E+00    0.680E-02
DAV:   2    -0.531285361031E+02   -0.18016E-04   -0.73245E-04 17076   0.143E-01
  37 F= -.53128536E+02 E0= -.53128427E+02  d E =-.249568E-02
       N       E                     dE             d eps       ncg     rms          rms(c)
DAV:   1    -0.531315405470E+02   -0.30225E-02   -0.12994E-01 14476   0.204E+00    0.135E-01
DAV:   2    -0.531316142428E+02   -0.73696E-04   -0.28106E-03 17076   0.280E-01    0.900E-02
DAV:   3    -0.531315419267E+02    0.72316E-04   -0.18575E-04 14392   0.778E-02
  38 F= -.53131542E+02 E0= -.53131436E+02  d E =-.550150E-02
       N       E                     dE             d eps       ncg     rms          rms(c)
DAV:   1    -0.531346286426E+02   -0.30144E-02   -0.52804E-01 14400   0.412E+00    0.271E-01
DAV:   2    -0.531350080503E+02   -0.37941E-03   -0.12678E-02 17076   0.595E-01    0.183E-01
DAV:   3    -0.531346863880E+02    0.32166E-03   -0.81463E-04 16612   0.163E-01    0.255E-02
DAV:   4    -0.531346826658E+02    0.37222E-05   -0.15096E-04 13528   0.634E-02
  39 F= -.53134683E+02 E0= -.53134581E+02  d E =-.864224E-02
       N       E                     dE             d eps       ncg     rms          rms(c)
DAV:   1    -0.531377825069E+02   -0.30961E-02   -0.51128E-02 14580   0.135E+00    0.798E-02
DAV:   2    -0.531378677938E+02   -0.85287E-04   -0.15822E-03 17040   0.218E-01    0.612E-02
DAV:   3    -0.531378245339E+02    0.43260E-04   -0.64140E-05 12832   0.692E-02
  40 F= -.53137825E+02 E0= -.53137723E+02  d E =-.314187E-02
       N       E                     dE             d eps       ncg     rms          rms(c)
DAV:   1    -0.531400242719E+02   -0.21565E-02   -0.23255E-01 14528   0.289E+00    0.170E-01
DAV:   2    -0.531404328490E+02   -0.40858E-03   -0.73910E-03 17012   0.469E-01    0.131E-01
DAV:   3    -0.531402409320E+02    0.19192E-03   -0.32169E-04 17172   0.144E-01    0.154E-02
DAV:   4    -0.531402513580E+02   -0.10426E-04   -0.16528E-04 11632   0.669E-02
  41 F= -.53140251E+02 E0= -.53140151E+02  d E =-.556869E-02
       N       E                     dE             d eps       ncg     rms          rms(c)
DAV:   1    -0.531420715094E+02   -0.18306E-02   -0.21945E-02 14532   0.885E-01    0.536E-02
DAV:   2    -0.531421044046E+02   -0.32895E-04   -0.65598E-04 17052   0.135E-01
  42 F= -.53142104E+02 E0= -.53142003E+02  d E =-.185305E-02
       N       E                     dE             d eps       ncg     rms          rms(c)
DAV:   1    -0.531468995687E+02   -0.48281E-02   -0.19573E-01 14460   0.264E+00    0.158E-01
DAV:   2    -0.531471179201E+02   -0.21835E-03   -0.51087E-03 17128   0.380E-01    0.113E-01
DAV:   3    -0.531470130244E+02    0.10490E-03   -0.28749E-04 16232   0.100E-01    0.160E-02
DAV:   4    -0.531470029521E+02    0.10072E-04   -0.55096E-05  8664   0.413E-02
  43 F= -.53147003E+02 E0= -.53146901E+02  d E =-.675159E-02
       N       E                     dE             d eps       ncg     rms          rms(c)
DAV:   1    -0.531537620751E+02   -0.67491E-02   -0.79245E-01 14404   0.531E+00    0.314E-01
DAV:   2    -0.531547168601E+02   -0.95479E-03   -0.22350E-02 17040   0.792E-01    0.225E-01
DAV:   3    -0.531542562230E+02    0.46064E-03   -0.11317E-03 16356   0.199E-01    0.330E-02
DAV:   4    -0.531542247055E+02    0.31517E-04   -0.23175E-04 16156   0.833E-02
  44 F= -.53154225E+02 E0= -.53154119E+02  d E =-.139733E-01
       N       E                     dE             d eps       ncg     rms          rms(c)
DAV:   1    -0.531571095535E+02   -0.28533E-02   -0.31942E+00 14384   0.107E+01    0.629E-01
DAV:   2    -0.531609852061E+02   -0.38757E-02   -0.89563E-02 17072   0.159E+00    0.447E-01
DAV:   3    -0.531592040055E+02    0.17812E-02   -0.43274E-03 16356   0.390E-01    0.677E-02
DAV:   4    -0.531590957859E+02    0.10822E-03   -0.89759E-04 16280   0.164E-01    0.467E-02
DAV:   5    -0.531591039854E+02   -0.81994E-05   -0.99845E-05 14488   0.628E-02
  45 F= -.53159104E+02 E0= -.53158992E+02  d E =-.188526E-01
       N       E                     dE             d eps       ncg     rms          rms(c)
DAV:   1    -0.531659239614E+02   -0.68282E-02   -0.60457E-01 14536   0.459E+00    0.264E-01
DAV:   2    -0.531667685995E+02   -0.84464E-03   -0.16914E-02 17040   0.714E-01    0.200E-01
DAV:   3    -0.531663064500E+02    0.46215E-03   -0.73404E-04 17488   0.225E-01    0.245E-02
DAV:   4    -0.531663212741E+02   -0.14824E-04   -0.37764E-04 15764   0.986E-02
  46 F= -.53166321E+02 E0= -.53166209E+02  d E =-.721729E-02
       N       E                     dE             d eps       ncg     rms          rms(c)
DAV:   1    -0.531663245828E+02   -0.18133E-04   -0.50377E-04 15204   0.138E-01    0.106E-02
DAV:   2    -0.531663282850E+02   -0.37021E-05   -0.35149E-05  7488   0.318E-02
  47 F= -.53166328E+02 E0= -.53166216E+02  d E =-.722430E-02
       N       E                     dE             d eps       ncg     rms          rms(c)
DAV:   1    -0.531721420521E+02   -0.58175E-02   -0.16095E-01 14860   0.232E+00    0.136E-01
DAV:   2    -0.531724024141E+02   -0.26036E-03   -0.43568E-03 17000   0.348E-01    0.977E-02
DAV:   3    -0.531723138698E+02    0.88544E-04   -0.18601E-04 15912   0.912E-02
  48 F= -.53172314E+02 E0= -.53172203E+02  d E =-.598558E-02
       N       E                     dE             d eps       ncg     rms          rms(c)
DAV:   1    -0.531755921877E+02   -0.31898E-02   -0.60923E-01 14876   0.452E+00    0.263E-01
DAV:   2    -0.531766830321E+02   -0.10908E-02   -0.16961E-02 16980   0.683E-01    0.190E-01
DAV:   3    -0.531763640616E+02    0.31897E-03   -0.68409E-04 17332   0.172E-01    0.242E-02
DAV:   4    -0.531763829353E+02   -0.18874E-04   -0.22074E-04 13216   0.762E-02
  49 F= -.53176383E+02 E0= -.53176274E+02  d E =-.100547E-01
       N       E                     dE             d eps       ncg     rms          rms(c)
DAV:   1    -0.531777940251E+02   -0.14300E-02   -0.31073E-01 14744   0.322E+00    0.199E-01
DAV:   2    -0.531782132096E+02   -0.41918E-03   -0.86719E-03 17008   0.512E-01    0.145E-01
DAV:   3    -0.531779681005E+02    0.24511E-03   -0.38973E-04 17332   0.151E-01    0.194E-02
DAV:   4    -0.531779829777E+02   -0.14877E-04   -0.18959E-04 11592   0.700E-02
  50 F= -.53177983E+02 E0= -.53177875E+02  d E =-.160004E-02
       N       E                     dE             d eps       ncg     rms          rms(c)
DAV:   1    -0.531785124402E+02   -0.54434E-03   -0.36341E-02 14648   0.110E+00    0.660E-02
DAV:   2    -0.531785489468E+02   -0.36507E-04   -0.92124E-04 16940   0.167E-01
  51 F= -.53178549E+02 E0= -.53178441E+02  d E =-.216601E-02
       N       E                     dE             d eps       ncg     rms          rms(c)
DAV:   1    -0.531812330942E+02   -0.27207E-02   -0.52763E-02 14620   0.131E+00    0.706E-02
DAV:   2    -0.531813347649E+02   -0.10167E-03   -0.15530E-03 16952   0.202E-01    0.521E-02
DAV:   3    -0.531813027844E+02    0.31981E-04   -0.42710E-05  9960   0.469E-02
  52 F= -.53181303E+02 E0= -.53181194E+02  d E =-.275384E-02
       N       E                     dE             d eps       ncg     rms          rms(c)
DAV:   1    -0.531833148011E+02   -0.19800E-02   -0.30746E-01 14656   0.318E+00    0.175E-01
DAV:   2    -0.531839503024E+02   -0.63550E-03   -0.90615E-03 16984   0.483E-01    0.128E-01
DAV:   3    -0.531837904798E+02    0.15982E-03   -0.25310E-04 17336   0.111E-01    0.216E-02
DAV:   4    -0.531838041434E+02   -0.13664E-04   -0.12035E-04 10300   0.560E-02
  53 F= -.53183804E+02 E0= -.53183695E+02  d E =-.525520E-02
       N       E                     dE             d eps       ncg     rms          rms(c)
DAV:   1    -0.531851905803E+02   -0.14001E-02   -0.33729E-02 14896   0.106E+00    0.675E-02
DAV:   2    -0.531852493713E+02   -0.58791E-04   -0.10103E-03 16928   0.172E-01    0.493E-02
DAV:   3    -0.531852225839E+02    0.26787E-04   -0.32228E-05  9640   0.508E-02
  54 F= -.53185223E+02 E0= -.53185114E+02  d E =-.141844E-02
       N       E                     dE             d eps       ncg     rms          rms(c)
DAV:   1    -0.531855381118E+02   -0.28874E-03   -0.28285E-02 14988   0.976E-01    0.598E-02
DAV:   2    -0.531855936464E+02   -0.55535E-04   -0.85106E-04 16948   0.158E-01
  55 F= -.53185594E+02 E0= -.53185485E+02  d E =-.178950E-02
       N       E                     dE             d eps       ncg     rms          rms(c)
DAV:   1    -0.531862283821E+02   -0.69027E-03   -0.54318E-03 15412   0.431E-01    0.315E-02
DAV:   2    -0.531862389553E+02   -0.10573E-04   -0.16689E-04 15612   0.682E-02
  56 F= -.53186239E+02 E0= -.53186130E+02  d E =-.645309E-03
       N       E                     dE             d eps       ncg     rms          rms(c)
DAV:   1    -0.531875027782E+02   -0.12744E-02   -0.50860E-02 15156   0.130E+00    0.829E-02
DAV:   2    -0.531875677452E+02   -0.64967E-04   -0.11959E-03 16972   0.186E-01    0.579E-02
DAV:   3    -0.531875383827E+02    0.29362E-04   -0.58920E-05  9844   0.527E-02
  57 F= -.53187538E+02 E0= -.53187430E+02  d E =-.194474E-02
       N       E                     dE             d eps       ncg     rms          rms(c)
DAV:   1    -0.531881642293E+02   -0.59648E-03   -0.13880E-02 15904   0.694E-01    0.545E-02
DAV:   2    -0.531881925386E+02   -0.28309E-04   -0.78658E-04 16408   0.160E-01
  58 F= -.53188193E+02 E0= -.53188084E+02  d E =-.654156E-03
       N       E                     dE             d eps       ncg     rms          rms(c)
DAV:   1    -0.531881653873E+02   -0.11580E-05   -0.72477E-05 11036   0.762E-02    0.375E-03
DAV:   2    -0.531881695023E+02   -0.41150E-05   -0.44830E-05  7276   0.354E-02
  59 F= -.53188170E+02 E0= -.53188061E+02  d E =-.631120E-03
