unknown system                          
           1
     3.647524   -0.075432    0.310010
     0.034992    5.449010    0.448749
     1.389234    2.222783    5.790308
   Sr   Nb   H 
   2   1   8
Direct configuration=     1
   0.22295600  0.10240200  0.95270900
   0.50982500  0.41579000  0.32904900
   0.92130700  0.74246300  0.63380400
   0.97662800  0.71626700  0.33193300
   0.29397500  0.59535200  0.78225500
   0.72379100  0.40638400  0.94723000
   0.98581500  0.10665800  0.35909200
   0.90152500  0.38190700  0.63710000
   0.40623300  0.82334200  0.41070100
   0.27604800  0.97619900  0.63829000
   0.72993300  0.82074700  0.92089000
unknown system                          
           1
     3.679809   -0.076610    0.314630
     0.034757    5.494014    0.452096
     1.404292    2.240452    5.839969
   Sr   Nb   H 
   2   1   8
Direct configuration=     2
   0.22274071  0.10249495  0.95268277
   0.50974762  0.41575922  0.32927040
   0.92261101  0.74223454  0.63375986
   0.97678653  0.71616114  0.33212151
   0.29389831  0.59543484  0.78161502
   0.72361201  0.40638156  0.94730095
   0.98599663  0.10659090  0.35929900
   0.90147665  0.38206066  0.63718059
   0.40573395  0.82350537  0.41070271
   0.27554729  0.97606442  0.63831091
   0.72988529  0.82082340  0.92080926
unknown system                          
           1
     3.699787   -0.077339    0.317490
     0.034611    5.521862    0.454168
     1.413610    2.251385    5.870700
   Sr   Nb   H 
   2   1   8
Direct configuration=     3
   0.22260865  0.10255196  0.95266672
   0.50970003  0.41574036  0.32940626
   0.92341097  0.74209451  0.63373250
   0.97688367  0.71609622  0.33223714
   0.29385161  0.59548558  0.78122237
   0.72350217  0.40638004  0.94734452
   0.98610793  0.10654977  0.35942597
   0.90144696  0.38215497  0.63723006
   0.40542782  0.82360556  0.41070387
   0.27524010  0.97598176  0.63832384
   0.72985607  0.82087027  0.92075974
unknown system                          
           1
     3.711030   -0.080469    0.322068
     0.030625    5.523507    0.454351
     1.422632    2.250584    5.877878
   Sr   Nb   H 
   2   1   8
Direct configuration=     4
   0.22224317  0.10265200  0.95270011
   0.50956645  0.41577984  0.32963570
   0.92757102  0.74170276  0.63323037
   0.97689424  0.71609423  0.33297056
   0.29343846  0.59592862  0.77987988
   0.72358875  0.40685567  0.94704522
   0.98619743  0.10580264  0.36019648
   0.90173991  0.38308212  0.63725179
   0.40307509  0.82317841  0.41161803
   0.27363309  0.97559574  0.63829868
   0.73008838  0.82083897  0.92022617
unknown system                          
           1
     3.718354   -0.082509    0.325050
     0.028028    5.524579    0.454471
     1.428510    2.250061    5.882554
   Sr   Nb   H 
   2   1   8
Direct configuration=     5
   0.22200575  0.10271697  0.95272200
   0.50947940  0.41580558  0.32978507
   0.93027413  0.74144959  0.63290177
   0.97690016  0.71609321  0.33344782
   0.29317210  0.59621645  0.77900643
   0.72364573  0.40716538  0.94685040
   0.98625404  0.10531636  0.36069788
   0.90193088  0.38368617  0.63726575
   0.40154506  0.82289931  0.41221399
   0.27258879  0.97534347  0.63828305
   0.73023998  0.82081851  0.91987885
unknown system                          
           1
     3.734928   -0.086238    0.329676
     0.023153    5.522437    0.454207
     1.439491    2.247229    5.886962
   Sr   Nb   H 
   2   1   8
Direct configuration=     6
   0.22167425  0.10276911  0.95266034
   0.50946949  0.41577912  0.33007853
   0.92975747  0.74070169  0.63345615
   0.97714538  0.71614451  0.33433882
   0.29377546  0.59652274  0.77740920
   0.72392621  0.40774240  0.94648414
   0.98659132  0.10433558  0.36170461
   0.90273447  0.38448455  0.63725277
   0.40079506  0.82269091  0.41233495
   0.27139486  0.97552428  0.63816344
   0.73077203  0.82081610  0.91917005
unknown system                          
           1
     3.770621   -0.094269    0.339640
     0.012655    5.517824    0.453638
     1.463141    2.241129    5.896455
   Sr   Nb   H 
   2   1   8
Direct configuration=     7
   0.22096382  0.10288075  0.95252808
   0.50944648  0.41572254  0.33071015
   0.92864407  0.73909018  0.63465012
   0.97766627  0.71625690  0.33625616
   0.29507959  0.59718124  0.77397069
   0.72453151  0.40898558  0.94569540
   0.98730602  0.10222460  0.36387106
   0.90446023  0.38620625  0.63722365
   0.39918531  0.82224071  0.41259632
   0.26883551  0.97591147  0.63790757
   0.73191719  0.82081079  0.91764380
unknown system                          
           1
     3.774876   -0.096720    0.345464
     0.009695    5.504616    0.450957
     1.472065    2.231958    5.898110
   Sr   Nb   H 
   2   1   8
Direct configuration=     8
   0.22080064  0.10254598  0.95286620
   0.51005714  0.41562836  0.33083563
   0.92896985  0.73900196  0.63477361
   0.97734305  0.71614346  0.33676864
   0.29618803  0.59710175  0.77241302
   0.72435805  0.40880937  0.94595298
   0.98722329  0.10199518  0.36465027
   0.90553469  0.38629551  0.63730913
   0.39839859  0.82230976  0.41217680
   0.26753152  0.97646474  0.63792735
   0.73163116  0.82121493  0.91737936
unknown system                          
           1
     3.787640   -0.104072    0.362937
     0.000814    5.464991    0.442913
     1.498837    2.204444    5.903075
   Sr   Nb   H 
   2   1   8
Direct configuration=     9
   0.22030850  0.10154071  0.95388051
   0.51188673  0.41534735  0.33121007
   0.92994546  0.73873816  0.63514292
   0.97637038  0.71580421  0.33830655
   0.29952128  0.59685736  0.76773790
   0.72383595  0.40828043  0.94672590
   0.98696951  0.10130920  0.36698735
   0.90875531  0.38656709  0.63756233
   0.39604314  0.82251323  0.41092103
   0.26362345  0.97812519  0.63799100
   0.73077630  0.82242806  0.91658742
unknown system                          
           1
     3.789550   -0.104204    0.366643
     0.001077    5.460303    0.441365
     1.504773    2.200602    5.907387
   Sr   Nb   H 
   2   1   8
Direct configuration=    10
   0.22029783  0.10127027  0.95418826
   0.51236895  0.41524763  0.33128433
   0.92930510  0.73846531  0.63540059
   0.97606542  0.71564882  0.33859709
   0.30054068  0.59679666  0.76664283
   0.72369104  0.40799428  0.94697965
   0.98687759  0.10137474  0.36742785
   0.90953882  0.38637663  0.63764046
   0.39588096  0.82284428  0.41029444
   0.26307558  0.97871534  0.63802729
   0.73039402  0.82277705  0.91657022
unknown system                          
           1
     3.795280   -0.104599    0.377761
     0.001868    5.446240    0.436720
     1.522582    2.189078    5.920321
   Sr   Nb   H 
   2   1   8
Direct configuration=    11
   0.22026477  0.10045922  0.95511069
   0.51381503  0.41494883  0.33150597
   0.92738364  0.73764636  0.63617408
   0.97514974  0.71518289  0.33946853
   0.30360237  0.59661204  0.76335799
   0.72325559  0.40713578  0.94774042
   0.98660017  0.10157271  0.36874862
   0.91188855  0.38580568  0.63787305
   0.39539678  0.82383624  0.40841655
   0.26143198  0.98048680  0.63813751
   0.72924738  0.82382446  0.91651958
unknown system                          
           1
     3.793231   -0.102751    0.378915
     0.004757    5.450639    0.436860
     1.524235    2.191439    5.924897
   Sr   Nb   H 
   2   1   8
Direct configuration=    12
   0.22038096  0.10035926  0.95534536
   0.51394938  0.41484253  0.33156263
   0.92776060  0.73768961  0.63606933
   0.97477737  0.71496446  0.33960750
   0.30419181  0.59661832  0.76286924
   0.72319320  0.40686029  0.94784969
   0.98638519  0.10180293  0.36883560
   0.91207991  0.38545210  0.63796251
   0.39523092  0.82435417  0.40793867
   0.26136475  0.98062661  0.63823354
   0.72872191  0.82394074  0.91677893
unknown system                          
           1
     3.787084   -0.097210    0.382378
     0.013426    5.463836    0.437281
     1.529196    2.198522    5.938623
   Sr   Nb   H 
   2   1   8
Direct configuration=    13
   0.22072988  0.10005948  0.95604872
   0.51435292  0.41452378  0.33173234
   0.92889213  0.73781900  0.63575510
   0.97366003  0.71430992  0.34002426
   0.30596145  0.59663691  0.76140371
   0.72300651  0.40603452  0.94817723
   0.98573927  0.10249311  0.36909652
   0.91265514  0.38439209  0.63823045
   0.39473198  0.82590695  0.40650636
   0.26116257  0.98104567  0.63852152
   0.72714412  0.82428956  0.91755677
unknown system                          
           1
     3.784316   -0.095377    0.382204
     0.016064    5.467345    0.437939
     1.528965    2.201404    5.938418
   Sr   Nb   H 
   2   1   8
Direct configuration=    14
   0.22080414  0.10003043  0.95625650
   0.51432427  0.41445845  0.33186806
   0.92795499  0.73788098  0.63590339
   0.97334521  0.71411613  0.34033167
   0.30703696  0.59662683  0.76075087
   0.72323171  0.40595681  0.94812601
   0.98553230  0.10246830  0.36929582
   0.91288466  0.38423000  0.63832694
   0.39493860  0.82664710  0.40576960
   0.26119375  0.98093623  0.63863628
   0.72678940  0.82415972  0.91778787
unknown system                          
           1
     3.777321   -0.090745    0.381765
     0.022732    5.476217    0.439602
     1.528380    2.208691    5.937901
   Sr   Nb   H 
   2   1   8
Direct configuration=    15
   0.22099204  0.09995670  0.95678174
   0.51425191  0.41429327  0.33221112
   0.92558442  0.73803811  0.63627821
   0.97254923  0.71362644  0.34110873
   0.30975742  0.59660141  0.75910063
   0.72380151  0.40576038  0.94799653
   0.98500885  0.10240553  0.36979962
   0.91346551  0.38382024  0.63857085
   0.39545990  0.82851760  0.40390715
   0.26127283  0.98065960  0.63892637
   0.72589240  0.82383172  0.91837204
