       N       E                     dE             d eps       ncg     rms          rms(c)
DAV:   1    -0.993882452066E+01   -0.99388E+01   -0.64540E+03  9728   0.407E+02
DAV:   2    -0.436042920288E+02   -0.33665E+02   -0.32488E+02 13216   0.782E+01
DAV:   3    -0.446066748076E+02   -0.10024E+01   -0.10033E+01 11984   0.110E+01
DAV:   4    -0.446081340510E+02   -0.14592E-02   -0.14652E-02 12880   0.511E-01
DAV:   5    -0.446081371032E+02   -0.30522E-05   -0.30679E-05  9472   0.240E-02    0.157E+01
RMM:   6    -0.496473789983E+02   -0.50392E+01   -0.93493E-01  9728   0.264E+00    0.585E+00
RMM:   7    -0.493931710771E+02    0.25421E+00   -0.51760E-01  9728   0.242E+00    0.278E+00
RMM:   8    -0.493548594601E+02    0.38312E-01   -0.17840E-01  9728   0.147E+00    0.840E-01
RMM:   9    -0.493696051010E+02   -0.14746E-01   -0.15948E-02  9728   0.499E-01    0.361E-01
RMM:  10    -0.493723886915E+02   -0.27836E-02   -0.86124E-04  8632   0.117E-01    0.160E-01
RMM:  11    -0.493744761548E+02   -0.20875E-02   -0.13617E-03  9421   0.148E-01    0.457E-02
RMM:  12    -0.493746923967E+02   -0.21624E-03   -0.14817E-04  7420   0.523E-02
   1 F= -.49374692E+02 E0= -.49374692E+02  d E =-.493747E+02  mag=     0.0003
       N       E                     dE             d eps       ncg     rms          rms(c)
DAV:   1    -0.494889411445E+02   -0.11446E+00   -0.26813E-01 13152   0.207E+00    0.406E-01
RMM:   2    -0.494873375058E+02    0.16036E-02   -0.34026E-03  9451   0.210E-01    0.238E-01
RMM:   3    -0.494864212153E+02    0.91629E-03   -0.64416E-04  6785   0.774E-02    0.137E-02
RMM:   4    -0.494864263690E+02   -0.51537E-05   -0.31312E-05  5045   0.240E-02
   2 F= -.49486426E+02 E0= -.49486426E+02  d E =-.111734E+00  mag=     0.0000
       N       E                     dE             d eps       ncg     rms          rms(c)
DAV:   1    -0.496927257344E+02   -0.20630E+00   -0.22732E+00 11488   0.583E+00    0.117E+00
RMM:   2    -0.496787586140E+02    0.13967E-01   -0.29400E-02  9728   0.603E-01    0.684E-01
RMM:   3    -0.496708017540E+02    0.79569E-02   -0.59930E-03  9728   0.222E-01    0.395E-02
RMM:   4    -0.496708241087E+02   -0.22355E-04   -0.52592E-05  6050   0.305E-02
   3 F= -.49670824E+02 E0= -.49670824E+02  d E =-.296132E+00  mag=     0.0000
       N       E                     dE             d eps       ncg     rms          rms(c)
DAV:   1    -0.496919081820E+02   -0.21106E-01   -0.36225E-01 12912   0.232E+00    0.464E-01
RMM:   2    -0.496895731983E+02    0.23350E-02   -0.47685E-03  9687   0.241E-01    0.271E-01
RMM:   3    -0.496882720226E+02    0.13012E-02   -0.10170E-03  8835   0.943E-02    0.171E-02
RMM:   4    -0.496882713092E+02    0.71342E-06   -0.11012E-04  7555   0.442E-02
   4 F= -.49688271E+02 E0= -.49688271E+02  d E =-.313579E+00  mag=     0.0000
       N       E                     dE             d eps       ncg     rms          rms(c)
DAV:   1    -0.497332393928E+02   -0.44967E-01   -0.13442E-01 13344   0.123E+00    0.253E-01
RMM:   2    -0.497325750250E+02    0.66437E-03   -0.24550E-03  9234   0.183E-01
   5 F= -.49732575E+02 E0= -.49732575E+02  d E =-.443037E-01  mag=     0.0000
       N       E                     dE             d eps       ncg     rms          rms(c)
DAV:   1    -0.498356395112E+02   -0.10240E+00   -0.11802E+00 12928   0.363E+00    0.766E-01
RMM:   2    -0.498295403280E+02    0.60992E-02   -0.21105E-02  9728   0.522E-01    0.452E-01
RMM:   3    -0.498260687731E+02    0.34716E-02   -0.36283E-03  9728   0.172E-01    0.307E-02
RMM:   4    -0.498259464074E+02    0.12237E-03   -0.49325E-04  8409   0.104E-01
   6 F= -.49825946E+02 E0= -.49825946E+02  d E =-.137675E+00  mag=    -0.0000
       N       E                     dE             d eps       ncg     rms          rms(c)
DAV:   1    -0.498439673805E+02   -0.17899E-01   -0.49644E+00 12864   0.733E+00    0.158E+00
RMM:   2    -0.498175606278E+02    0.26407E-01   -0.10238E-01  9728   0.110E+00    0.935E-01
RMM:   3    -0.498017050020E+02    0.15856E-01   -0.16785E-02  9728   0.344E-01    0.684E-02
RMM:   4    -0.498015378226E+02    0.16718E-03   -0.10664E-03  8932   0.149E-01
   7 F= -.49801538E+02 E0= -.49801538E+02  d E =-.113267E+00  mag=     0.0000
       N       E                     dE             d eps       ncg     rms          rms(c)
DAV:   1    -0.498711551519E+02   -0.69450E-01   -0.19813E+00 11952   0.480E+00    0.101E+00
RMM:   2    -0.498598050632E+02    0.11350E-01   -0.36490E-02  9728   0.705E-01    0.594E-01
RMM:   3    -0.498550859176E+02    0.47191E-02   -0.84154E-03  9728   0.307E-01    0.552E-02
RMM:   4    -0.498544107629E+02    0.67515E-03   -0.28951E-03  9620   0.241E-01
   8 F= -.49854411E+02 E0= -.49854411E+02  d E =-.166139E+00  mag=     0.0000
       N       E                     dE             d eps       ncg     rms          rms(c)
DAV:   1    -0.498747811309E+02   -0.19695E-01   -0.43555E-02 11488   0.758E-01    0.123E-01
RMM:   2    -0.498745437984E+02    0.23733E-03   -0.16347E-03  9306   0.170E-01
   9 F= -.49874544E+02 E0= -.49874544E+02  d E =-.201330E-01  mag=    -0.0000
       N       E                     dE             d eps       ncg     rms          rms(c)
DAV:   1    -0.499291666140E+02   -0.54385E-01   -0.37193E-01 14336   0.218E+00    0.389E-01
RMM:   2    -0.499277290114E+02    0.14376E-02   -0.10302E-02  9728   0.394E-01    0.240E-01
RMM:   3    -0.499273464918E+02    0.38252E-03   -0.29185E-03  9728   0.236E-01
  10 F= -.49927346E+02 E0= -.49927346E+02  d E =-.729357E-01  mag=    -0.0000
       N       E                     dE             d eps       ncg     rms          rms(c)
DAV:   1    -0.499954854697E+02   -0.67756E-01   -0.14805E+00 14352   0.430E+00    0.762E-01
RMM:   2    -0.499915430951E+02    0.39424E-02   -0.41286E-02  9728   0.740E-01    0.472E-01
RMM:   3    -0.499877727857E+02    0.37703E-02   -0.44673E-03  9728   0.231E-01    0.439E-02
RMM:   4    -0.499874262239E+02    0.34656E-03   -0.11217E-03  8996   0.168E-01
  11 F= -.49987426E+02 E0= -.49987426E+02  d E =-.133015E+00  mag=     0.0000
       N       E                     dE             d eps       ncg     rms          rms(c)
DAV:   1    -0.499969410524E+02   -0.91683E-02   -0.57017E+00 14128   0.828E+00    0.150E+00
RMM:   2    -0.499802342453E+02    0.16707E-01   -0.16376E-01  9728   0.144E+00    0.929E-01
RMM:   3    -0.499624472500E+02    0.17787E-01   -0.16609E-02  9728   0.382E-01    0.887E-02
RMM:   4    -0.499623131998E+02    0.13405E-03   -0.15483E-03  9268   0.189E-01
  12 F= -.49962313E+02 E0= -.49962313E+02  d E =-.107902E+00  mag=     0.0000
       N       E                     dE             d eps       ncg     rms          rms(c)
DAV:   1    -0.500153339853E+02   -0.52887E-01   -0.23716E+00 13504   0.547E+00    0.982E-01
RMM:   2    -0.500068341577E+02    0.84998E-02   -0.51943E-02  9728   0.844E-01    0.597E-01
RMM:   3    -0.500008519132E+02    0.59822E-02   -0.83744E-03  9728   0.341E-01    0.697E-02
RMM:   4    -0.500006097090E+02    0.24220E-03   -0.31324E-03  9634   0.269E-01
  13 F= -.50000610E+02 E0= -.50000610E+02  d E =-.146199E+00  mag=    -0.0000
       N       E                     dE             d eps       ncg     rms          rms(c)
DAV:   1    -0.500190694469E+02   -0.18218E-01   -0.64258E-02 12320   0.899E-01    0.169E-01
RMM:   2    -0.500187002805E+02    0.36917E-03   -0.18362E-03  9414   0.180E-01
  14 F= -.50018700E+02 E0= -.50018700E+02  d E =-.180906E-01  mag=     0.0000
       N       E                     dE             d eps       ncg     rms          rms(c)
DAV:   1    -0.500647664597E+02   -0.45697E-01   -0.55290E-01 13808   0.260E+00    0.500E-01
RMM:   2    -0.500622092387E+02    0.25572E-02   -0.12083E-02  9728   0.421E-01    0.302E-01
RMM:   3    -0.500613499586E+02    0.85928E-03   -0.37004E-03  9728   0.261E-01    0.414E-02
RMM:   4    -0.500605402358E+02    0.80972E-03   -0.22073E-03  9556   0.235E-01    0.188E-02
RMM:   5    -0.500603017080E+02    0.23853E-03   -0.46104E-04  8379   0.115E-01
  15 F= -.50060302E+02 E0= -.50060302E+02  d E =-.596920E-01  mag=    -0.0000
       N       E                     dE             d eps       ncg     rms          rms(c)
DAV:   1    -0.500978937125E+02   -0.37353E-01   -0.22374E+00 13840   0.516E+00    0.995E-01
RMM:   2    -0.500886663286E+02    0.92274E-02   -0.46544E-02  9728   0.766E-01    0.603E-01
RMM:   3    -0.500816658597E+02    0.70005E-02   -0.65956E-03  9728   0.216E-01    0.508E-02
RMM:   4    -0.500816600611E+02    0.57986E-05   -0.10408E-04  7807   0.466E-02
  16 F= -.50081660E+02 E0= -.50081660E+02  d E =-.810504E-01  mag=    -0.0000
       N       E                     dE             d eps       ncg     rms          rms(c)
DAV:   1    -0.500855838454E+02   -0.39180E-02   -0.18914E-02 12208   0.439E-01    0.619E-02
RMM:   2    -0.500855222235E+02    0.61622E-04   -0.10889E-03  8908   0.137E-01
  17 F= -.50085522E+02 E0= -.50085522E+02  d E =-.386216E-02  mag=     0.0000
       N       E                     dE             d eps       ncg     rms          rms(c)
DAV:   1    -0.500872299756E+02   -0.16461E-02   -0.32285E-02 10112   0.588E-01    0.827E-02
RMM:   2    -0.500872341468E+02   -0.41712E-05   -0.18929E-03  9259   0.187E-01
  18 F= -.50087234E+02 E0= -.50087234E+02  d E =-.557409E-02  mag=     0.0000
