 running on   16 total cores
 distrk:  each k-point on   16 cores,    1 groups
 distr:  one band on    1 cores,   16 groups
 using from now: INCAR     
 vasp.5.4.4.18Apr17-6-g9f103f2a35 (build Nov 01 2019 12:17:22) complex          
  
 POSCAR found type information on POSCAR  H 
 POSCAR found :  1 types and      20 ions

 ----------------------------------------------------------------------------- 
|                                                                             |
|           W    W    AA    RRRRR   N    N  II  N    N   GGGG   !!!           |
|           W    W   A  A   R    R  NN   N  II  NN   N  G    G  !!!           |
|           W    W  A    A  R    R  N N  N  II  N N  N  G       !!!           |
|           W WW W  AAAAAA  RRRRR   N  N N  II  N  N N  G  GGG   !            |
|           WW  WW  A    A  R   R   N   NN  II  N   NN  G    G                |
|           W    W  A    A  R    R  N    N  II  N    N   GGGG   !!!           |
|                                                                             |
|      For optimal performance we recommend to set                            |
|        NCORE= 4 - approx SQRT( number of cores)                             |
|      NCORE specifies how many cores store one orbital (NPAR=cpu/NCORE).     |
|      This setting can  greatly improve the performance of VASP for DFT.     |
|      The default,   NCORE=1            might be grossly inefficient         |
|      on modern multi-core architectures or massively parallel machines.     |
|      Do your own testing !!!!                                               |
|      Unfortunately you need to use the default for GW and RPA calculations. |
|      (for HF NCORE is supported but not extensively tested yet)             |
|                                                                             |
 ----------------------------------------------------------------------------- 

 LDA part: xc-table for Pade appr. of Perdew
 POSCAR, INCAR and KPOINTS ok, starting setup
 FFT: planning ...
 WAVECAR not read
 entering main loop
       N       E                     dE             d eps       ncg     rms          rms(c)
DAV:   1    -0.116205690921E+02   -0.11621E+02   -0.78677E+03  6528   0.507E+02
DAV:   2    -0.594420887735E+02   -0.47822E+02   -0.46133E+02  8640   0.897E+01
DAV:   3    -0.612532674521E+02   -0.18112E+01   -0.18096E+01  8528   0.157E+01
DAV:   4    -0.612564755799E+02   -0.32081E-02   -0.32081E-02  8192   0.840E-01
DAV:   5    -0.612564833843E+02   -0.78044E-05   -0.78043E-05  7104   0.423E-02    0.204E+01
RMM:   6    -0.660267783582E+02   -0.47703E+01   -0.29006E+00  6528   0.501E+00    0.852E+00
RMM:   7    -0.661550240603E+02   -0.12825E+00   -0.16468E+00  6528   0.449E+00    0.402E+00
RMM:   8    -0.660657891755E+02    0.89235E-01   -0.42306E-01  6528   0.238E+00    0.106E+00
RMM:   9    -0.660994536964E+02   -0.33665E-01   -0.32941E-02  6528   0.743E-01    0.483E-01
RMM:  10    -0.661053882633E+02   -0.59346E-02   -0.17989E-03  6029   0.179E-01    0.195E-01
RMM:  11    -0.661082017446E+02   -0.28135E-02   -0.16102E-03  5935   0.176E-01    0.826E-02
RMM:  12    -0.661088100352E+02   -0.60829E-03   -0.50072E-04  5457   0.999E-02
   1 F= -.66108810E+02 E0= -.66108810E+02  d E =-.661088E+02  mag=    -0.0001
 curvature:   0.00 expect dE= 0.000E+00 dE for cont linesearch  0.000E+00
 trial: gam= 0.00000 g(F)=  0.439E-02 g(S)=  0.172E+00 ort = 0.000E+00 (trialstep = 0.100E+01)
 search vector abs. value=  0.177E+00
 bond charge predicted
       N       E                     dE             d eps       ncg     rms          rms(c)
DAV:   1    -0.662646245856E+02   -0.15642E+00   -0.39683E-01  8640   0.282E+00    0.514E-01
RMM:   2    -0.662617619143E+02    0.28627E-02   -0.74223E-03  6528   0.332E-01    0.291E-01
RMM:   3    -0.662603733276E+02    0.13886E-02   -0.17159E-03  5218   0.134E-01    0.169E-02
RMM:   4    -0.662603840603E+02   -0.10733E-04   -0.34729E-05  2710   0.260E-02
   2 F= -.66260384E+02 E0= -.66260384E+02  d E =-.151574E+00  mag=    -0.0000
 trial-energy change:   -0.151574  1 .order   -0.152843   -0.176751   -0.128936
 step:   3.6966(harm=  3.6966)  dis= 0.01653  next Energy=   -66.435496 (dE=-0.327E+00)
 bond charge predicted
       N       E                     dE             d eps       ncg     rms          rms(c)
DAV:   1    -0.664723439502E+02   -0.21197E+00   -0.27699E+00  7424   0.724E+00    0.134E+00
RMM:   2    -0.664519539946E+02    0.20390E-01   -0.54829E-02  6528   0.875E-01    0.758E-01
RMM:   3    -0.664419861611E+02    0.99678E-02   -0.12995E-02  6528   0.353E-01    0.457E-02
RMM:   4    -0.664420402621E+02   -0.54101E-04   -0.10555E-04  3727   0.451E-02
   3 F= -.66442040E+02 E0= -.66442040E+02  d E =-.333230E+00  mag=    -0.0000
 curvature:  -1.85 expect dE=-0.200E+01 dE for cont linesearch -0.194E-02
 trial: gam= 6.03352 g(F)=  0.105E+01 g(S)=  0.267E-01 ort = 0.136E-01 (trialstep = 0.354E-01)
 search vector abs. value=  0.768E+01
 bond charge predicted
       N       E                     dE             d eps       ncg     rms          rms(c)
DAV:   1    -0.664831525913E+02   -0.41166E-01   -0.54512E-02  9600   0.882E-01    0.176E-01
RMM:   2    -0.664827776458E+02    0.37495E-03   -0.95825E-04  3530   0.116E-01
   4 F= -.66482778E+02 E0= -.66482778E+02  d E =-.407374E-01  mag=     0.0000
 ZBRENT: can't locate minimum, use default step
 trial-energy change:   -0.040737  1 .order   -0.041189   -0.041179   -0.041199
 step:   0.1417(harm=  0.1417)  dis= 0.00830  next Energy=   -66.606913 (dE=-0.165E+00)
 bond charge predicted
       N       E                     dE             d eps       ncg     rms          rms(c)
DAV:   1    -0.666018796235E+02   -0.11873E+00   -0.47475E-01  6528   0.262E+00    0.521E-01
RMM:   2    -0.665985832548E+02    0.32964E-02   -0.85066E-03  6528   0.336E-01    0.296E-01
RMM:   3    -0.665969292161E+02    0.16540E-02   -0.21074E-03  5854   0.136E-01    0.141E-02
RMM:   4    -0.665969368556E+02   -0.76395E-05   -0.21911E-05  3017   0.226E-02
   5 F= -.66596937E+02 E0= -.66596937E+02  d E =-.154897E+00  mag=     0.0000
 curvature:  -0.70 expect dE=-0.554E+00 dE for cont linesearch -0.958E-01
 ZBRENT: increasing intervall
 opt :   0.3543  next Energy=   -66.784883 (dE=-0.343E+00)
 bond charge predicted
       N       E                     dE             d eps       ncg     rms          rms(c)
DAV:   1    -0.668121040437E+02   -0.21517E+00   -0.19763E+00  6528   0.525E+00    0.104E+00
RMM:   2    -0.667987651626E+02    0.13339E-01   -0.35805E-02  6528   0.679E-01    0.590E-01
RMM:   3    -0.667920345543E+02    0.67306E-02   -0.88506E-03  6528   0.272E-01    0.232E-02
RMM:   4    -0.667920607236E+02   -0.26169E-04   -0.53950E-05  3523   0.308E-02
   6 F= -.66792061E+02 E0= -.66792061E+02  d E =-.350020E+00  mag=     0.0000
 curvature:  -1.38 expect dE=-0.570E+00 dE for cont linesearch -0.118E+00
 ZBRENT: increasing intervall
 opt :   0.7795  next Energy=   -67.047416 (dE=-0.605E+00)
 bond charge predicted
       N       E                     dE             d eps       ncg     rms          rms(c)
DAV:   1    -0.671230930791E+02   -0.33106E+00   -0.79408E+00  6560   0.103E+01    0.207E+00
RMM:   2    -0.670668983744E+02    0.56195E-01   -0.14981E-01  6528   0.135E+00    0.118E+00
RMM:   3    -0.670387457857E+02    0.28153E-01   -0.39110E-02  6528   0.559E-01    0.515E-02
RMM:   4    -0.670388518561E+02   -0.10607E-03   -0.23180E-04  4061   0.641E-02
   7 F= -.67038852E+02 E0= -.67038852E+02  d E =-.596812E+00  mag=    -0.0000
 curvature:  -2.97 expect dE=-0.759E-01 dE for cont linesearch -0.501E-01
 ZBRENT: increasing intervall
 opt :   1.6299  next Energy=   -66.959844 (dE=-0.518E+00)
 bond charge predicted
       N       E                     dE             d eps       ncg     rms          rms(c)
DAV:   1    -0.672046317296E+02   -0.16589E+00   -0.32261E+01  6528   0.202E+01    0.417E+00
RMM:   2    -0.669608793447E+02    0.24375E+00   -0.66525E-01  6528   0.270E+00    0.238E+00
RMM:   3    -0.668382062617E+02    0.12267E+00   -0.19153E-01  6528   0.120E+00    0.142E-01
RMM:   4    -0.668385747478E+02   -0.36849E-03   -0.96236E-04  5685   0.132E-01
   8 F= -.66838575E+02 E0= -.66838575E+02  d E =-.396534E+00  mag=     0.0000
 curvature:   4.69 expect dE= 0.132E+02 dE for cont linesearch  0.353E+00
 ZBRENT: bracketing found
 ZBRENT: interpolating
 opt :   1.0525  next Energy=   -67.087926 (dE=-0.646E+00)
 bond charge predicted
       N       E                     dE             d eps       ncg     rms          rms(c)
DAV:   1    -0.672707435280E+02   -0.43254E+00   -0.16008E+01  6528   0.152E+01    0.311E+00
RMM:   2    -0.671286107558E+02    0.14213E+00   -0.20965E-01  6528   0.158E+00    0.171E+00
RMM:   3    -0.670734626666E+02    0.55148E-01   -0.81603E-02  6528   0.789E-01    0.809E-02
RMM:   4    -0.670735392211E+02   -0.76554E-04   -0.83970E-04  5617   0.122E-01
   9 F= -.67073539E+02 E0= -.67073539E+02  d E =-.631499E+00  mag=    -0.0000
 curvature:  -0.65 expect dE=-0.202E+00 dE for cont linesearch -0.132E-05
 trial: gam= 0.75872 g(F)=  0.276E+00 g(S)=  0.347E-01 ort =-0.394E-02 (trialstep = 0.239E+00)
 search vector abs. value=  0.472E+01
 bond charge predicted
       N       E                     dE             d eps       ncg     rms          rms(c)
DAV:   1    -0.671420146464E+02   -0.68552E-01   -0.71083E-01  7744   0.326E+00    0.725E-01
RMM:   2    -0.671338832876E+02    0.81314E-02   -0.11596E-02  6528   0.345E-01    0.401E-01
RMM:   3    -0.671304242117E+02    0.34591E-02   -0.49242E-03  6526   0.198E-01    0.244E-02
RMM:   4    -0.671304142527E+02    0.99590E-05   -0.49755E-05  3391   0.319E-02
  10 F= -.67130414E+02 E0= -.67130414E+02  d E =-.568750E-01  mag=     0.0000
 trial-energy change:   -0.056875  1 .order   -0.057753   -0.073429   -0.042077
 step:   0.5594(harm=  0.5594)  dis= 0.01136  next Energy=   -67.159527 (dE=-0.860E-01)
 bond charge predicted
       N       E                     dE             d eps       ncg     rms          rms(c)
DAV:   1    -0.671791711995E+02   -0.48747E-01   -0.12357E+00  6864   0.423E+00    0.950E-01
RMM:   2    -0.671648260304E+02    0.14345E-01   -0.20276E-02  6528   0.449E-01    0.526E-01
RMM:   3    -0.671588488182E+02    0.59772E-02   -0.89551E-03  6528   0.263E-01    0.290E-02
RMM:   4    -0.671588763485E+02   -0.27530E-04   -0.58087E-05  3447   0.327E-02
  11 F= -.67158876E+02 E0= -.67158876E+02  d E =-.853371E-01  mag=     0.0000
 curvature:  -4.30 expect dE=-0.117E+00 dE for cont linesearch -0.690E-04
 trial: gam=-0.01561 g(F)=  0.267E-01 g(S)=  0.570E-03 ort = 0.871E-02 (trialstep = 0.303E+00)
 search vector abs. value=  0.282E-01
 bond charge predicted
       N       E                     dE             d eps       ncg     rms          rms(c)
DAV:   1    -0.671627701114E+02   -0.39213E-02   -0.61317E-02  9392   0.103E+00    0.113E-01
RMM:   2    -0.671629389621E+02   -0.16885E-03   -0.35631E-03  5390   0.246E-01
  12 F= -.67162939E+02 E0= -.67162939E+02  d E =-.406261E-02  mag=     0.0000
 trial-energy change:   -0.004063  1 .order   -0.004117   -0.008222   -0.000012
 step:   0.3034(harm=  0.3034)  dis= 0.00538  next Energy=   -67.162993 (dE=-0.412E-02)
 bond charge predicted
       N       E                     dE             d eps       ncg     rms          rms(c)
DAV:   1    -0.671628210362E+02   -0.50925E-04   -0.12204E-04  5968   0.812E-02    0.159E-02
RMM:   2    -0.671628165314E+02    0.45048E-05   -0.86072E-05  3277   0.312E-02
  13 F= -.67162817E+02 E0= -.67162817E+02  d E =-.394018E-02  mag=     0.0000
 curvature:  -0.16 expect dE=-0.346E-04 dE for cont linesearch -0.480E-05
 trial: gam= 0.03740 g(F)=  0.211E-03 g(S)=  0.898E-05 ort =-0.927E-03 (trialstep = 0.303E+00)
 search vector abs. value=  0.190E-03
 reached required accuracy - stopping structural energy minimisation
