   10   10   60    1
  0.9416743E+01  0.3265522E-09  0.4662249E-09  0.6797033E-09  0.5000000E-15
  1.000000000000000E-004
  CAR 
 unknown system                          
     39    326     28
 
  0.3742002E-15  0.3742002E-15  0.3742002E-15  0.1543210E-02
    1      -31.982310   1.000000
    2      -27.915490   1.000000
    3      -27.741593   1.000000
    4      -27.723716   1.000000
    5      -27.585347   1.000000
    6      -27.465321   1.000000
    7      -27.195382   1.000000
    8      -14.075434   1.000000
    9      -14.016526   1.000000
   10      -13.590171   1.000000
   11       -5.571543   1.000000
   12       -2.945829   1.000000
   13       -2.039936   1.000000
   14       -1.885685   1.000000
   15       -0.651283   1.000000
   16        0.629240   1.000000
   17        1.660561   1.000000
   18        2.657341   1.000000
   19        2.746209   1.000000
   20        4.086681   0.000000
   21        4.251102   0.000000
   22        4.539763   0.000000
   23        4.770096   0.000000
   24        5.527242   0.000000
   25        5.810770   0.000000
   26        6.875409   0.000000
   27        7.557932   0.000000
   28        8.460070   0.000000
 
  0.8333333E-01  0.3742124E-15  0.3729655E-15  0.3086420E-02
    1      -31.973674   1.000000
    2      -27.909054   1.000000
    3      -27.743454   1.000000
    4      -27.734266   1.000000
    5      -27.597193   1.000000
    6      -27.479293   1.000000
    7      -27.197792   1.000000
    8      -14.063699   1.000000
    9      -14.002737   1.000000
   10      -13.682117   1.000000
   11       -5.441217   1.000000
   12       -2.873890   1.000000
   13       -2.033572   1.000000
   14       -1.830544   1.000000
   15       -0.661918   1.000000
   16        0.591593   1.000000
   17        1.485267   1.000000
   18        2.599302   1.000000
   19        2.753312   1.000000
   20        3.934208   0.000000
   21        4.278137   0.000000
   22        4.484717   0.000000
   23        4.957245   0.000000
   24        5.620989   0.000000
   25        5.893400   0.000000
   26        7.236714   0.000000
   27        7.521211   0.000000
   28        8.246597   0.000000
 
  0.1666667E+00  0.3757845E-15  0.3677614E-15  0.3086420E-02
    1      -31.949991   1.000000
    2      -27.891825   1.000000
    3      -27.779448   1.000000
    4      -27.744471   1.000000
    5      -27.626177   1.000000
    6      -27.509858   1.000000
    7      -27.204686   1.000000
    8      -14.032427   1.000000
    9      -13.966780   1.000000
   10      -13.923232   1.000000
   11       -5.070710   1.000000
   12       -2.752773   1.000000
   13       -2.003765   1.000000
   14       -1.683172   1.000000
   15       -0.686648   1.000000
   16        0.451009   1.000000
   17        1.135497   1.000000
   18        2.458890   1.000000
   19        2.726342   1.000000
   20        3.618594   0.003033
   21        4.256767   0.000000
   22        4.471182   0.000000
   23        5.486436   0.000000
   24        5.852665   0.000000
   25        6.280957   0.000000
   26        7.174317   0.000000
   27        7.734343   0.000000
   28        8.309969   0.000000
 
  0.2500000E+00  0.3754592E-15  0.3781697E-15  0.3086420E-02
    1      -31.917337   1.000000
    2      -27.869085   1.000000
    3      -27.843458   1.000000
    4      -27.773282   1.000000
    5      -27.651327   1.000000
    6      -27.532759   1.000000
    7      -27.214177   1.000000
    8      -14.240088   1.000000
    9      -13.987599   1.000000
   10      -13.912088   1.000000
   11       -4.517659   1.000000
   12       -2.740607   1.000000
   13       -1.990057   1.000000
   14       -1.419880   1.000000
   15       -0.691172   1.000000
   16        0.234171   1.000000
   17        0.832936   1.000000
   18        2.182963   1.000000
   19        2.578463   1.000000
   20        3.509313  -0.031200
   21        4.378127   0.000000
   22        4.600048   0.000000
   23        5.774428   0.000000
   24        6.373809   0.000000
   25        6.659282   0.000000
   26        6.989365   0.000000
   27        7.642561   0.000000
   28        8.710889   0.000000
 
  0.3333333E+00  0.3747003E-15  0.3747003E-15  0.3086420E-02
    1      -31.884328   1.000000
    2      -27.916219   1.000000
    3      -27.847707   1.000000
    4      -27.823059   1.000000
    5      -27.656386   1.000000
    6      -27.541864   1.000000
    7      -27.224102   1.000000
    8      -14.535585   1.000000
    9      -13.943109   1.000000
   10      -13.858585   1.000000
   11       -3.886757   1.000000
   12       -2.788947   1.000000
   13       -2.100763   1.000000
   14       -1.147536   1.000000
   15       -0.660552   1.000000
   16        0.035800   1.000000
   17        0.655939   1.000000
   18        1.781021   1.000000
   19        2.373210   1.000000
   20        3.621790   0.002798
   21        4.707515   0.000000
   22        4.872104   0.000000
   23        5.893751   0.000000
   24        6.315935   0.000000
   25        6.826479   0.000000
   26        7.405959   0.000000
   27        7.590465   0.000000
   28        8.316931   0.000000
 
  0.4166667E+00  0.3753508E-15  0.3608225E-15  0.3086420E-02
    1      -31.859933   1.000000
    2      -27.968397   1.000000
    3      -27.884498   1.000000
    4      -27.817428   1.000000
    5      -27.653056   1.000000
    6      -27.543905   1.000000
    7      -27.231791   1.000000
    8      -14.742204   1.000000
    9      -13.909975   1.000000
   10      -13.818587   1.000000
   11       -3.423827   1.000000
   12       -2.678409   1.000000
   13       -2.198588   1.000000
   14       -1.286654   1.000000
   15       -0.510050   1.000000
   16       -0.096145   1.000000
   17        0.681603   1.000000
   18        1.421220   1.000000
   19        2.189092   1.000000
   20        3.691460   0.000194
   21        5.026709   0.000000
   22        5.362320   0.000000
   23        6.055211   0.000000
   24        6.189628   0.000000
   25        6.964663   0.000000
   26        7.157149   0.000000
   27        7.606207   0.000000
   28        8.150859   0.000000
 
  0.5000000E+00  0.3760013E-15  0.3677614E-15  0.1543210E-02
    1      -31.850955   1.000000
    2      -27.987778   1.000000
    3      -27.903509   1.000000
    4      -27.810517   1.000000
    5      -27.651080   1.000000
    6      -27.544154   1.000000
    7      -27.234733   1.000000
    8      -14.816070   1.000000
    9      -13.897759   1.000000
   10      -13.803728   1.000000
   11       -3.321532   1.000000
   12       -2.534181   1.000000
   13       -2.091205   1.000000
   14       -1.583183   1.000000
   15       -0.411015   1.000000
   16       -0.157762   1.000000
   17        0.778657   1.000000
   18        1.244980   1.000000
   19        2.108341   1.000000
   20        3.699680   0.000128
   21        5.162269   0.000000
   22        5.694021   0.000000
   23        6.029729   0.000000
   24        6.404187   0.000000
   25        6.727959   0.000000
   26        7.051304   0.000000
   27        7.487900   0.000000
   28        8.300717   0.000000
 
  0.3749171E-15  0.1111111E+00  0.3955170E-15  0.3086420E-02
    1      -31.982108   1.000000
    2      -27.917344   1.000000
    3      -27.751075   1.000000
    4      -27.716263   1.000000
    5      -27.584540   1.000000
    6      -27.458942   1.000000
    7      -27.199839   1.000000
    8      -14.076433   1.000000
    9      -14.025778   1.000000
   10      -13.589788   1.000000
   11       -5.452334   1.000000
   12       -2.980815   1.000000
   13       -2.119334   1.000000
   14       -1.771140   1.000000
   15       -0.712360   1.000000
   16        0.594285   1.000000
   17        1.626095   1.000000
   18        2.507883   1.000000
   19        2.825778   1.000000
   20        4.087043   0.000000
   21        4.266469   0.000000
   22        4.541758   0.000000
   23        4.734703   0.000000
   24        5.289055   0.000000
   25        5.963021   0.000000
   26        6.910244   0.000000
   27        7.777089   0.000000
   28        8.491966   0.000000
 
  0.8333333E-01  0.1111111E+00  0.3747003E-15  0.3086420E-02
    1      -31.973484   1.000000
    2      -27.910940   1.000000
    3      -27.752353   1.000000
    4      -27.730394   1.000000
    5      -27.596372   1.000000
    6      -27.468111   1.000000
    7      -27.204699   1.000000
    8      -14.065031   1.000000
    9      -14.012443   1.000000
   10      -13.681842   1.000000
   11       -5.312277   1.000000
   12       -2.916872   1.000000
   13       -2.176456   1.000000
   14       -1.670974   1.000000
   15       -0.765224   1.000000
   16        0.675832   1.000000
   17        1.495062   1.000000
   18        2.451701   1.000000
   19        2.722077   1.000000
   20        3.863192   0.000000
   21        4.285397   0.000000
   22        4.584630   0.000000
   23        4.912281   0.000000
   24        5.459440   0.000000
   25        5.936780   0.000000
   26        7.361015   0.000000
   27        7.751377   0.000000
   28        8.298755   0.000000
 
  0.1666667E+00  0.1111111E+00  0.4024558E-15  0.3086420E-02
    1      -31.949806   1.000000
    2      -27.894297   1.000000
    3      -27.779220   1.000000
    4      -27.753813   1.000000
    5      -27.624504   1.000000
    6      -27.493886   1.000000
    7      -27.212131   1.000000
    8      -14.033870   1.000000
    9      -13.975225   1.000000
   10      -13.923339   1.000000
   11       -4.941039   1.000000
   12       -2.771494   1.000000
   13       -2.159639   1.000000
   14       -1.536648   1.000000
   15       -0.826227   1.000000
   16        0.605830   1.000000
   17        1.179825   1.000000
   18        2.319692   1.000000
   19        2.668079   1.000000
   20        3.449877  -0.013862
   21        4.239712   0.000000
   22        4.653276   0.000000
   23        5.416560   0.000000
   24        5.946640   0.000000
   25        6.135459   0.000000
   26        7.338636   0.000000
   27        7.993853   0.000000
   28        8.307201   0.000000
 
  0.2500000E+00  0.1111111E+00  0.3747003E-15  0.3086420E-02
    1      -31.917149   1.000000
    2      -27.876370   1.000000
    3      -27.842876   1.000000
    4      -27.779597   1.000000
    5      -27.651453   1.000000
    6      -27.513997   1.000000
    7      -27.220546   1.000000
    8      -14.238757   1.000000
    9      -13.988949   1.000000
   10      -13.920351   1.000000
   11       -4.396753   1.000000
   12       -2.745358   1.000000
   13       -2.019467   1.000000
   14       -1.428504   1.000000
   15       -0.809639   1.000000
   16        0.315773   1.000000
   17        0.982533   1.000000
   18        2.035212   1.000000
   19        2.578780   1.000000
   20        3.258572   1.034188
   21        4.346311   0.000000
   22        4.840936   0.000000
   23        5.745696   0.000000
   24        6.444609   0.000000
   25        6.616071   0.000000
   26        6.991046   0.000000
   27        7.841551   0.000000
   28        8.514734   0.000000
 
  0.3333333E+00  0.1111111E+00  0.3885781E-15  0.3086420E-02
    1      -31.884137   1.000000
    2      -27.923860   1.000000
    3      -27.857898   1.000000
    4      -27.817262   1.000000
    5      -27.659235   1.000000
    6      -27.522764   1.000000
    7      -27.228643   1.000000
    8      -14.533697   1.000000
    9      -13.944530   1.000000
   10      -13.865455   1.000000
   11       -3.792954   1.000000
   12       -2.784458   1.000000
   13       -2.036610   1.000000
   14       -1.219365   1.000000
   15       -0.741965   1.000000
   16        0.006121   1.000000
   17        0.843215   1.000000
   18        1.661024   1.000000
   19        2.381837   1.000000
   20        3.365306   0.676636
   21        4.692608   0.000000
   22        5.120321   0.000000
   23        5.910829   0.000000
   24        6.537435   0.000000
   25        6.801064   0.000000
   26        7.034989   0.000000
   27        7.731585   0.000000
   28        8.371486   0.000000
 
  0.4166667E+00  0.1111111E+00  0.3469447E-15  0.3086420E-02
    1      -31.859745   1.000000
    2      -27.975416   1.000000
    3      -27.895026   1.000000
    4      -27.812045   1.000000
    5      -27.657108   1.000000
    6      -27.526307   1.000000
    7      -27.234310   1.000000
    8      -14.740307   1.000000
    9      -13.911260   1.000000
   10      -13.824391   1.000000
   11       -3.367111   1.000000
   12       -2.663454   1.000000
   13       -2.139496   1.000000
   14       -1.257308   1.000000
   15       -0.571664   1.000000
   16       -0.210556   1.000000
   17        0.746387   1.000000
   18        1.394962   1.000000
   19        2.203643   1.000000
   20        3.503375  -0.036851
   21        5.059110   0.000000
   22        5.460848   0.000000
   23        6.069153   0.000000
   24        6.415879   0.000000
   25        6.799443   0.000000
   26        7.164495   0.000000
   27        7.507423   0.000000
   28        8.193102   0.000000
 
  0.5000000E+00  0.1111111E+00  0.3747003E-15  0.3086420E-02
    1      -31.850755   1.000000
    2      -27.993769   1.000000
    3      -27.914346   1.000000
    4      -27.805618   1.000000
    5      -27.655660   1.000000
    6      -27.528325   1.000000
    7      -27.234900   1.000000
    8      -14.813958   1.000000
    9      -13.898793   1.000000
   10      -13.808563   1.000000
   11       -3.260899   1.000000
   12       -2.490016   1.000000
   13       -2.096412   1.000000
   14       -1.547704   1.000000
   15       -0.442104   1.000000
   16       -0.188048   1.000000
   17        0.555919   1.000000
   18        1.411317   1.000000
   19        2.143737   1.000000
   20        3.600668   0.004331
   21        5.076273   0.000000
   22        5.619775   0.000000
   23        6.177260   0.000000
   24        6.411071   0.000000
   25        6.606238   0.000000
   26        7.245817   0.000000
   27        7.549156   0.000000
   28        8.288746   0.000000
 
 -0.4166667E+00  0.1111111E+00  0.3833739E-15  0.3086420E-02
    1      -31.859720   1.000000
    2      -27.973732   1.000000
    3      -27.897018   1.000000
    4      -27.811057   1.000000
    5      -27.658157   1.000000
    6      -27.529484   1.000000
    7      -27.230060   1.000000
    8      -14.740066   1.000000
    9      -13.910656   1.000000
   10      -13.822843   1.000000
   11       -3.347271   1.000000
   12       -2.587055   1.000000
   13       -2.245333   1.000000
   14       -1.293100   1.000000
   15       -0.538219   1.000000
   16       -0.021944   1.000000
   17        0.316883   1.000000
   18        1.630720   1.000000
   19        2.232713   1.000000
   20        3.663472   0.000681
   21        4.853768   0.000000
   22        5.394232   0.000000
   23        5.994341   0.000000
   24        6.124708   0.000000
   25        6.970113   0.000000
   26        7.177917   0.000000
   27        7.731284   0.000000
   28        8.237138   0.000000
 
 -0.3333333E+00  0.1111111E+00  0.3851086E-15  0.3086420E-02
    1      -31.884111   1.000000
    2      -27.923745   1.000000
    3      -27.855642   1.000000
    4      -27.818234   1.000000
    5      -27.662071   1.000000
    6      -27.528767   1.000000
    7      -27.221465   1.000000
    8      -14.533720   1.000000
    9      -13.943761   1.000000
   10      -13.863079   1.000000
   11       -3.810101   1.000000
   12       -2.680685   1.000000
   13       -2.159324   1.000000
   14       -1.087849   1.000000
   15       -0.713665   1.000000
   16        0.070555   1.000000
   17        0.266516   1.000000
   18        1.964405   1.000000
   19        2.408503   1.000000
   20        3.640270   0.001615
   21        4.550926   0.000000
   22        4.930911   0.000000
   23        5.849213   0.000000
   24        6.221028   0.000000
   25        6.878528   0.000000
   26        7.220742   0.000000
   27        7.647251   0.000000
   28        8.469770   0.000000
 
 -0.2500000E+00  0.1111111E+00  0.3955170E-15  0.3086420E-02
    1      -31.917117   1.000000
    2      -27.884084   1.000000
    3      -27.829662   1.000000
    4      -27.780525   1.000000
    5      -27.656949   1.000000
    6      -27.522081   1.000000
    7      -27.211549   1.000000
    8      -14.238621   1.000000
    9      -13.988262   1.000000
   10      -13.917346   1.000000
   11       -4.436822   1.000000
   12       -2.629129   1.000000
   13       -2.056882   1.000000
   14       -1.373634   1.000000
   15       -0.688256   1.000000
   16        0.143861   1.000000
   17        0.513092   1.000000
   18        2.284778   1.000000
   19        2.673310   1.000000
   20        3.527175  -0.014930
   21        4.285083   0.000000
   22        4.595151   0.000000
   23        5.799009   0.000000
   24        6.384219   0.000000
   25        6.583441   0.000000
   26        6.876452   0.000000
   27        7.676099   0.000000
   28        8.786468   0.000000
 
 -0.1666667E+00  0.1111111E+00  0.3816392E-15  0.3086420E-02
    1      -31.949773   1.000000
    2      -27.896702   1.000000
    3      -27.773129   1.000000
    4      -27.752241   1.000000
    5      -27.628647   1.000000
    6      -27.503404   1.000000
    7      -27.203352   1.000000
    8      -14.033155   1.000000
    9      -13.974494   1.000000
   10      -13.921130   1.000000
   11       -4.977899   1.000000
   12       -2.688211   1.000000
   13       -2.041869   1.000000
   14       -1.650683   1.000000
   15       -0.667759   1.000000
   16        0.275477   1.000000
   17        0.931741   1.000000
   18        2.423050   1.000000
   19        2.977689   0.999999
   20        3.519763  -0.021320
   21        4.234692   0.000000
   22        4.454764   0.000000
   23        5.437841   0.000000
   24        5.878640   0.000000
   25        6.354254   0.000000
   26        7.121402   0.000000
   27        7.574712   0.000000
   28        8.437058   0.000000
 
 -0.8333333E-01  0.1111111E+00  0.3747003E-15  0.3086420E-02
    1      -31.973473   1.000000
    2      -27.911827   1.000000
    3      -27.750215   1.000000
    4      -27.729637   1.000000
    5      -27.596642   1.000000
    6      -27.475543   1.000000
    7      -27.199069   1.000000
    8      -14.064693   1.000000
    9      -14.011293   1.000000
   10      -13.681439   1.000000
   11       -5.335081   1.000000
   12       -2.876840   1.000000
   13       -2.056257   1.000000
   14       -1.779316   1.000000
   15       -0.685595   1.000000
   16        0.455057   1.000000
   17        1.368664   1.000000
   18        2.486470   1.000000
   19        2.959902   1.000000
   20        3.831098   0.000000
   21        4.278277   0.000000
   22        4.538081   0.000000
   23        4.883885   0.000000
   24        5.483233   0.000000
   25        6.119254   0.000000
   26        7.103935   0.000000
   27        7.593321   0.000000
   28        8.318071   0.000000
 
  0.3725319E-15  0.2222222E+00  0.3747003E-15  0.3086420E-02
    1      -31.981603   1.000000
    2      -27.917825   1.000000
    3      -27.776301   1.000000
    4      -27.701360   1.000000
    5      -27.582409   1.000000
    6      -27.440931   1.000000
    7      -27.212278   1.000000
    8      -14.082274   1.000000
    9      -14.044780   1.000000
   10      -13.589087   1.000000
   11       -5.114915   1.000000
   12       -3.119945   1.000000
   13       -2.115009   1.000000
   14       -1.658485   1.000000
   15       -0.871419   1.000000
   16        0.518283   1.000000
   17        1.483788   1.000000
   18        2.222184   1.000000
   19        2.935523   1.000000
   20        4.000932   0.000000
   21        4.324286   0.000000
   22        4.528164   0.000000
   23        4.817863   0.000000
   24        5.040494   0.000000
   25        6.074888   0.000000
   26        7.111471   0.000000
   27        7.939856   0.000000
   28        8.572679   0.000000
 
  0.8333333E-01  0.2222222E+00  0.3885781E-15  0.3086420E-02
    1      -31.972985   1.000000
    2      -27.911971   1.000000
    3      -27.776954   1.000000
    4      -27.720236   1.000000
    5      -27.593964   1.000000
    6      -27.444528   1.000000
    7      -27.218285   1.000000
    8      -14.070963   1.000000
    9      -14.031272   1.000000
   10      -13.680722   1.000000
   11       -4.972064   1.000000
   12       -3.048328   1.000000
   13       -2.195358   1.000000
   14       -1.550985   1.000000
   15       -0.922810   1.000000
   16        0.668969   1.000000
   17        1.294633   1.000000
   18        2.182266   1.000000
   19        2.877962   1.000000
   20        3.752319   0.000006
   21        4.174743   0.000000
   22        4.746029   0.000000
   23        4.857602   0.000000
   24        5.329581   0.000000
   25        6.060102   0.000000
   26        7.516190   0.000000
   27        7.863950   0.000000
   28        8.407968   0.000000
 
  0.1666667E+00  0.2222222E+00  0.3885781E-15  0.3086420E-02
    1      -31.949305   1.000000
    2      -27.898836   1.000000
    3      -27.781022   1.000000
    4      -27.770088   1.000000
    5      -27.625822   1.000000
    6      -27.460569   1.000000
    7      -27.224308   1.000000
    8      -14.039465   1.000000
    9      -13.992441   1.000000
   10      -13.921498   1.000000
   11       -4.608760   1.000000
   12       -2.819008   1.000000
   13       -2.260468   1.000000
   14       -1.386615   1.000000
   15       -1.008609   1.000000
   16        0.689529   1.000000
   17        0.923160   1.000000
   18        2.155510   1.000000
   19        2.771746   1.000000
   20        3.209400   0.998999
   21        4.069866   0.000000
   22        4.959293   0.000000
   23        5.379264   0.000000
   24        5.947079   0.000000
   25        6.114787   0.000000
   26        7.397304   0.000000
   27        8.225671   0.000000
   28        8.310837   0.000000
 
  0.2500000E+00  0.2222222E+00  0.4440892E-15  0.3086420E-02
    1      -31.916649   1.000000
    2      -27.895732   1.000000
    3      -27.832809   1.000000
    4      -27.796122   1.000000
    5      -27.658859   1.000000
    6      -27.473750   1.000000
    7      -27.229920   1.000000
    8      -14.235262   1.000000
    9      -13.993859   1.000000
   10      -13.936234   1.000000
   11       -4.090369   1.000000
   12       -2.669639   1.000000
   13       -2.162364   1.000000
   14       -1.360588   1.000000
   15       -0.976296   1.000000
   16        0.351727   1.000000
   17        0.822214   1.000000
   18        1.986186   1.000000
   19        2.623308   1.000000
   20        2.923181   1.000000
   21        4.174755   0.000000
   22        5.248049   0.000000
   23        5.747563   0.000000
   24        6.173363   0.000000
   25        6.662814   0.000000
   26        7.090643   0.000000
   27        8.218980   0.000000
   28        8.396602   0.000000
 
  0.3333333E+00  0.2222222E+00  0.4440892E-15  0.3086420E-02
    1      -31.883632   1.000000
    2      -27.941356   1.000000
    3      -27.874640   1.000000
    4      -27.808713   1.000000
    5      -27.670834   1.000000
    6      -27.481014   1.000000
    7      -27.234815   1.000000
    8      -14.529391   1.000000
    9      -13.948819   1.000000
   10      -13.878946   1.000000
   11       -3.534144   1.000000
   12       -2.681079   1.000000
   13       -2.024421   1.000000
   14       -1.317315   1.000000
   15       -0.917651   1.000000
   16        0.088010   1.000000
   17        0.678382   1.000000
   18        1.683850   1.000000
   19        2.413088   1.000000
   20        2.991555   0.999998
   21        4.550282   0.000000
   22        5.502328   0.000000
   23        5.838528   0.000000
   24        6.339969   0.000000
   25        6.782289   0.000000
   26        7.140815   0.000000
   27        8.073509   0.000000
   28        8.551257   0.000000
 
  0.4166667E+00  0.2222222E+00  0.4163336E-15  0.3086420E-02
    1      -31.859226   1.000000
    2      -27.989910   1.000000
    3      -27.918923   1.000000
    4      -27.799126   1.000000
    5      -27.669659   1.000000
    6      -27.485615   1.000000
    7      -27.237447   1.000000
    8      -14.735094   1.000000
    9      -13.915101   1.000000
   10      -13.835682   1.000000
   11       -3.174974   1.000000
   12       -2.541428   1.000000
   13       -2.103170   1.000000
   14       -1.185120   1.000000
   15       -0.948802   1.000000
   16       -0.013624   1.000000
   17        0.482498   1.000000
   18        1.505971   1.000000
   19        2.250861   1.000000
   20        3.156181   0.996218
   21        4.882899   0.000000
   22        5.718061   0.000000
   23        5.875371   0.000000
   24        6.392491   0.000000
   25        6.795890   0.000000
   26        7.401020   0.000000
   27        7.762890   0.000000
   28        8.223180   0.000000
 
  0.5000000E+00  0.2222222E+00  0.3608225E-15  0.3086420E-02
    1      -31.850239   1.000000
    2      -28.006960   1.000000
    3      -27.939421   1.000000
    4      -27.793066   1.000000
    5      -27.668582   1.000000
    6      -27.489090   1.000000
    7      -27.236140   1.000000
    8      -14.808611   1.000000
    9      -13.902539   1.000000
   10      -13.818817   1.000000
   11       -3.086343   1.000000
   12       -2.366879   1.000000
   13       -2.118646   1.000000
   14       -1.424326   1.000000
   15       -0.746859   1.000000
   16       -0.064883   1.000000
   17        0.278713   1.000000
   18        1.556206   1.000000
   19        2.210623   1.000000
   20        3.306977   1.033448
   21        4.860472   0.000000
   22        5.693277   0.000000
   23        6.129382   0.000000
   24        6.342256   0.000000
   25        6.718696   0.000000
   26        7.439478   0.000000
   27        7.711944   0.000000
   28        8.293454   0.000000
 
 -0.4166667E+00  0.2222222E+00  0.4163336E-15  0.3086420E-02
    1      -31.859208   1.000000
    2      -27.986223   1.000000
    3      -27.923962   1.000000
    4      -27.797349   1.000000
    5      -27.671331   1.000000
    6      -27.491270   1.000000
    7      -27.230701   1.000000
    8      -14.735129   1.000000
    9      -13.914443   1.000000
   10      -13.833462   1.000000
   11       -3.151335   1.000000
   12       -2.422362   1.000000
   13       -2.255342   1.000000
   14       -1.256311   1.000000
   15       -0.591501   1.000000
   16       -0.404280   1.000000
   17        0.276677   1.000000
   18        1.761780   1.000000
   19        2.292471   1.000000
   20        3.383181   0.491577
   21        4.764552   0.000000
   22        5.423938   0.000000
   23        5.962057   0.000000
   24        6.406960   0.000000
   25        6.643863   0.000000
   26        7.238540   0.000000
   27        7.682818   0.000000
   28        8.484033   0.000000
 
 -0.3333333E+00  0.2222222E+00  0.4302114E-15  0.3086420E-02
    1      -31.883598   1.000000
    2      -27.937893   1.000000
    3      -27.879547   1.000000
    4      -27.804662   1.000000
    5      -27.675344   1.000000
    6      -27.491188   1.000000
    7      -27.222809   1.000000
    8      -14.529277   1.000000
    9      -13.947758   1.000000
   10      -13.874945   1.000000
   11       -3.580040   1.000000
   12       -2.484138   1.000000
   13       -2.178117   1.000000
   14       -1.102358   1.000000
   15       -0.840662   1.000000
   16       -0.310183   1.000000
   17        0.271688   1.000000
   18        2.064097   1.000000
   19        2.427887   1.000000
   20        3.321426   0.991181
   21        4.659247   0.000000
   22        5.038602   0.000000
   23        5.868773   0.000000
   24        6.353616   0.000000
   25        6.617324   0.000000
   26        7.059665   0.000000
   27        7.701845   0.000000
   28        8.606331   0.000000
 
 -0.2500000E+00  0.2222222E+00  0.4302114E-15  0.3086420E-02
    1      -31.916604   1.000000
    2      -27.900036   1.000000
    3      -27.825577   1.000000
    4      -27.791512   1.000000
    5      -27.668214   1.000000
    6      -27.486937   1.000000
    7      -27.214896   1.000000
    8      -14.235190   1.000000
    9      -13.992678   1.000000
   10      -13.931158   1.000000
   11       -4.169593   1.000000
   12       -2.438326   1.000000
   13       -2.132298   1.000000
   14       -1.435155   1.000000
   15       -0.806333   1.000000
   16        0.004583   1.000000
   17        0.330153   1.000000
   18        2.306702   1.000000
   19        2.655328   1.000000
   20        3.179375   0.995068
   21        4.518123   0.000000
   22        4.788285   0.000000
   23        5.801034   0.000000
   24        6.286527   0.000000
   25        6.601981   0.000000
   26        6.720966   0.000000
   27        7.751669   0.000000
   28        8.488756   0.000000
 
 -0.1666667E+00  0.2222222E+00  0.3469447E-15  0.3086420E-02
    1      -31.949262   1.000000
    2      -27.902603   1.000000
    3      -27.776861   1.000000
    4      -27.761436   1.000000
    5      -27.634538   1.000000
    6      -27.475016   1.000000
    7      -27.209415   1.000000
    8      -14.038315   1.000000
    9      -13.990636   1.000000
   10      -13.918471   1.000000
   11       -4.678791   1.000000
   12       -2.659709   1.000000
   13       -2.102085   1.000000
   14       -1.580266   1.000000
   15       -0.815117   1.000000
   16        0.162424   1.000000
   17        0.756124   1.000000
   18        2.318670   1.000000
   19        2.948675   1.000000
   20        3.198541   0.996399
   21        4.508263   0.000000
   22        4.679375   0.000000
   23        5.374143   0.000000
   24        5.865125   0.000000
   25        6.334343   0.000000
   26        7.047035   0.000000
   27        7.666157   0.000000
   28        8.485593   0.000000
 
 -0.8333333E-01  0.2222222E+00  0.3608225E-15  0.3086420E-02
    1      -31.972962   1.000000
    2      -27.913606   1.000000
    3      -27.774156   1.000000
    4      -27.716796   1.000000