   18   18   60    1
  0.9259956E+01  0.3808117E-09  0.6518532E-09  0.7153770E-09  0.5000000E-15
  1.000000000000000E-004
  CAR 
 unknown system                          
     56    232     40
 
  0.3742002E-15  0.3742002E-15  0.3742002E-15  0.2164502E-02
    1      -33.361577   1.000000
    2      -32.074515   1.000000
    3      -29.497595   1.000000
    4      -29.401789   1.000000
    5      -29.272007   1.000000
    6      -29.235202   1.000000
    7      -29.160137   1.000000
    8      -29.091442   1.000000
    9      -15.418279   1.000000
   10      -15.355848   1.000000
   11      -15.347011   1.000000
   12      -14.295537   1.000000
   13      -14.246379   1.000000
   14      -13.983761   1.000000
   15       -6.742778   1.000000
   16       -4.220892   1.000000
   17       -3.891051   1.000000
   18       -3.012832   1.000000
   19       -2.491252   1.000000
   20       -2.135124   1.000000
   21       -2.038760   1.000000
   22       -1.597026   1.000000
   23       -1.479687   1.000000
   24       -1.115410   1.000000
   25       -0.849244   1.000000
   26       -0.793616   1.000000
   27        0.471969   1.000000
   28        1.250715   0.859343
   29        3.103295   0.000000
   30        3.129458   0.000000
   31        3.573803   0.000000
   32        4.463929   0.000000
   33        4.536991   0.000000
   34        5.812937   0.000000
   35        6.038258   0.000000
   36        6.273174   0.000000
   37        6.745043   0.000000
   38        6.831380   0.000000
   39        7.038045   0.000000
   40        7.073210   0.000000
 
  0.9090909E-01  0.3560520E-15  0.3747003E-15  0.4329004E-02
    1      -33.359779   1.000000
    2      -32.072585   1.000000
    3      -29.498190   1.000000
    4      -29.407644   1.000000
    5      -29.279688   1.000000
    6      -29.230625   1.000000
    7      -29.159473   1.000000
    8      -29.091673   1.000000
    9      -15.414202   1.000000
   10      -15.382475   1.000000
   11      -15.345342   1.000000
   12      -14.290870   1.000000
   13      -14.242550   1.000000
   14      -14.017661   1.000000
   15       -6.637631   1.000000
   16       -4.145021   1.000000
   17       -3.847517   1.000000
   18       -2.972382   1.000000
   19       -2.475962   1.000000
   20       -2.145720   1.000000
   21       -2.066152   1.000000
   22       -1.718047   1.000000
   23       -1.375714   1.000000
   24       -1.111072   1.000000
   25       -0.895150   1.000000
   26       -0.834941   1.000000
   27        0.447552   1.000000
   28        1.184030   1.049330
   29        3.045432   0.000000
   30        3.191035   0.000000
   31        3.648074   0.000000
   32        4.288091   0.000000
   33        4.567340   0.000000
   34        5.693541   0.000000
   35        5.956157   0.000000
   36        6.294005   0.000000
   37        6.330021   0.000000
   38        6.979466   0.000000
   39        7.121807   0.000000
   40        7.456051   0.000000
 
  0.1818182E+00  0.3627740E-15  0.3642919E-15  0.4329004E-02
    1      -33.354961   1.000000
    2      -32.067418   1.000000
    3      -29.502019   1.000000
    4      -29.421729   1.000000
    5      -29.295695   1.000000
    6      -29.221733   1.000000
    7      -29.159182   1.000000
    8      -29.092590   1.000000
    9      -15.460577   1.000000
   10      -15.403141   1.000000
   11      -15.334052   1.000000
   12      -14.278666   1.000000
   13      -14.232538   1.000000
   14      -14.107164   1.000000
   15       -6.335894   1.000000
   16       -3.951503   1.000000
   17       -3.721414   1.000000
   18       -2.893652   1.000000
   19       -2.497526   1.000000
   20       -2.218743   1.000000
   21       -2.062845   1.000000
   22       -1.806580   1.000000
   23       -1.356844   1.000000
   24       -1.157198   1.000000
   25       -1.020283   1.000000
   26       -0.840505   1.000000
   27        0.374348   1.000000
   28        1.007754   0.999312
   29        2.958233   0.000000
   30        3.249891   0.000000
   31        3.755084   0.000000
   32        4.006098   0.000000
   33        4.649250   0.000000
   34        5.506738   0.000000
   35        5.845223   0.000000
   36        6.028846   0.000000
   37        6.434371   0.000000
   38        6.896695   0.000000
   39        7.114431   0.000000
   40        7.316001   0.000000
 
  0.2727273E+00  0.3196228E-15  0.3885781E-15  0.4329004E-02
    1      -33.348643   1.000000
    2      -32.060641   1.000000
    3      -29.511867   1.000000
    4      -29.436948   1.000000
    5      -29.310227   1.000000
    6      -29.211715   1.000000
    7      -29.161819   1.000000
    8      -29.093866   1.000000
    9      -15.560541   1.000000
   10      -15.388694   1.000000
   11      -15.319006   1.000000
   12      -14.263513   1.000000
   13      -14.225091   1.000000
   14      -14.214104   1.000000
   15       -5.873754   1.000000
   16       -3.716560   1.000000
   17       -3.567811   1.000000
   18       -2.906512   1.000000
   19       -2.531476   1.000000
   20       -2.288361   1.000000
   21       -2.004720   1.000000
   22       -1.848780   1.000000
   23       -1.502676   1.000000
   24       -1.232196   1.000000
   25       -1.120973   1.000000
   26       -0.747348   1.000000
   27        0.225562   1.000000
   28        0.804625   1.000000
   29        2.843472   0.000000
   30        3.233749   0.000000
   31        3.621549   0.000000
   32        4.069791   0.000000
   33        4.841485   0.000000
   34        5.262988   0.000000
   35        5.838586   0.000000
   36        6.071134   0.000000
   37        6.425155   0.000000
   38        6.721668   0.000000
   39        6.989354   0.000000
   40        7.221977   0.000000
 
  0.3636364E+00  0.3339343E-15  0.3816392E-15  0.4329004E-02
    1      -33.342820   1.000000
    2      -32.054390   1.000000
    3      -29.524614   1.000000
    4      -29.449851   1.000000
    5      -29.317621   1.000000
    6      -29.201107   1.000000
    7      -29.168565   1.000000
    8      -29.095127   1.000000
    9      -15.649895   1.000000
   10      -15.375259   1.000000
   11      -15.305448   1.000000
   12      -14.322975   1.000000
   13      -14.246911   1.000000
   14      -14.206329   1.000000
   15       -5.303313   1.000000
   16       -3.689410   1.000000
   17       -3.463481   1.000000
   18       -2.881153   1.000000
   19       -2.540254   1.000000
   20       -2.323207   1.000000
   21       -2.050200   1.000000
   22       -1.831688   1.000000
   23       -1.652979   1.000000
   24       -1.271496   1.000000
   25       -1.150142   1.000000
   26       -0.627218   1.000000
   27       -0.021772   1.000000
   28        0.662052   1.000000
   29        2.715030   0.000000
   30        3.255111   0.000000
   31        3.584008   0.000000
   32        4.119881   0.000000
   33        4.905911   0.000000
   34        5.232030   0.000000
   35        5.717097   0.000000
   36        6.136980   0.000000
   37        6.317804   0.000000
   38        6.588607   0.000000
   39        6.981960   0.000000
   40        7.255060   0.000000
 
  0.4545455E+00  0.2701832E-15  0.4024558E-15  0.4329004E-02
    1      -33.339353   1.000000
    2      -32.050669   1.000000
    3      -29.533326   1.000000
    4      -29.458027   1.000000
    5      -29.319191   1.000000
    6      -29.190012   1.000000
    7      -29.178490   1.000000
    8      -29.095902   1.000000
    9      -15.702002   1.000000
   10      -15.367157   1.000000
   11      -15.297536   1.000000
   12      -14.380903   1.000000
   13      -14.238359   1.000000
   14      -14.199028   1.000000
   15       -4.705280   1.000000
   16       -4.103385   1.000000
   17       -3.228205   1.000000
   18       -2.904235   1.000000
   19       -2.563633   1.000000
   20       -2.284867   1.000000
   21       -2.116002   1.000000
   22       -1.830193   1.000000
   23       -1.726786   1.000000
   24       -1.247543   1.000000
   25       -1.143067   1.000000
   26       -0.547135   1.000000
   27       -0.231128   1.000000
   28        0.589628   1.000000
   29        2.634032   0.000000
   30        3.393809   0.000000
   31        3.557365   0.000000
   32        4.185503   0.000000
   33        4.689923   0.000000
   34        5.287767   0.000000
   35        5.575946   0.000000
   36        6.152496   0.000000
   37        6.282679   0.000000
   38        6.499840   0.000000
   39        7.059839   0.000000
   40        7.218432   0.000000
 
  0.3739684E-15  0.1428571E+00  0.3885781E-15  0.4329004E-02
    1      -33.361584   1.000000
    2      -32.074630   1.000000
    3      -29.497622   1.000000
    4      -29.401772   1.000000
    5      -29.272038   1.000000
    6      -29.235060   1.000000
    7      -29.159985   1.000000
    8      -29.091287   1.000000
    9      -15.418973   1.000000
   10      -15.356134   1.000000
   11      -15.347140   1.000000
   12      -14.296828   1.000000
   13      -14.246945   1.000000
   14      -13.983575   1.000000
   15       -6.673215   1.000000
   16       -4.325521   1.000000
   17       -3.878036   1.000000
   18       -3.006430   1.000000
   19       -2.547130   1.000000
   20       -2.168261   1.000000
   21       -1.993355   1.000000
   22       -1.586284   1.000000
   23       -1.484118   1.000000
   24       -1.103746   1.000000
   25       -0.871494   1.000000
   26       -0.786606   1.000000
   27        0.537730   1.000000
   28        1.223795   1.005288
   29        3.102209   0.000000
   30        3.147176   0.000000
   31        3.541065   0.000000
   32        4.521964   0.000000
   33        4.598665   0.000000
   34        5.767538   0.000000
   35        5.998244   0.000000
   36        6.314109   0.000000
   37        6.696308   0.000000
   38        6.796059   0.000000
   39        6.941664   0.000000
   40        7.236664   0.000000
 
  0.9090909E-01  0.1428571E+00  0.3885781E-15  0.4329004E-02
    1      -33.359793   1.000000
    2      -32.072759   1.000000
    3      -29.498212   1.000000
    4      -29.407709   1.000000
    5      -29.279709   1.000000
    6      -29.230536   1.000000
    7      -29.159430   1.000000
    8      -29.091560   1.000000
    9      -15.415290   1.000000
   10      -15.382596   1.000000
   11      -15.346101   1.000000
   12      -14.292864   1.000000
   13      -14.243408   1.000000
   14      -14.017436   1.000000
   15       -6.531461   1.000000
   16       -4.310933   1.000000
   17       -3.827542   1.000000
   18       -2.965362   1.000000
   19       -2.560295   1.000000
   20       -2.191142   1.000000
   21       -1.981977   1.000000
   22       -1.703933   1.000000
   23       -1.405739   1.000000
   24       -1.107469   1.000000
   25       -0.928892   1.000000
   26       -0.797735   1.000000
   27        0.545777   1.000000
   28        1.122443   1.001563
   29        3.016995   0.000000
   30        3.248053   0.000000
   31        3.580446   0.000000
   32        4.393336   0.000000
   33        4.659215   0.000000
   34        5.626778   0.000000
   35        6.029180   0.000000
   36        6.140672   0.000000
   37        6.519169   0.000000
   38        6.896425   0.000000
   39        7.032628   0.000000
   40        7.378360   0.000000
 
  0.1818182E+00  0.1428571E+00  0.3816392E-15  0.4329004E-02
    1      -33.354978   1.000000
    2      -32.067610   1.000000
    3      -29.502067   1.000000
    4      -29.421739   1.000000
    5      -29.295720   1.000000
    6      -29.221660   1.000000
    7      -29.159141   1.000000
    8      -29.092454   1.000000
    9      -15.460691   1.000000
   10      -15.404191   1.000000
   11      -15.334950   1.000000
   12      -14.280832   1.000000
   13      -14.233437   1.000000
   14      -14.106668   1.000000
   15       -6.204374   1.000000
   16       -4.170061   1.000000
   17       -3.701140   1.000000
   18       -2.891370   1.000000
   19       -2.556706   1.000000
   20       -2.227728   1.000000
   21       -1.992174   1.000000
   22       -1.766272   1.000000
   23       -1.437611   1.000000
   24       -1.163822   1.000000
   25       -1.062312   1.000000
   26       -0.768633   1.000000
   27        0.472164   1.000000
   28        0.907452   0.999997
   29        2.929733   0.000000
   30        3.275263   0.000000
   31        3.651672   0.000000
   32        4.200560   0.000000
   33        4.766847   0.000000
   34        5.488715   0.000000
   35        5.949859   0.000000
   36        6.071803   0.000000
   37        6.434434   0.000000
   38        6.674587   0.000000
   39        6.960289   0.000000
   40        7.336797   0.000000
 
  0.2727273E+00  0.1428571E+00  0.3885781E-15  0.4329004E-02
    1      -33.348657   1.000000
    2      -32.060808   1.000000
    3      -29.511885   1.000000
    4      -29.436877   1.000000
    5      -29.310341   1.000000
    6      -29.211652   1.000000
    7      -29.161735   1.000000
    8      -29.093763   1.000000
    9      -15.560585   1.000000
   10      -15.389533   1.000000
   11      -15.319828   1.000000
   12      -14.264980   1.000000
   13      -14.226635   1.000000
   14      -14.213001   1.000000
   15       -5.730324   1.000000
   16       -3.954311   1.000000
   17       -3.582466   1.000000
   18       -2.894597   1.000000
   19       -2.503335   1.000000
   20       -2.294479   1.000000
   21       -1.983494   1.000000
   22       -1.784468   1.000000
   23       -1.543987   1.000000
   24       -1.255783   1.000000
   25       -1.163751   1.000000
   26       -0.693692   1.000000
   27        0.279939   1.000000
   28        0.690486   1.000000
   29        2.857535   0.000000
   30        3.179177   0.000000
   31        3.578101   0.000000
   32        4.293873   0.000000
   33        4.934200   0.000000
   34        5.314133   0.000000
   35        5.833755   0.000000
   36        6.097719   0.000000
   37        6.404295   0.000000
   38        6.559681   0.000000
   39        6.910482   0.000000
   40        7.311636   0.000000
 
  0.3636364E+00  0.1428571E+00  0.4024558E-15  0.4329004E-02
    1      -33.342830   1.000000
    2      -32.054501   1.000000
    3      -29.524642   1.000000
    4      -29.449798   1.000000
    5      -29.317671   1.000000
    6      -29.201072   1.000000
    7      -29.168469   1.000000
    8      -29.095048   1.000000
    9      -15.649909   1.000000
   10      -15.375762   1.000000
   11      -15.306020   1.000000
   12      -14.322453   1.000000
   13      -14.248145   1.000000
   14      -14.206697   1.000000
   15       -5.167191   1.000000
   16       -3.829673   1.000000
   17       -3.565607   1.000000
   18       -2.870405   1.000000
   19       -2.522363   1.000000
   20       -2.281509   1.000000
   21       -2.028591   1.000000
   22       -1.837032   1.000000
   23       -1.598448   1.000000
   24       -1.347616   1.000000
   25       -1.132930   1.000000
   26       -0.614540   1.000000
   27       -0.006116   1.000000
   28        0.572625   1.000000
   29        2.735022   0.000000
   30        3.216450   0.000000
   31        3.549475   0.000000
   32        4.330491   0.000000
   33        4.838063   0.000000
   34        5.379219   0.000000
   35        5.601830   0.000000
   36        6.183312   0.000000
   37        6.323220   0.000000
   38        6.567922   0.000000
   39        6.977622   0.000000
   40        7.223105   0.000000
 
  0.4545455E+00  0.1428571E+00  0.3885781E-15  0.4329004E-02
    1      -33.339354   1.000000
    2      -32.050704   1.000000
    3      -29.533352   1.000000
    4      -29.458008   1.000000
    5      -29.319208   1.000000
    6      -29.189974   1.000000
    7      -29.178381   1.000000
    8      -29.095870   1.000000
    9      -15.701993   1.000000
   10      -15.367305   1.000000
   11      -15.297712   1.000000
   12      -14.380592   1.000000
   13      -14.238739   1.000000
   14      -14.199170   1.000000
   15       -4.593171   1.000000
   16       -4.193390   1.000000
   17       -3.319589   1.000000
   18       -2.873250   1.000000
   19       -2.569942   1.000000
   20       -2.255387   1.000000
   21       -2.093103   1.000000
   22       -1.850170   1.000000
   23       -1.704310   1.000000
   24       -1.313944   1.000000
   25       -1.076479   1.000000
   26       -0.557596   1.000000
   27       -0.222467   1.000000
   28        0.552288   1.000000
   29        2.641109   0.000000
   30        3.387525   0.000000
   31        3.547729   0.000000
   32        4.262748   0.000000
   33        4.633429   0.000000
   34        5.303662   0.000000
   35        5.623348   0.000000
   36        6.160078   0.000000
   37        6.297834   0.000000
   38        6.462050   0.000000
   39        6.994086   0.000000
   40        7.126175   0.000000
 
 -0.4545455E+00  0.1428571E+00  0.3608225E-15  0.4329004E-02
    1      -33.339350   1.000000
    2      -32.050642   1.000000
    3      -29.533354   1.000000
    4      -29.458028   1.000000
    5      -29.319179   1.000000
    6      -29.190038   1.000000
    7      -29.178514   1.000000
    8      -29.095917   1.000000
    9      -15.701954   1.000000
   10      -15.367145   1.000000
   11      -15.297354   1.000000
   12      -14.380767   1.000000
   13      -14.238041   1.000000
   14      -14.199097   1.000000
   15       -4.777190   1.000000
   16       -4.037738   1.000000
   17       -3.169806   1.000000
   18       -2.937539   1.000000
   19       -2.541713   1.000000
   20       -2.283330   1.000000
   21       -2.137672   1.000000
   22       -1.827957   1.000000
   23       -1.790108   1.000000
   24       -1.243706   1.000000
   25       -1.097058   1.000000
   26       -0.532713   1.000000
   27       -0.246127   1.000000
   28        0.610986   1.000000
   29        2.636989   0.000000
   30        3.406001   0.000000
   31        3.559837   0.000000
   32        4.104766   0.000000
   33        4.724264   0.000000
   34        5.214916   0.000000
   35        5.691460   0.000000
   36        6.103446   0.000000
   37        6.318100   0.000000
   38        6.509780   0.000000
   39        6.913281   0.000000
   40        7.090144   0.000000
 
 -0.3636364E+00  0.1428571E+00  0.3642919E-15  0.4329004E-02
    1      -33.342811   1.000000
    2      -32.054325   1.000000
    3      -29.524638   1.000000
    4      -29.449837   1.000000
    5      -29.317523   1.000000
    6      -29.201146   1.000000
    7      -29.168643   1.000000
    8      -29.095194   1.000000
    9      -15.649812   1.000000
   10      -15.375015   1.000000
   11      -15.305103   1.000000
   12      -14.323003   1.000000
   13      -14.246188   1.000000
   14      -14.206284   1.000000
   15       -5.372973   1.000000
   16       -3.644525   1.000000
   17       -3.353962   1.000000
   18       -2.910075   1.000000
   19       -2.539702   1.000000
   20       -2.330255   1.000000
   21       -2.079810   1.000000
   22       -1.846568   1.000000
   23       -1.704598   1.000000
   24       -1.233902   1.000000
   25       -1.118679   1.000000
   26       -0.627729   1.000000
   27       -0.034958   1.000000
   28        0.714401   1.000000
   29        2.716949   0.000000
   30        3.265429   0.000000
   31        3.599899   0.000000
   32        4.032328   0.000000
   33        4.900581   0.000000
   34        5.101107   0.000000
   35        5.867979   0.000000
   36        6.025694   0.000000
   37        6.366069   0.000000
   38        6.686614   0.000000
   39        6.982086   0.000000
   40        7.101831   0.000000
 
 -0.2727273E+00  0.1428571E+00  0.3712308E-15  0.4329004E-02
    1      -33.348637   1.000000
    2      -32.060581   1.000000
    3      -29.511904   1.000000
    4      -29.436965   1.000000
    5      -29.310269   1.000000
    6      -29.211816   1.000000
    7      -29.161967   1.000000
    8      -29.093974   1.000000
    9      -15.560509   1.000000
   10      -15.388496   1.000000
   11      -15.318788   1.000000
   12      -14.263219   1.000000
   13      -14.223044   1.000000
   14      -14.215830   1.000000
   15       -5.922641   1.000000
   16       -3.658919   1.000000
   17       -3.522762   1.000000
   18       -2.926753   1.000000
   19       -2.541101   1.000000
   20       -2.282004   1.000000
   21       -2.011641   1.000000
   22       -1.877259   1.000000
   23       -1.513739   1.000000
   24       -1.218517   1.000000
   25       -1.090860   1.000000
   26       -0.762075   1.000000
   27        0.200391   1.000000
   28        0.854305   1.000000
   29        2.846318   0.000000
   30        3.235247   0.000000
   31        3.652326   0.000000
   32        4.000969   0.000000
   33        4.800193   0.000000
   34        5.181280   0.000000
   35        5.882679   0.000000
   36        5.966019   0.000000
   37        6.443227   0.000000
   38        6.910413   0.000000
   39        7.045569   0.000000
   40        7.390730   0.000000
 
 -0.1818182E+00  0.1428571E+00  0.3749171E-15  0.4329004E-02
    1      -33.354960   1.000000
    2      -32.067397   1.000000
    3      -29.502030   1.000000
    4      -29.421772   1.000000
    5      -29.295685   1.000000
    6      -29.221758   1.000000
    7      -29.159282   1.000000
    8      -29.092601   1.000000
    9      -15.460571   1.000000
   10      -15.403075   1.000000
   11      -15.333937   1.000000
   12      -14.278390   1.000000
   13      -14.232421   1.000000
   14      -14.107220   1.000000
   15       -6.350446   1.000000
   16       -3.927127   1.000000
   17       -3.723335   1.000000
   18       -2.891717   1.000000
   19       -2.497165   1.000000
   20       -2.225890   1.000000
   21       -2.048163   1.000000
   22       -1.812622   1.000000
   23       -1.361994   1.000000
   24       -1.160030   1.000000
   25       -1.016031   1.000000
   26       -0.839962   1.000000
   27        0.352819   1.000000
   28        1.036513   0.998054
   29        2.955656   0.000000
   30        3.245929   0.000000
   31        3.808650   0.000000
   32        3.946577   0.000000
   33        4.630706   0.000000
   34        5.508436   0.000000
   35        5.833988   0.000000
   36        5.965565   0.000000
   37        6.451559   0.000000
   38        6.914714   0.000000
   39        7.207760   0.000000
   40        7.350972   0.000000
 
 -0.9090909E-01  0.1428571E+00  0.3747003E-15  0.4329004E-02
    1      -33.359781   1.000000
    2      -32.072628   1.000000
    3      -29.498189   1.000000
    4      -29.407674   1.000000
    5      -29.279708   1.000000
    6      -29.230629   1.000000
    7      -29.159449   1.000000
    8      -29.091666   1.000000
    9      -15.414431   1.000000
   10      -15.382626   1.000000
   11      -15.345502   1.000000
   12      -14.291372   1.000000
   13      -14.242789   1.000000
   14      -14.017642   1.000000
   15       -6.610665   1.000000
   16       -4.189676   1.000000
   17       -3.841913   1.000000
   18       -2.968024   1.000000
   19       -2.505368   1.000000
   20       -2.143825   1.000000
   21       -2.049242   1.000000
   22       -1.706243   1.000000
   23       -1.390637   1.000000
   24       -1.113943   1.000000
   25       -0.909059   1.000000
   26       -0.821122   1.000000
   27        0.463048   1.000000
   28        1.184331   1.049477
   29        3.028513   0.000000
   30        3.211841   0.000000
   31        3.642757   0.000000
   32        4.291582   0.000000
   33        4.593834   0.000000
   34        5.693705   0.000000
   35        5.977186   0.000000
   36        6.178967   0.000000
   37        6.432553   0.000000
   38        6.903621   0.000000
   39        7.107580   0.000000
   40        7.457262   0.000000
 
  0.3730198E-15  0.2857143E+00  0.3816392E-15  0.4329004E-02
    1      -33.361602   1.000000
    2      -32.074895   1.000000
    3      -29.497658   1.000000
    4      -29.401781   1.000000
    5      -29.272035   1.000000
    6      -29.234834   1.000000
    7      -29.159854   1.000000
    8      -29.091066   1.000000
    9      -15.420535   1.000000
   10      -15.357012   1.000000
   11      -15.347397   1.000000
   12      -14.300539   1.000000
   13      -14.247394   1.000000
   14      -13.983204   1.000000
   15       -6.496551   1.000000
   16       -4.571425   1.000000
   17       -3.840772   1.000000
   18       -3.009300   1.000000
   19       -2.682156   1.000000
   20       -2.232429   1.000000
   21       -1.869904   1.000000
   22       -1.608160   1.000000
   23       -1.494821   1.000000
   24       -1.084544   1.000000
   25       -0.878156   1.000000
   26       -0.770534   1.000000
   27        0.666441   1.000000
   28        1.164342   1.033760
   29        3.091270   0.000000
   30        3.217037   0.000000
   31        3.461441   0.000000
   32        4.627607   0.000000
   33        4.734439   0.000000
   34        5.523476   0.000000
   35        6.035047   0.000000
   36        6.431861   0.000000
   37        6.683125   0.000000
   38        6.771725   0.000000
   39        7.071495   0.000000
   40        7.296370   0.000000
 
  0.9090909E-01  0.2857143E+00  0.3747003E-15  0.4329004E-02
    1      -33.359810   1.000000
    2      -32.073016   1.000000
    3      -29.498292   1.000000
    4      -29.407666   1.000000
    5      -29.279740   1.000000
    6      -29.230315   1.000000
    7      -29.159202   1.000000
    8      -29.091311   1.000000
    9      -15.416740   1.000000
   10      -15.382803   1.000000
   11      -15.346999   1.000000
   12      -14.296665   1.000000
   13      -14.243547   1.000000
   14      -14.016996   1.000000
   15       -6.342234   1.000000
   16       -4.573627   1.000000
   17       -3.786146   1.000000
   18       -2.979993   1.000000
   19       -2.688218   1.000000
   20       -2.229720   1.000000
   21       -1.828984   1.000000
   22       -1.721047   1.000000
   23       -1.482216   1.000000
   24       -1.088071   1.000000
   25       -0.952254   1.000000
   26       -0.739420   1.000000
   27        0.675229   1.000000
   28        1.039636   0.997859
   29        2.995943   0.000000
   30        3.313581   0.000000
   31        3.512591   0.000000
   32        4.540405   0.000000
   33        4.752656   0.000000
   34        5.514440   0.000000
   35        5.934590   0.000000
   36        6.193765   0.000000
   37        6.670889   0.000000
   38        6.922969   0.000000
   39        7.059164   0.000000
   40        7.233006   0.000000
 
  0.1818182E+00  0.2857143E+00  0.3885781E-15  0.4329004E-02
    1      -33.354995   1.000000
    2      -32.067827   1.000000
    3      -29.502179   1.000000
    4      -29.421794   1.000000
    5      -29.295764   1.000000
    6      -29.221469   1.000000
    7      -29.158922   1.000000
    8      -29.092306   1.000000
    9      -15.460862   1.000000
   10      -15.405397   1.000000
   11      -15.335866   1.000000
   12      -14.283911   1.000000
   13      -14.233550   1.000000
   14      -14.106243   1.000000
   15       -6.023238   1.000000
   16       -4.430983   1.000000
   17       -3.669486   1.000000
   18       -2.926416   1.000000
   19       -2.614234   1.000000
   20       -2.219958   1.000000
   21       -1.887062   1.000000
   22       -1.745814   1.000000
   23       -1.566648   1.000000
   24       -1.133264   1.000000
   25       -1.102416   1.000000
   26       -0.695394   1.000000
   27        0.594686   1.000000
   28        0.778050   1.000000
   29        2.907319   0.000000
   30        3.280312   0.000000
   31        3.605906   0.000000
   32        4.449294   0.000000
   33        4.835228   0.000000
   34        5.512722   0.000000
   35        5.756504   0.000000
   36        5.964180   0.000000
   37        6.555069   0.000000
   38        6.820067   0.000000
   39        6.974527   0.000000
   40        7.371387   0.000000
 
  0.2727273E+00  0.2857143E+00  0.3885781E-15  0.4329004E-02
    1      -33.348667   1.000000
    2      -32.060952   1.000000
    3      -29.511849   1.000000
    4      -29.436803   1.000000
    5      -29.310311   1.000000
    6      -29.211537   1.000000
    7      -29.161523   1.000000
    8      -29.093631   1.000000
    9      -15.560502   1.000000
   10      -15.390214   1.000000
   11      -15.320519   1.000000
   12      -14.266593   1.000000
   13      -14.226047   1.000000
   14      -14.213235   1.000000
   15       -5.576505   1.000000
   16       -4.183225   1.000000
   17       -3.575016   1.000000
   18       -2.916546   1.000000
   19       -2.488252   1.000000
   20       -2.237032   1.000000
   21       -1.991822   1.000000
   22       -1.764104   1.000000
   23       -1.597676   1.000000
   24       -1.294187   1.000000
   25       -1.135569   1.000000
   26       -0.646663   1.000000
   27        0.338025   1.000000
   28        0.583791   1.000000
   29        2.874275   0.000000
   30        3.131624   0.000000
   31        3.549230   0.000000
   32        4.622719   0.000000
   33        4.978666   0.000000
   34        5.178566   0.000000
   35        5.685164   0.000000
   36        6.002800   0.000000
   37        6.520720   0.000000
   38        6.774001   0.000000
   39        6.965236   0.000000
   40        7.246476   0.000000
 
  0.3636364E+00  0.2857143E+00  0.3608225E-15  0.4329004E-02
    1      -33.342834   1.000000
    2      -32.054575   1.000000
    3      -29.524653   1.000000
    4      -29.449764   1.000000
    5      -29.317692   1.000000
    6      -29.201048   1.000000
    7      -29.168416   1.000000
    8      -29.095036   1.000000
    9      -15.649902   1.000000
   10      -15.376063   1.000000
   11      -15.306432   1.000000
   12      -14.321815   1.000000
   13      -14.249100   1.000000
   14      -14.206925   1.000000
   15       -5.059483   1.000000
   16       -3.968592   1.000000
   17       -3.598465   1.000000
   18       -2.874283   1.000000
   19       -2.506794   1.000000
   20       -2.208624   1.000000
   21       -2.066104   1.000000