  11  11   0   0
  0.8605859E+01  0.5282695E-09  0.5040952E-09  0.3871373E-09  0.5000000E-15
  1.000000000000000E-004
  CAR 
 unknown system                          
     10.97055643    -35.47541161  301      0.60246169      1.00000000
    -35.475  0.0000E+00  0.0000E+00
    -35.321  0.0000E+00  0.0000E+00
    -35.166  0.0000E+00  0.0000E+00
    -35.011  0.0000E+00  0.0000E+00
    -34.856  0.0000E+00  0.0000E+00
    -34.701  0.0000E+00  0.0000E+00
    -34.546  0.0000E+00  0.0000E+00
    -34.392  0.0000E+00  0.0000E+00
    -34.237  0.4956E-32  0.7672E-33
    -34.082  0.1538E-21  0.2381E-22
    -33.927  0.3455E-13  0.5349E-14
    -33.772  0.4959E-07  0.7678E-08
    -33.618  0.2886E-03  0.4468E-04
    -33.463 -0.1015E-01 -0.1527E-02
    -33.308  0.2056E+00  0.3031E-01
    -33.153  0.1851E-01  0.3317E-01
    -32.998  0.1022E-02  0.3333E-01
    -32.843  0.3573E-05  0.3333E-01
    -32.689  0.2148E-10  0.3333E-01
    -32.534  0.0000E+00  0.3333E-01
    -32.379  0.0000E+00  0.3333E-01
    -32.224  0.0000E+00  0.3333E-01
    -32.069  0.0000E+00  0.3333E-01
    -31.915  0.0000E+00  0.3333E-01
    -31.760  0.0000E+00  0.3333E-01
    -31.605  0.0000E+00  0.3333E-01
    -31.450  0.0000E+00  0.3333E-01
    -31.295  0.0000E+00  0.3333E-01
    -31.140  0.0000E+00  0.3333E-01
    -30.986  0.0000E+00  0.3333E-01
    -30.831  0.0000E+00  0.3333E-01
    -30.676  0.0000E+00  0.3333E-01
    -30.521  0.0000E+00  0.3333E-01
    -30.366  0.2154E-34  0.3333E-01
    -30.212  0.1630E-23  0.3333E-01
    -30.057  0.9103E-15  0.3333E-01
    -29.902  0.3450E-08  0.3333E-01
    -29.747  0.6639E-04  0.3334E-01
    -29.592 -0.3007E-02  0.3288E-01
    -29.437  0.1255E+00  0.5230E-01
    -29.283  0.1155E+00  0.7019E-01
    -29.128  0.2724E+00  0.1124E+00
    -28.973  0.1397E+00  0.1340E+00
    -28.818 -0.4288E-02  0.1333E+00
    -28.663  0.8927E-04  0.1333E+00
    -28.509  0.4537E-08  0.1333E+00
    -28.354  0.1059E-14  0.1333E+00
    -28.199  0.0000E+00  0.1333E+00
    -28.044  0.0000E+00  0.1333E+00
    -27.889  0.0000E+00  0.1333E+00
    -27.734  0.0000E+00  0.1333E+00
    -27.580  0.0000E+00  0.1333E+00
    -27.425  0.0000E+00  0.1333E+00
    -27.270  0.0000E+00  0.1333E+00
    -27.115  0.0000E+00  0.1333E+00
    -26.960  0.0000E+00  0.1333E+00
    -26.805  0.0000E+00  0.1333E+00
    -26.651  0.0000E+00  0.1333E+00
    -26.496  0.0000E+00  0.1333E+00
    -26.341  0.0000E+00  0.1333E+00
    -26.186  0.0000E+00  0.1333E+00
    -26.031  0.0000E+00  0.1333E+00
    -25.877  0.0000E+00  0.1333E+00
    -25.722  0.0000E+00  0.1333E+00
    -25.567  0.0000E+00  0.1333E+00
    -25.412  0.0000E+00  0.1333E+00
    -25.257  0.0000E+00  0.1333E+00
    -25.102  0.0000E+00  0.1333E+00
    -24.948  0.0000E+00  0.1333E+00
    -24.793  0.0000E+00  0.1333E+00
    -24.638  0.0000E+00  0.1333E+00
    -24.483  0.0000E+00  0.1333E+00
    -24.328  0.0000E+00  0.1333E+00
    -24.174  0.0000E+00  0.1333E+00
    -24.019  0.0000E+00  0.1333E+00
    -23.864  0.0000E+00  0.1333E+00
    -23.709  0.0000E+00  0.1333E+00
    -23.554  0.0000E+00  0.1333E+00
    -23.399  0.0000E+00  0.1333E+00
    -23.245  0.0000E+00  0.1333E+00
    -23.090  0.0000E+00  0.1333E+00
    -22.935  0.0000E+00  0.1333E+00
    -22.780  0.0000E+00  0.1333E+00
    -22.625  0.0000E+00  0.1333E+00
    -22.471  0.0000E+00  0.1333E+00
    -22.316  0.0000E+00  0.1333E+00
    -22.161  0.0000E+00  0.1333E+00
    -22.006  0.0000E+00  0.1333E+00
    -21.851  0.0000E+00  0.1333E+00
    -21.696  0.0000E+00  0.1333E+00
    -21.542  0.0000E+00  0.1333E+00
    -21.387  0.0000E+00  0.1333E+00
    -21.232  0.0000E+00  0.1333E+00
    -21.077  0.0000E+00  0.1333E+00
    -20.922  0.0000E+00  0.1333E+00
    -20.768  0.0000E+00  0.1333E+00
    -20.613  0.0000E+00  0.1333E+00
    -20.458  0.0000E+00  0.1333E+00
    -20.303  0.0000E+00  0.1333E+00
    -20.148  0.0000E+00  0.1333E+00
    -19.993  0.0000E+00  0.1333E+00
    -19.839  0.0000E+00  0.1333E+00
    -19.684  0.0000E+00  0.1333E+00
    -19.529  0.0000E+00  0.1333E+00
    -19.374  0.0000E+00  0.1333E+00
    -19.219  0.0000E+00  0.1333E+00
    -19.065  0.0000E+00  0.1333E+00
    -18.910  0.0000E+00  0.1333E+00
    -18.755  0.0000E+00  0.1333E+00
    -18.600  0.0000E+00  0.1333E+00
    -18.445  0.0000E+00  0.1333E+00
    -18.290  0.0000E+00  0.1333E+00
    -18.136  0.0000E+00  0.1333E+00
    -17.981  0.0000E+00  0.1333E+00
    -17.826  0.0000E+00  0.1333E+00
    -17.671  0.0000E+00  0.1333E+00
    -17.516  0.0000E+00  0.1333E+00
    -17.361  0.0000E+00  0.1333E+00
    -17.207  0.0000E+00  0.1333E+00
    -17.052  0.0000E+00  0.1333E+00
    -16.897  0.0000E+00  0.1333E+00
    -16.742  0.0000E+00  0.1333E+00
    -16.587  0.0000E+00  0.1333E+00
    -16.433  0.5634E-28  0.1333E+00
    -16.278  0.2179E-18  0.1333E+00
    -16.123  0.5829E-11  0.1333E+00
    -15.968  0.8925E-06  0.1333E+00
    -15.813  0.2851E-03  0.1334E+00
    -15.658  0.4179E-02  0.1340E+00
    -15.504  0.9450E-01  0.1487E+00
    -15.349  0.4930E+00  0.2250E+00
    -15.194  0.5514E-01  0.2335E+00
    -15.039 -0.1329E-02  0.2333E+00
    -14.884  0.1031E-03  0.2333E+00
    -14.730  0.3010E-07  0.2333E+00
    -14.575  0.3710E-13  0.2333E+00
    -14.420  0.0000E+00  0.2333E+00
    -14.265  0.0000E+00  0.2333E+00
    -14.110  0.0000E+00  0.2333E+00
    -13.955  0.0000E+00  0.2333E+00
    -13.801  0.0000E+00  0.2333E+00
    -13.646  0.0000E+00  0.2333E+00
    -13.491  0.0000E+00  0.2333E+00
    -13.336  0.0000E+00  0.2333E+00
    -13.181  0.0000E+00  0.2333E+00
    -13.027  0.0000E+00  0.2333E+00
    -12.872  0.0000E+00  0.2333E+00
    -12.717  0.0000E+00  0.2333E+00
    -12.562  0.0000E+00  0.2333E+00
    -12.407  0.0000E+00  0.2333E+00
    -12.252  0.0000E+00  0.2333E+00
    -12.098  0.0000E+00  0.2333E+00
    -11.943  0.0000E+00  0.2333E+00
    -11.788  0.0000E+00  0.2333E+00
    -11.633  0.0000E+00  0.2333E+00
    -11.478  0.0000E+00  0.2333E+00
    -11.324  0.0000E+00  0.2333E+00
    -11.169  0.0000E+00  0.2333E+00
    -11.014  0.0000E+00  0.2333E+00
    -10.859  0.0000E+00  0.2333E+00
    -10.704  0.0000E+00  0.2333E+00
    -10.549  0.0000E+00  0.2333E+00
    -10.395  0.0000E+00  0.2333E+00
    -10.240  0.0000E+00  0.2333E+00
    -10.085  0.0000E+00  0.2333E+00
     -9.930  0.0000E+00  0.2333E+00
     -9.775  0.0000E+00  0.2333E+00
     -9.620  0.0000E+00  0.2333E+00
     -9.466  0.0000E+00  0.2333E+00
     -9.311  0.0000E+00  0.2333E+00
     -9.156  0.0000E+00  0.2333E+00
     -9.001  0.0000E+00  0.2333E+00
     -8.846  0.5519E-33  0.2333E+00
     -8.692  0.7990E-23  0.2333E+00
     -8.537  0.8074E-15  0.2333E+00
     -8.382  0.5014E-09  0.2333E+00
     -8.227  0.1479E-05  0.2333E+00
     -8.072 -0.2243E-04  0.2333E+00
     -7.917  0.1611E-02  0.2336E+00
     -7.763  0.7274E-02  0.2347E+00
     -7.608  0.1441E-01  0.2369E+00
     -7.453  0.2331E-01  0.2405E+00
     -7.298  0.3184E-01  0.2455E+00
     -7.143  0.4452E-01  0.2524E+00
     -6.989  0.4352E-01  0.2591E+00
     -6.834  0.3037E-01  0.2638E+00
     -6.679  0.1726E-01  0.2665E+00
     -6.524  0.1209E-02  0.2667E+00
     -6.369  0.2429E-05  0.2667E+00
     -6.214  0.6900E-06  0.2667E+00
     -6.060  0.2352E-10  0.2667E+00
     -5.905  0.4346E-17  0.2667E+00
     -5.750  0.0000E+00  0.2667E+00
     -5.595  0.1831E-33  0.2667E+00
     -5.440  0.3731E-23  0.2667E+00
     -5.286  0.5353E-15  0.2667E+00
     -5.131  0.4807E-09  0.2667E+00
     -4.976  0.1931E-05  0.2667E+00
     -4.821 -0.3879E-04  0.2667E+00
     -4.666  0.1726E-02  0.2669E+00
     -4.511  0.9765E-02  0.2684E+00
     -4.357  0.3536E-01  0.2739E+00
     -4.202  0.4067E-01  0.2802E+00
     -4.047  0.3876E-01  0.2862E+00
     -3.892  0.4569E-01  0.2933E+00
     -3.737  0.2379E-01  0.2970E+00
     -3.583  0.1005E-01  0.2985E+00
     -3.428  0.1265E-01  0.3005E+00
     -3.273  0.1803E-01  0.3033E+00
     -3.118  0.3513E-01  0.3087E+00
     -2.963  0.5783E-01  0.3177E+00
     -2.808  0.5207E-01  0.3257E+00
     -2.654  0.4936E-01  0.3334E+00
     -2.499  0.5676E-01  0.3422E+00
     -2.344  0.8045E-01  0.3546E+00
     -2.189  0.6218E-01  0.3642E+00
     -2.034  0.6205E-01  0.3738E+00
     -1.879  0.6001E-01  0.3831E+00
     -1.725  0.7133E-01  0.3942E+00
     -1.570  0.7251E-01  0.4054E+00
     -1.415  0.8252E-01  0.4182E+00
     -1.260  0.9525E-01  0.4329E+00
     -1.105  0.9163E-01  0.4471E+00
     -0.951  0.7472E-01  0.4587E+00
     -0.796  0.8618E-01  0.4720E+00
     -0.641  0.4913E-01  0.4796E+00
     -0.486  0.4082E-01  0.4859E+00
     -0.331  0.2669E-01  0.4901E+00
     -0.176  0.2680E-01  0.4942E+00
     -0.022  0.3094E-01  0.4990E+00
      0.133  0.6449E-02  0.5000E+00
      0.288 -0.1283E-03  0.5000E+00
      0.443  0.5918E-05  0.5000E+00
      0.598  0.8214E-09  0.5000E+00
      0.752  0.5622E-15  0.5000E+00
      0.907  0.0000E+00  0.5000E+00
      1.062  0.0000E+00  0.5000E+00
      1.217  0.0000E+00  0.5000E+00
      1.372  0.0000E+00  0.5000E+00
      1.527  0.0000E+00  0.5000E+00
      1.681  0.0000E+00  0.5000E+00
      1.836  0.0000E+00  0.5000E+00
      1.991  0.0000E+00  0.5000E+00
      2.146  0.5283E-37  0.5000E+00
      2.301  0.5967E-26  0.5000E+00
      2.455  0.5135E-17  0.5000E+00
      2.610  0.3166E-10  0.5000E+00
      2.765  0.1148E-05  0.5000E+00
      2.920  0.4961E-04  0.5000E+00
      3.075  0.2220E-02  0.5004E+00
      3.230  0.4943E-01  0.5080E+00
      3.384  0.7365E-01  0.5194E+00
      3.539  0.6324E-01  0.5292E+00
      3.694  0.5644E-01  0.5379E+00
      3.849  0.6098E-01  0.5474E+00
      4.004  0.5375E-01  0.5557E+00
      4.158  0.4770E-01  0.5631E+00
      4.313  0.2930E-01  0.5676E+00
      4.468  0.3169E-01  0.5725E+00
      4.623  0.4649E-01  0.5797E+00
      4.778  0.5891E-01  0.5888E+00
      4.933  0.5291E-01  0.5970E+00
      5.087  0.2266E-01  0.6005E+00
      5.242  0.4282E-01  0.6072E+00
      5.397  0.5616E-01  0.6159E+00
      5.552  0.5686E-01  0.6247E+00
      5.707  0.5698E-01  0.6335E+00
      5.861  0.5096E-01  0.6414E+00
      6.016  0.5747E-01  0.6503E+00
      6.171  0.7060E-01  0.6612E+00
      6.326  0.6505E-01  0.6713E+00
      6.481  0.7006E-01  0.6821E+00
      6.636  0.6018E-01  0.6914E+00
      6.790  0.5004E-01  0.6992E+00
      6.945  0.5788E-01  0.7082E+00
      7.100  0.6834E-01  0.7187E+00
      7.255  0.5609E-01  0.7274E+00
      7.410  0.3762E-01  0.7332E+00
      7.565  0.5057E-01  0.7411E+00
      7.719  0.6123E-01  0.7506E+00
      7.874  0.5681E-01  0.7593E+00
      8.029  0.5328E-01  0.7676E+00
      8.184  0.6317E-01  0.7774E+00
      8.339  0.6347E-01  0.7872E+00
      8.493  0.4912E-01  0.7948E+00
      8.648  0.2661E-01  0.7989E+00
      8.803  0.5971E-02  0.7999E+00
      8.958  0.9778E-03  0.8000E+00
      9.113 -0.1977E-04  0.8000E+00
      9.268  0.1181E-05  0.8000E+00
      9.422  0.2452E-09  0.8000E+00
      9.577  0.2101E-15  0.8000E+00
      9.732  0.0000E+00  0.8000E+00
      9.887  0.0000E+00  0.8000E+00
     10.042  0.0000E+00  0.8000E+00
     10.196  0.0000E+00  0.8000E+00
     10.351  0.0000E+00  0.8000E+00
     10.506  0.0000E+00  0.8000E+00
     10.661  0.0000E+00  0.8000E+00
     10.816  0.0000E+00  0.8000E+00
     10.971  0.0000E+00  0.8000E+00
