 running on   16 total cores
 distrk:  each k-point on   16 cores,    1 groups
 distr:  one band on    1 cores,   16 groups
 using from now: INCAR     
 vasp.5.4.4.18Apr17-6-g9f103f2a35 (build Nov 01 2019 12:17:22) complex          
  
 POSCAR found type information on POSCAR  H 
 POSCAR found :  1 types and      24 ions

 ----------------------------------------------------------------------------- 
|                                                                             |
|           W    W    AA    RRRRR   N    N  II  N    N   GGGG   !!!           |
|           W    W   A  A   R    R  NN   N  II  NN   N  G    G  !!!           |
|           W    W  A    A  R    R  N N  N  II  N N  N  G       !!!           |
|           W WW W  AAAAAA  RRRRR   N  N N  II  N  N N  G  GGG   !            |
|           WW  WW  A    A  R   R   N   NN  II  N   NN  G    G                |
|           W    W  A    A  R    R  N    N  II  N    N   GGGG   !!!           |
|                                                                             |
|      For optimal performance we recommend to set                            |
|        NCORE= 4 - approx SQRT( number of cores)                             |
|      NCORE specifies how many cores store one orbital (NPAR=cpu/NCORE).     |
|      This setting can  greatly improve the performance of VASP for DFT.     |
|      The default,   NCORE=1            might be grossly inefficient         |
|      on modern multi-core architectures or massively parallel machines.     |
|      Do your own testing !!!!                                               |
|      Unfortunately you need to use the default for GW and RPA calculations. |
|      (for HF NCORE is supported but not extensively tested yet)             |
|                                                                             |
 ----------------------------------------------------------------------------- 

 LDA part: xc-table for Pade appr. of Perdew
 POSCAR, INCAR and KPOINTS ok, starting setup
 FFT: planning ...
 WAVECAR not read
 entering main loop
       N       E                     dE             d eps       ncg     rms          rms(c)
DAV:   1    -0.915099181874E+01   -0.91510E+01   -0.99597E+03  6528   0.614E+02
DAV:   2    -0.708730772647E+02   -0.61722E+02   -0.59298E+02  8736   0.102E+02
DAV:   3    -0.734843032326E+02   -0.26112E+01   -0.26087E+01  8288   0.199E+01
DAV:   4    -0.734893810907E+02   -0.50779E-02   -0.50778E-02  8704   0.112E+00
DAV:   5    -0.734893944923E+02   -0.13402E-04   -0.13402E-04  6784   0.567E-02    0.224E+01
RMM:   6    -0.794688011500E+02   -0.59794E+01   -0.39193E+00  6528   0.603E+00    0.936E+00
RMM:   7    -0.795302468014E+02   -0.61446E-01   -0.20113E+00  6528   0.537E+00    0.447E+00
RMM:   8    -0.794175380211E+02    0.11271E+00   -0.50594E-01  6528   0.280E+00    0.120E+00
RMM:   9    -0.794615627286E+02   -0.44025E-01   -0.42631E-02  6528   0.905E-01    0.548E-01
RMM:  10    -0.794692697975E+02   -0.77071E-02   -0.25136E-03  5399   0.230E-01    0.204E-01
RMM:  11    -0.794721795219E+02   -0.29097E-02   -0.16643E-03  5444   0.197E-01    0.936E-02
RMM:  12    -0.794729515762E+02   -0.77205E-03   -0.64132E-04  5055   0.124E-01
   1 F= -.79472952E+02 E0= -.79472952E+02  d E =-.794730E+02  mag=    -0.0000
 curvature:   0.00 expect dE= 0.000E+00 dE for cont linesearch  0.000E+00
 trial: gam= 0.00000 g(F)=  0.554E-02 g(S)=  0.202E+00 ort = 0.000E+00 (trialstep = 0.100E+01)
 search vector abs. value=  0.208E+00
 bond charge predicted
       N       E                     dE             d eps       ncg     rms          rms(c)
DAV:   1    -0.796454873372E+02   -0.17331E+00   -0.44238E-01  8592   0.341E+00    0.521E-01
RMM:   2    -0.796431262998E+02    0.23610E-02   -0.11342E-02  6526   0.448E-01    0.300E-01
RMM:   3    -0.796417485237E+02    0.13778E-02   -0.18948E-03  4916   0.155E-01    0.194E-02
RMM:   4    -0.796417670214E+02   -0.18498E-04   -0.89683E-05  3013   0.470E-02
   2 F= -.79641767E+02 E0= -.79641767E+02  d E =-.168815E+00  mag=    -0.0000
 trial-energy change:   -0.168815  1 .order   -0.170379   -0.207651   -0.133107
 step:   2.7856(harm=  2.7856)  dis= 0.01401  next Energy=   -79.762171 (dE=-0.289E+00)
 bond charge predicted
       N       E                     dE             d eps       ncg     rms          rms(c)
DAV:   1    -0.797770579801E+02   -0.13531E+00   -0.13818E+00  7776   0.590E+00    0.917E-01
RMM:   2    -0.797694722943E+02    0.75857E-02   -0.36619E-02  6528   0.790E-01    0.526E-01
RMM:   3    -0.797650761099E+02    0.43962E-02   -0.64852E-03  6526   0.273E-01    0.356E-02
RMM:   4    -0.797651070435E+02   -0.30934E-04   -0.58303E-05  3518   0.356E-02
   3 F= -.79765107E+02 E0= -.79765107E+02  d E =-.292155E+00  mag=    -0.0000
 curvature:  -1.39 expect dE=-0.152E+01 dE for cont linesearch -0.103E-02
 trial: gam= 5.18245 g(F)=  0.105E+01 g(S)=  0.353E-01 ort = 0.124E-01 (trialstep = 0.415E-01)
 search vector abs. value=  0.679E+01
 bond charge predicted
       N       E                     dE             d eps       ncg     rms          rms(c)
DAV:   1    -0.798128284398E+02   -0.47752E-01   -0.60310E-02  9392   0.103E+00    0.187E-01
RMM:   2    -0.798124365553E+02    0.39188E-03   -0.11828E-03  3541   0.138E-01
   4 F= -.79812437E+02 E0= -.79812437E+02  d E =-.473295E-01  mag=     0.0000
 ZBRENT: can't locate minimum, use default step
 trial-energy change:   -0.047330  1 .order   -0.047828   -0.047812   -0.047844
 step:   0.1659(harm=  0.1659)  dis= 0.00866  next Energy=   -79.956611 (dE=-0.192E+00)
 bond charge predicted
       N       E                     dE             d eps       ncg     rms          rms(c)
DAV:   1    -0.799508905653E+02   -0.13806E+00   -0.52633E-01  7200   0.306E+00    0.558E-01
RMM:   2    -0.799473713919E+02    0.35192E-02   -0.10725E-02  6508   0.401E-01    0.317E-01
RMM:   3    -0.799454943467E+02    0.18770E-02   -0.25597E-03  4548   0.162E-01    0.129E-02
RMM:   4    -0.799455067586E+02   -0.12412E-04   -0.35586E-05  2536   0.274E-02
   5 F= -.79945507E+02 E0= -.79945507E+02  d E =-.180400E+00  mag=    -0.0000
 curvature:  -0.73 expect dE=-0.594E+00 dE for cont linesearch -0.113E+00
 ZBRENT: increasing intervall
 opt :   0.4148  next Energy=   -80.167616 (dE=-0.403E+00)
 bond charge predicted
       N       E                     dE             d eps       ncg     rms          rms(c)
DAV:   1    -0.801969243952E+02   -0.25143E+00   -0.21819E+00  7104   0.612E+00    0.111E+00
RMM:   2    -0.801827320588E+02    0.14192E-01   -0.44424E-02  6528   0.802E-01    0.628E-01
RMM:   3    -0.801751628301E+02    0.75692E-02   -0.10798E-02  6526   0.325E-01    0.231E-02
RMM:   4    -0.801751919201E+02   -0.29090E-04   -0.66692E-05  3333   0.360E-02
   6 F= -.80175192E+02 E0= -.80175192E+02  d E =-.410085E+00  mag=    -0.0000
 curvature:  -1.44 expect dE=-0.642E+00 dE for cont linesearch -0.145E+00
 ZBRENT: increasing intervall
 opt :   0.9126  next Energy=   -80.488417 (dE=-0.723E+00)
 bond charge predicted
       N       E                     dE             d eps       ncg     rms          rms(c)
DAV:   1    -0.805738122167E+02   -0.39865E+00   -0.87572E+00  6624   0.120E+01    0.221E+00
RMM:   2    -0.805137658241E+02    0.60046E-01   -0.18306E-01  6528   0.157E+00    0.125E+00
RMM:   3    -0.804820834916E+02    0.31682E-01   -0.47640E-02  6528   0.667E-01    0.514E-02
RMM:   4    -0.804822047182E+02   -0.12123E-03   -0.29235E-04  3929   0.741E-02
   7 F= -.80482205E+02 E0= -.80482205E+02  d E =-.717098E+00  mag=    -0.0000
 curvature:  -3.12 expect dE=-0.137E+00 dE for cont linesearch -0.820E-01
 ZBRENT: increasing intervall
 opt :   1.9081  next Energy=   -80.501182 (dE=-0.736E+00)
 bond charge predicted
       N       E                     dE             d eps       ncg     rms          rms(c)
DAV:   1    -0.808002127613E+02   -0.31813E+00   -0.35426E+01  6528   0.233E+01    0.439E+00
RMM:   2    -0.805389238295E+02    0.26129E+00   -0.78561E-01  6528   0.311E+00    0.251E+00
RMM:   3    -0.804009838795E+02    0.13794E+00   -0.23098E-01  6528   0.142E+00    0.145E-01
RMM:   4    -0.804014077413E+02   -0.42386E-03   -0.11854E-03  5422   0.150E-01
   8 F= -.80401408E+02 E0= -.80401408E+02  d E =-.636301E+00  mag=    -0.0000
 curvature:  -0.72 expect dE=-0.157E+01 dE for cont linesearch -0.265E-01
 ZBRENT: bracketing found
 ZBRENT: interpolating
 opt :   1.3689  next Energy=   -80.578627 (dE=-0.814E+00)
 bond charge predicted
       N       E                     dE             d eps       ncg     rms          rms(c)
DAV:   1    -0.806949872195E+02   -0.29400E+00   -0.11070E+01  6528   0.138E+01    0.260E+00
RMM:   2    -0.805982825146E+02    0.96705E-01   -0.16655E-01  6528   0.149E+00    0.143E+00
RMM:   3    -0.805581462601E+02    0.40136E-01   -0.63457E-02  6528   0.743E-01    0.717E-02
RMM:   4    -0.805582953316E+02   -0.14907E-03   -0.42654E-04  4106   0.882E-02
   9 F= -.80558295E+02 E0= -.80558295E+02  d E =-.793188E+00  mag=    -0.0000
 curvature:  -2.63 expect dE=-0.114E+01 dE for cont linesearch -0.887E-07
 trial: gam= 0.94595 g(F)=  0.392E+00 g(S)=  0.429E-01 ort =-0.479E-03 (trialstep = 0.307E+00)
 search vector abs. value=  0.651E+01
 bond charge predicted
       N       E                     dE             d eps       ncg     rms          rms(c)
DAV:   1    -0.806716398182E+02   -0.11349E+00   -0.14794E+00  7552   0.522E+00    0.105E+00
RMM:   2    -0.806553311993E+02    0.16309E-01   -0.28450E-02  6528   0.578E-01    0.584E-01
RMM:   3    -0.806478767154E+02    0.74545E-02   -0.11655E-02  6526   0.324E-01    0.320E-02
RMM:   4    -0.806479026179E+02   -0.25903E-04   -0.69877E-05  3416   0.379E-02
  10 F= -.80647903E+02 E0= -.80647903E+02  d E =-.896073E-01  mag=     0.0000
 trial-energy change:   -0.089607  1 .order   -0.091341   -0.133452   -0.049229
 step:   0.4864(harm=  0.4864)  dis= 0.01100  next Energy=   -80.664024 (dE=-0.106E+00)
 bond charge predicted
       N       E                     dE             d eps       ncg     rms          rms(c)
DAV:   1    -0.806705406453E+02   -0.22664E-01   -0.49635E-01  8000   0.300E+00    0.608E-01
RMM:   2    -0.806649567492E+02    0.55839E-02   -0.96002E-03  6528   0.333E-01    0.338E-01
RMM:   3    -0.806624707960E+02    0.24860E-02   -0.40417E-03  6393   0.190E-01    0.230E-02
RMM:   4    -0.806624830299E+02   -0.12234E-04   -0.20746E-05  2375   0.237E-02
  11 F= -.80662483E+02 E0= -.80662483E+02  d E =-.104188E+00  mag=     0.0000
 curvature:  -3.64 expect dE=-0.645E-01 dE for cont linesearch -0.424E-04
 trial: gam=-0.00701 g(F)=  0.176E-01 g(S)=  0.139E-03 ort = 0.871E-02 (trialstep = 0.343E+00)
 search vector abs. value=  0.179E-01
 bond charge predicted
       N       E                     dE             d eps       ncg     rms          rms(c)
DAV:   1    -0.806650179265E+02   -0.25471E-02   -0.51151E-02  8976   0.103E+00    0.103E-01
RMM:   2    -0.806651275398E+02   -0.10961E-03   -0.25995E-03  4232   0.233E-01
  12 F= -.80665128E+02 E0= -.80665128E+02  d E =-.264451E-02  mag=     0.0000
 trial-energy change:   -0.002645  1 .order   -0.002690   -0.006051    0.000672
 step:   0.3086(harm=  0.3086)  dis= 0.00461  next Energy=   -80.665206 (dE=-0.272E-02)
 bond charge predicted
       N       E                     dE             d eps       ncg     rms          rms(c)
DAV:   1    -0.806650615068E+02   -0.43580E-04   -0.74548E-04  4144   0.156E-01    0.914E-03
RMM:   2    -0.806650885149E+02   -0.27008E-04   -0.26602E-04  3053   0.701E-02
  13 F= -.80665089E+02 E0= -.80665089E+02  d E =-.260549E-02  mag=    -0.0000
 curvature:  -0.16 expect dE=-0.393E-04 dE for cont linesearch -0.186E-05
 trial: gam= 0.03720 g(F)=  0.108E-03 g(S)=  0.143E-03 ort =-0.461E-03 (trialstep = 0.336E+00)
 search vector abs. value=  0.241E-03
 reached required accuracy - stopping structural energy minimisation
