       N       E                     dE             d eps       ncg     rms          rms(c)
DAV:   1     0.325823050867E+03    0.32582E+03   -0.18727E+04 20936   0.816E+02
DAV:   2    -0.595681847954E+02   -0.38539E+03   -0.37274E+03 24696   0.375E+02
DAV:   3    -0.821303195888E+02   -0.22562E+02   -0.22240E+02 32328   0.808E+01
DAV:   4    -0.830383738973E+02   -0.90805E+00   -0.90417E+00 35168   0.141E+01
DAV:   5    -0.830615750881E+02   -0.23201E-01   -0.23192E-01 33544   0.202E+00    0.509E+01
DAV:   6    -0.776868033546E+02    0.53748E+01   -0.15115E+01 30872   0.228E+01    0.191E+01
DAV:   7    -0.771381381823E+02    0.54867E+00   -0.28640E+00 28696   0.938E+00    0.789E+00
DAV:   8    -0.771499055406E+02   -0.11767E-01   -0.23852E+00 33296   0.812E+00    0.481E+00
DAV:   9    -0.770442452228E+02    0.10566E+00   -0.94587E-01 31440   0.447E+00    0.189E+00
DAV:  10    -0.770436629228E+02    0.58230E-03   -0.52289E-02 30824   0.144E+00    0.975E-01
DAV:  11    -0.770451328120E+02   -0.14699E-02   -0.20874E-02 31912   0.115E+00    0.303E-01
DAV:  12    -0.770440399492E+02    0.10929E-02   -0.74421E-03 30304   0.778E-01    0.124E-01
DAV:  13    -0.770440283517E+02    0.11598E-04   -0.69531E-04 24976   0.168E-01
   1 F= -.77044028E+02 E0= -.77043705E+02  d E =-.770440E+02
       N       E                     dE             d eps       ncg     rms          rms(c)
DAV:   1    -0.770793842155E+02   -0.35344E-01   -0.14089E+00 23928   0.827E+00    0.817E-01
DAV:   2    -0.770816001447E+02   -0.22159E-02   -0.15552E-01 23728   0.231E+00    0.433E-01
DAV:   3    -0.770797252451E+02    0.18749E-02   -0.12425E-02 30480   0.839E-01    0.257E-01
DAV:   4    -0.770790144577E+02    0.71079E-03   -0.63888E-03 31160   0.600E-01    0.187E-01
DAV:   5    -0.770787120070E+02    0.30245E-03   -0.28201E-03 30936   0.361E-01    0.838E-02
DAV:   6    -0.770786542250E+02    0.57782E-04   -0.63618E-04 21184   0.195E-01
   2 F= -.77078654E+02 E0= -.77078316E+02  d E =-.346259E-01
       N       E                     dE             d eps       ncg     rms          rms(c)
DAV:   1    -0.771130063498E+02   -0.34294E-01   -0.72843E+00 23632   0.188E+01    0.191E+00
DAV:   2    -0.771245129726E+02   -0.11507E-01   -0.80200E-01 23464   0.520E+00    0.993E-01
DAV:   3    -0.771147724077E+02    0.97406E-02   -0.68672E-02 30472   0.189E+00    0.602E-01
DAV:   4    -0.771109295125E+02    0.38429E-02   -0.36722E-02 31472   0.140E+00    0.446E-01
DAV:   5    -0.771091960961E+02    0.17334E-02   -0.14735E-02 32664   0.812E-01    0.197E-01
DAV:   6    -0.771089345239E+02    0.26157E-03   -0.35731E-03 32448   0.450E-01    0.105E-01
DAV:   7    -0.771089379073E+02   -0.33834E-05   -0.24565E-04 17872   0.130E-01
   3 F= -.77108938E+02 E0= -.77108649E+02  d E =-.649096E-01
       N       E                     dE             d eps       ncg     rms          rms(c)
DAV:   1    -0.771111371333E+02   -0.22026E-02   -0.16472E+00 24000   0.100E+01    0.620E-01
DAV:   2    -0.771308025328E+02   -0.19665E-01   -0.24299E-01 20752   0.258E+00    0.368E-01
DAV:   3    -0.771306182430E+02    0.18429E-03   -0.10614E-02 30296   0.726E-01    0.222E-01
DAV:   4    -0.771303430517E+02    0.27519E-03   -0.35584E-03 30480   0.431E-01    0.191E-01
DAV:   5    -0.771301630191E+02    0.18003E-03   -0.12507E-03 27488   0.233E-01    0.452E-02
DAV:   6    -0.771301641596E+02   -0.11405E-05   -0.17556E-04 17656   0.106E-01
   4 F= -.77130164E+02 E0= -.77129907E+02  d E =-.212263E-01
       N       E                     dE             d eps       ncg     rms          rms(c)
DAV:   1    -0.771161904814E+02    0.13973E-01   -0.18705E+00 24024   0.107E+01    0.665E-01
DAV:   2    -0.771385867201E+02   -0.22396E-01   -0.27737E-01 20704   0.275E+00    0.393E-01
DAV:   3    -0.771383771707E+02    0.20955E-03   -0.11865E-02 30280   0.773E-01    0.236E-01
DAV:   4    -0.771380757036E+02    0.30147E-03   -0.38846E-03 30560   0.454E-01    0.200E-01
DAV:   5    -0.771378778435E+02    0.19786E-03   -0.14567E-03 28736   0.254E-01    0.520E-02
DAV:   6    -0.771378741223E+02    0.37212E-05   -0.23175E-04 17944   0.128E-01
   5 F= -.77137874E+02 E0= -.77137660E+02  d E =-.289362E-01
       N       E                     dE             d eps       ncg     rms          rms(c)
DAV:   1    -0.771504819332E+02   -0.12604E-01   -0.76626E-01 22352   0.607E+00    0.385E-01
DAV:   2    -0.771554639867E+02   -0.49821E-02   -0.75841E-02 23880   0.160E+00    0.257E-01
DAV:   3    -0.771552480667E+02    0.21592E-03   -0.37741E-03 30752   0.438E-01    0.174E-01
DAV:   4    -0.771551047702E+02    0.14330E-03   -0.18164E-03 28824   0.312E-01    0.118E-01
DAV:   5    -0.771549980626E+02    0.10671E-03   -0.66751E-04 22360   0.175E-01    0.295E-02
DAV:   6    -0.771550007535E+02   -0.26909E-05   -0.79329E-05 15456   0.781E-02
   6 F= -.77155001E+02 E0= -.77154793E+02  d E =-.171266E-01
       N       E                     dE             d eps       ncg     rms          rms(c)
DAV:   1    -0.771525671195E+02    0.24309E-02   -0.22690E+00 22352   0.104E+01    0.646E-01
DAV:   2    -0.771675139489E+02   -0.14947E-01   -0.22488E-01 23712   0.276E+00    0.429E-01
DAV:   3    -0.771668969835E+02    0.61697E-03   -0.11600E-02 30688   0.774E-01    0.297E-01
DAV:   4    -0.771664395964E+02    0.45739E-03   -0.50521E-03 30672   0.518E-01    0.195E-01
DAV:   5    -0.771661622403E+02    0.27736E-03   -0.19438E-03 29832   0.288E-01    0.464E-02
DAV:   6    -0.771661591591E+02    0.30813E-05   -0.23150E-04 17008   0.129E-01
   7 F= -.77166159E+02 E0= -.77165949E+02  d E =-.282850E-01
       N       E                     dE             d eps       ncg     rms          rms(c)
DAV:   1    -0.771650579517E+02    0.11043E-02   -0.14571E+00 22352   0.895E+00    0.518E-01
DAV:   2    -0.771798460318E+02   -0.14788E-01   -0.17471E-01 21760   0.232E+00    0.277E-01
DAV:   3    -0.771799009403E+02   -0.54908E-04   -0.47910E-03 30240   0.476E-01    0.169E-01
DAV:   4    -0.771798398438E+02    0.61096E-04   -0.15751E-03 28968   0.295E-01    0.130E-01
DAV:   5    -0.771797514952E+02    0.88349E-04   -0.91465E-04 24608   0.210E-01
   8 F= -.77179751E+02 E0= -.77179610E+02  d E =-.135923E-01
       N       E                     dE             d eps       ncg     rms          rms(c)
DAV:   1    -0.771760638610E+02    0.37760E-02   -0.60108E-01 22352   0.577E+00    0.329E-01
DAV:   2    -0.771821420905E+02   -0.60782E-02   -0.72487E-02 22040   0.148E+00    0.185E-01
DAV:   3    -0.771821793152E+02   -0.37225E-04   -0.19695E-03 30104   0.301E-01    0.113E-01
DAV:   4    -0.771821557622E+02    0.23553E-04   -0.61419E-04 20464   0.190E-01
   9 F= -.77182156E+02 E0= -.77182066E+02  d E =-.159966E-01
       N       E                     dE             d eps       ncg     rms          rms(c)
DAV:   1    -0.771907642782E+02   -0.85850E-02   -0.13495E+00 22336   0.787E+00    0.561E-01
DAV:   2    -0.771978253802E+02   -0.70611E-02   -0.12178E-01 24176   0.210E+00    0.301E-01
DAV:   3    -0.771972081248E+02    0.61726E-03   -0.41909E-03 30128   0.444E-01    0.164E-01
DAV:   4    -0.771969764259E+02    0.23170E-03   -0.16535E-03 30448   0.318E-01    0.111E-01
DAV:   5    -0.771968864985E+02    0.89927E-04   -0.91634E-04 24784   0.235E-01
  10 F= -.77196886E+02 E0= -.77196811E+02  d E =-.147307E-01
       N       E                     dE             d eps       ncg     rms          rms(c)
DAV:   1    -0.771903947042E+02    0.65817E-02   -0.31494E+00 22264   0.120E+01    0.842E-01
DAV:   2    -0.772068326998E+02   -0.16438E-01   -0.28472E-01 24152   0.321E+00    0.461E-01
DAV:   3    -0.772054054452E+02    0.14273E-02   -0.95618E-03 30208   0.659E-01    0.251E-01
DAV:   4    -0.772048258383E+02    0.57961E-03   -0.31245E-03 32600   0.448E-01    0.154E-01
DAV:   5    -0.772046726628E+02    0.15318E-03   -0.14422E-03 30136   0.314E-01    0.688E-02
DAV:   6    -0.772046806673E+02   -0.80045E-05   -0.31931E-04 16256   0.133E-01
  11 F= -.77204681E+02 E0= -.77204628E+02  d E =-.225249E-01
       N       E                     dE             d eps       ncg     rms          rms(c)
DAV:   1    -0.772056637151E+02   -0.99105E-03   -0.16498E+00 22328   0.929E+00    0.693E-01
DAV:   2    -0.772180581091E+02   -0.12394E-01   -0.18210E-01 21920   0.246E+00    0.276E-01
DAV:   3    -0.772177557505E+02    0.30236E-03   -0.50608E-03 30032   0.434E-01    0.179E-01
DAV:   4    -0.772175390423E+02    0.21671E-03   -0.10844E-03 29032   0.246E-01    0.887E-02
DAV:   5    -0.772174975654E+02    0.41477E-04   -0.69605E-04 20200   0.199E-01
  12 F= -.77217498E+02 E0= -.77217490E+02  d E =-.128169E-01
       N       E                     dE             d eps       ncg     rms          rms(c)
DAV:   1    -0.771775262444E+02    0.40013E-01   -0.67808E+00 22136   0.189E+01    0.144E+00
DAV:   2    -0.772288410904E+02   -0.51315E-01   -0.75177E-01 21832   0.499E+00    0.567E-01
DAV:   3    -0.772276013827E+02    0.12397E-02   -0.20945E-02 29896   0.873E-01    0.365E-01
DAV:   4    -0.772265469891E+02    0.10544E-02   -0.34164E-03 32016   0.397E-01    0.144E-01
DAV:   5    -0.772265548329E+02   -0.78438E-05   -0.11327E-03 30680   0.258E-01    0.932E-02
DAV:   6    -0.772265442991E+02    0.10534E-04   -0.18094E-04 16288   0.118E-01
  13 F= -.77226544E+02 E0= -.77226674E+02  d E =-.218636E-01
       N       E                     dE             d eps       ncg     rms          rms(c)
DAV:   1    -0.772339481870E+02   -0.73934E-02   -0.23493E+00 22352   0.967E+00    0.706E-01
DAV:   2    -0.772424358541E+02   -0.84877E-02   -0.16098E-01 24576   0.254E+00    0.376E-01
DAV:   3    -0.772418083396E+02    0.62751E-03   -0.10444E-02 30432   0.820E-01    0.243E-01
DAV:   4    -0.772413956271E+02    0.41271E-03   -0.35879E-03 31120   0.470E-01    0.153E-01
DAV:   5    -0.772412743909E+02    0.12124E-03   -0.18178E-03 28568   0.275E-01    0.594E-02
DAV:   6    -0.772412310667E+02    0.43324E-04   -0.50398E-04 18416   0.174E-01
  14 F= -.77241231E+02 E0= -.77241410E+02  d E =-.146868E-01
       N       E                     dE             d eps       ncg     rms          rms(c)
DAV:   1    -0.772388814612E+02    0.23929E-02   -0.20398E+00 22344   0.901E+00    0.666E-01
DAV:   2    -0.772462886583E+02   -0.74072E-02   -0.14084E-01 24696   0.239E+00    0.356E-01
DAV:   3    -0.772457369049E+02    0.55175E-03   -0.88888E-03 30408   0.780E-01    0.222E-01
DAV:   4    -0.772453803524E+02    0.35655E-03   -0.24815E-03 31488   0.409E-01    0.134E-01
DAV:   5    -0.772453047857E+02    0.75567E-04   -0.13688E-03 27640   0.244E-01    0.540E-02
DAV:   6    -0.772452661660E+02    0.38620E-04   -0.44805E-04 17472   0.156E-01
  15 F= -.77245266E+02 E0= -.77245482E+02  d E =-.187219E-01
       N       E                     dE             d eps       ncg     rms          rms(c)
DAV:   1    -0.772495126686E+02   -0.42079E-02   -0.15101E+00 21728   0.864E+00    0.976E-01
DAV:   2    -0.772566105016E+02   -0.70978E-02   -0.15690E-01 24376   0.258E+00    0.456E-01
DAV:   3    -0.772562032411E+02    0.40726E-03   -0.15998E-02 30608   0.987E-01    0.221E-01
DAV:   4    -0.772556162806E+02    0.58696E-03   -0.66578E-03 32232   0.589E-01    0.167E-01
DAV:   5    -0.772554352922E+02    0.18099E-03   -0.15597E-03 30176   0.260E-01    0.105E-01
DAV:   6    -0.772554063916E+02    0.28901E-04   -0.26339E-04 16512   0.137E-01
  16 F= -.77255406E+02 E0= -.77255592E+02  d E =-.101402E-01
       N       E                     dE             d eps       ncg     rms          rms(c)
DAV:   1    -0.772549233307E+02    0.51196E-03   -0.44442E-01 21776   0.469E+00    0.513E-01
DAV:   2    -0.772569962420E+02   -0.20729E-02   -0.46310E-02 24480   0.140E+00    0.266E-01
DAV:   3    -0.772568417256E+02    0.15452E-03   -0.45669E-03 30584   0.536E-01    0.123E-01
DAV:   4    -0.772566852032E+02    0.15652E-03   -0.19577E-03 28912   0.318E-01    0.104E-01
DAV:   5    -0.772566210863E+02    0.64117E-04   -0.49444E-04 17664   0.156E-01
  17 F= -.77256621E+02 E0= -.77256790E+02  d E =-.113549E-01
       N       E                     dE             d eps       ncg     rms          rms(c)
DAV:   1    -0.772584997955E+02   -0.18146E-02   -0.17345E+00 22352   0.881E+00    0.628E-01
DAV:   2    -0.772664383951E+02   -0.79386E-02   -0.15387E-01 24432   0.243E+00    0.353E-01
DAV:   3    -0.772655573752E+02    0.88102E-03   -0.13215E-02 30616   0.844E-01    0.253E-01
DAV:   4    -0.772648237258E+02    0.73365E-03   -0.50890E-03 32488   0.496E-01    0.132E-01
DAV:   5    -0.772646679035E+02    0.15582E-03   -0.13983E-03 28000   0.230E-01    0.519E-02
DAV:   6    -0.772646479846E+02    0.19919E-04   -0.22876E-04 16192   0.132E-01
  18 F= -.77264648E+02 E0= -.77264722E+02  d E =-.802690E-02
       N       E                     dE             d eps       ncg     rms          rms(c)
DAV:   1    -0.772646416489E+02    0.26255E-04   -0.34229E-02 22776   0.124E+00    0.888E-02
DAV:   2    -0.772648105845E+02   -0.16894E-03   -0.31787E-03 25000   0.354E-01    0.552E-02
DAV:   3    -0.772647907211E+02    0.19863E-04   -0.25092E-04 19648   0.135E-01
  19 F= -.77264791E+02 E0= -.77264852E+02  d E =-.816963E-02
       N       E                     dE             d eps       ncg     rms          rms(c)
DAV:   1    -0.772725382425E+02   -0.77277E-02   -0.16415E+00 22328   0.844E+00    0.119E+00
DAV:   2    -0.772747221446E+02   -0.21839E-02   -0.14050E-01 24576   0.249E+00    0.355E-01
DAV:   3    -0.772734199269E+02    0.13022E-02   -0.83933E-03 31032   0.674E-01    0.221E-01
DAV:   4    -0.772730553431E+02    0.36458E-03   -0.27420E-03 33400   0.438E-01    0.165E-01
DAV:   5    -0.772729106439E+02    0.14470E-03   -0.10328E-03 31784   0.244E-01    0.102E-01
DAV:   6    -0.772729235759E+02   -0.12932E-04   -0.31139E-04 16344   0.122E-01
  20 F= -.77272924E+02 E0= -.77272962E+02  d E =-.813285E-02
       N       E                     dE             d eps       ncg     rms          rms(c)
DAV:   1    -0.772736724656E+02   -0.76182E-03   -0.39761E-01 22344   0.417E+00    0.569E-01
DAV:   2    -0.772741862704E+02   -0.51380E-03   -0.34120E-02 24560   0.123E+00    0.178E-01
DAV:   3    -0.772738762801E+02    0.30999E-03   -0.19761E-03 30992   0.325E-01    0.113E-01
DAV:   4    -0.772737907762E+02    0.85504E-04   -0.60631E-04 22616   0.213E-01
  21 F= -.77273791E+02 E0= -.77273819E+02  d E =-.900006E-02
       N       E                     dE             d eps       ncg     rms          rms(c)
DAV:   1    -0.772736586584E+02    0.21762E-03   -0.11573E+00 22360   0.730E+00    0.511E-01
DAV:   2    -0.772801644430E+02   -0.65058E-02   -0.10237E-01 23616   0.190E+00    0.274E-01
DAV:   3    -0.772795990850E+02    0.56536E-03   -0.33018E-03 31904   0.359E-01    0.179E-01
DAV:   4    -0.772794848694E+02    0.11422E-03   -0.17754E-03 28664   0.268E-01    0.101E-01
DAV:   5    -0.772793708110E+02    0.11406E-03   -0.11364E-03 24424   0.225E-01    0.430E-02
DAV:   6    -0.772793691238E+02    0.16872E-05   -0.10062E-04 15760   0.835E-02
  22 F= -.77279369E+02 E0= -.77279344E+02  d E =-.557835E-02
       N       E                     dE             d eps       ncg     rms          rms(c)
DAV:   1    -0.772791961167E+02    0.17469E-03   -0.87405E-02 22592   0.201E+00    0.135E-01
DAV:   2    -0.772797042209E+02   -0.50810E-03   -0.77982E-03 23776   0.524E-01    0.721E-02
DAV:   3    -0.772796639925E+02    0.40228E-04   -0.24227E-04 22080   0.111E-01
  23 F= -.77279664E+02 E0= -.77279622E+02  d E =-.587322E-02
       N       E                     dE             d eps       ncg     rms          rms(c)
DAV:   1    -0.772793045092E+02    0.39971E-03   -0.97145E-01 22144   0.675E+00    0.599E-01
DAV:   2    -0.772848164117E+02   -0.55119E-02   -0.89543E-02 24144   0.183E+00    0.285E-01
DAV:   3    -0.772846847800E+02    0.13163E-03   -0.75894E-03 30424   0.597E-01    0.175E-01
DAV:   4    -0.772844100288E+02    0.27475E-03   -0.29180E-03 29848   0.356E-01    0.131E-01
DAV:   5    -0.772843200837E+02    0.89945E-04   -0.76926E-04 25488   0.186E-01
  24 F= -.77284320E+02 E0= -.77284267E+02  d E =-.465609E-02
       N       E                     dE             d eps       ncg     rms          rms(c)
DAV:   1    -0.772841884427E+02    0.22159E-03   -0.41213E-02 22600   0.140E+00    0.114E-01
DAV:   2    -0.772844187335E+02   -0.23029E-03   -0.38378E-03 24352   0.374E-01    0.659E-02
DAV:   3    -0.772844132594E+02    0.54741E-05   -0.21619E-04 20600   0.112E-01
  25 F= -.77284413E+02 E0= -.77284356E+02  d E =-.474927E-02
       N       E                     dE             d eps       ncg     rms          rms(c)
DAV:   1    -0.772827936028E+02    0.16251E-02   -0.10164E+00 22352   0.689E+00    0.509E-01
DAV:   2    -0.772884494504E+02   -0.56558E-02   -0.98104E-02 24120   0.186E+00    0.345E-01
DAV:   3    -0.772880279264E+02    0.42152E-03   -0.96277E-03 30480   0.661E-01    0.198E-01
DAV:   4    -0.772876155394E+02    0.41239E-03   -0.30760E-03 29880   0.367E-01    0.130E-01
DAV:   5    -0.772875034142E+02    0.11213E-03   -0.84099E-04 24648   0.193E-01    0.418E-02
DAV:   6    -0.772874957459E+02    0.76683E-05   -0.14020E-04 15968   0.105E-01
  26 F= -.77287496E+02 E0= -.77287411E+02  d E =-.308249E-02
       N       E                     dE             d eps       ncg     rms          rms(c)
DAV:   1    -0.772874999276E+02    0.34866E-05   -0.13567E-03 24512   0.250E-01    0.288E-02
DAV:   2    -0.772875053421E+02   -0.54145E-05   -0.10809E-04 12464   0.715E-02
  27 F= -.77287505E+02 E0= -.77287422E+02  d E =-.309208E-02
       N       E                     dE             d eps       ncg     rms          rms(c)
DAV:   1    -0.772898712375E+02   -0.23713E-02   -0.51641E-01 22336   0.507E+00    0.798E-01
DAV:   2    -0.772901444798E+02   -0.27324E-03   -0.55806E-02 25288   0.161E+00    0.225E-01
DAV:   3    -0.772898044280E+02    0.34005E-03   -0.31978E-03 30840   0.393E-01    0.118E-01
DAV:   4    -0.772896846138E+02    0.11981E-03   -0.85538E-04 27888   0.250E-01    0.107E-01
DAV:   5    -0.772896314638E+02    0.53150E-04   -0.33522E-04 19616   0.142E-01
  28 F= -.77289631E+02 E0= -.77289539E+02  d E =-.212612E-02
       N       E                     dE             d eps       ncg     rms          rms(c)
DAV:   1    -0.772896675566E+02    0.17057E-04   -0.35120E-02 22552   0.134E+00    0.191E-01
DAV:   2    -0.772896665949E+02    0.96173E-06   -0.39075E-03 26424   0.432E-01    0.819E-02
DAV:   3    -0.772896432773E+02    0.23318E-04   -0.20854E-04 17568   0.120E-01
  29 F= -.77289643E+02 E0= -.77289551E+02  d E =-.213794E-02
       N       E                     dE             d eps       ncg     rms          rms(c)
DAV:   1    -0.772869203642E+02    0.27462E-02   -0.41609E-01 22352   0.485E+00    0.291E-01
DAV:   2    -0.772911601434E+02   -0.42398E-02   -0.53761E-02 21744   0.132E+00    0.186E-01
DAV:   3    -0.772911527546E+02    0.73888E-05   -0.15835E-03 30688   0.264E-01    0.126E-01
DAV:   4    -0.772911347526E+02    0.18002E-04   -0.61225E-04 19888   0.172E-01
  30 F= -.77291135E+02 E0= -.77291029E+02  d E =-.149148E-02
       N       E                     dE             d eps       ncg     rms          rms(c)
DAV:   1    -0.772901181769E+02    0.10346E-02   -0.10689E-01 22368   0.245E+00    0.144E-01
DAV:   2    -0.772911698404E+02   -0.10517E-02   -0.13611E-02 22960   0.654E-01    0.881E-02
DAV:   3    -0.772911735252E+02   -0.36848E-05   -0.30746E-04 25536   0.113E-01
  31 F= -.77291174E+02 E0= -.77291061E+02  d E =-.153025E-02
       N       E                     dE             d eps       ncg     rms          rms(c)
DAV:   1    -0.772896471024E+02    0.15227E-02   -0.40061E-01 22352   0.458E+00    0.418E-01
DAV:   2    -0.772923083244E+02   -0.26612E-02   -0.47214E-02 23480   0.130E+00    0.214E-01
DAV:   3    -0.772920631918E+02    0.24513E-03   -0.21471E-03 30272   0.340E-01    0.130E-01
DAV:   4    -0.772919750987E+02    0.88093E-04   -0.10442E-03 25280   0.235E-01    0.726E-02
DAV:   5    -0.772919297217E+02    0.45377E-04   -0.40828E-04 16920   0.147E-01
  32 F= -.77291930E+02 E0= -.77291819E+02  d E =-.756197E-03
       N       E                     dE             d eps       ncg     rms          rms(c)
DAV:   1    -0.772919372392E+02    0.37860E-04   -0.23064E-03 24464   0.336E-01    0.484E-02
DAV:   2    -0.772919520998E+02   -0.14861E-04   -0.25593E-04 20688   0.100E-01
  33 F= -.77291952E+02 E0= -.77291840E+02  d E =-.778575E-03
