Automatically generated mesh
      43
Reciprocal lattice
    0.00000000000000    0.00000000000000    0.00000000000000             1
    0.14285714285714    0.00000000000000    0.00000000000000             2
    0.28571428571429    0.00000000000000    0.00000000000000             2
    0.42857142857143    0.00000000000000    0.00000000000000             2
    0.00000000000000    0.33333333333333    0.00000000000000             2
    0.14285714285714    0.33333333333333    0.00000000000000             2
    0.28571428571429    0.33333333333333    0.00000000000000             2
    0.42857142857143    0.33333333333333    0.00000000000000             2
   -0.42857142857143    0.33333333333333    0.00000000000000             2
   -0.28571428571429    0.33333333333333    0.00000000000000             2
   -0.14285714285714    0.33333333333333    0.00000000000000             2
    0.00000000000000    0.00000000000000    0.25000000000000             2
    0.14285714285714    0.00000000000000    0.25000000000000             2
    0.28571428571429    0.00000000000000    0.25000000000000             2
    0.42857142857143    0.00000000000000    0.25000000000000             2
   -0.42857142857143    0.00000000000000    0.25000000000000             2
   -0.28571428571429    0.00000000000000    0.25000000000000             2
   -0.14285714285714    0.00000000000000    0.25000000000000             2
    0.00000000000000    0.33333333333333    0.25000000000000             2
    0.14285714285714    0.33333333333333    0.25000000000000             2
    0.28571428571429    0.33333333333333    0.25000000000000             2
    0.42857142857143    0.33333333333333    0.25000000000000             2
   -0.42857142857143    0.33333333333333    0.25000000000000             2
   -0.28571428571429    0.33333333333333    0.25000000000000             2
   -0.14285714285714    0.33333333333333    0.25000000000000             2
    0.00000000000000   -0.33333333333333    0.25000000000000             2
    0.14285714285714   -0.33333333333333    0.25000000000000             2
    0.28571428571429   -0.33333333333333    0.25000000000000             2
    0.42857142857143   -0.33333333333333    0.25000000000000             2
   -0.42857142857143   -0.33333333333333    0.25000000000000             2
   -0.28571428571429   -0.33333333333333    0.25000000000000             2
   -0.14285714285714   -0.33333333333333    0.25000000000000             2
    0.00000000000000    0.00000000000000    0.50000000000000             1
    0.14285714285714    0.00000000000000    0.50000000000000             2
    0.28571428571429    0.00000000000000    0.50000000000000             2
    0.42857142857143    0.00000000000000    0.50000000000000             2
    0.00000000000000    0.33333333333333    0.50000000000000             2
    0.14285714285714    0.33333333333333    0.50000000000000             2
    0.28571428571429    0.33333333333333    0.50000000000000             2
    0.42857142857143    0.33333333333333    0.50000000000000             2
   -0.42857142857143    0.33333333333333    0.50000000000000             2
   -0.28571428571429    0.33333333333333    0.50000000000000             2
   -0.14285714285714    0.33333333333333    0.50000000000000             2
Tetrahedra
       250    0.00198412698413
         2         1         2         6        12
         2         1         5         6        12
         2         5         6        12        19
         2         2         6        12        13
         2         6        12        13        20
         2         6        12        19        20
         2         2         3         7        13
         2         2         6         7        13
         2         6         7        13        20
         2         3         7        13        14
         2         7        13        14        21
         2         7        13        20        21
         2         3         4         8        14
         2         3         7         8        14
         2         7         8        14        21
         2         4         8        14        15
         2         8        14        15        22
         2         8        14        21        22
         2         4         4         9        15
         2         4         8         9        15
         2         8         9        15        22
         2         4         9        15        16
         2         9        15        16        23
         2         9        15        22        23
         2         3         4        10        16
         2         4         9        10        16
         2         9        10        16        23
         2         3        10        16        17
         2        10        16        17        24
         2        10        16        23        24
         2         2         3        11        17
         2         3        10        11        17
         2        10        11        17        24
         2         2        11        17        18
         2        11        17        18        25
         2        11        17        24        25
         2         1         2         5        18
         2         2         5        11        18
         2         5        11        18        25
         2         1         5        12        18
         2         5        12        18        19
         2         5        18        19        25
         2         5         6        11        19
         2         5         5        11        19
         2         5        11        19        26
         2         6        11        19        20
         2        11        19        20        27
         2        11        19        26        27
         2         6         7        10        20
         2         6        10        11        20
         2        10        11        20        27
         2         7        10        20        21
         2        10        20        21        28
         2        10        20        27        28
         2         7         8         9        21
         2         7         9        10        21
         2         9        10        21        28
         2         8         9        21        22
         2         9        21        22        29
         2         9        21        28        29
         4         8         8         9        22
         2         8         9        22        29
         2         8         9        22        23
         2         8        22        23        30
         2         8        22        29        30
         2         7         9        10        23
         2         7         8         9        23
         2         7         8        23        30
         2         7        10        23        24
         2         7        23        24        31
         2         7        23        30        31
         2         6        10        11        24
         2         6         7        10        24
         2         6         7        24        31
         2         6        11        24        25
         2         6        24        25        32
         2         6        24        31        32
         2         5         5        11        25
         2         5         6        11        25
         2         5         6        25        32
         2         5         5        19        25
         2         5        19        25        26
         2         5        25        26        32
         2         2         5        11        26
         2         1         2         5        26
         2         1         2        12        26
         2         2        11        26        27
         2         2        13        26        27
         2         2        12        13        26
         2         3        10        11        27
         2         2         3        11        27
         2         2         3        13        27
         2         3        10        27        28
         2         3        14        27        28
         2         3        13        14        27
         2         4         9        10        28
         2         3         4        10        28
         2         3         4        14        28
         2         4         9        28        29
         2         4        15        28        29
         2         4        14        15        28
         2         4         8         9        29
         2         4         4         9        29
         2         4         4        15        29
         2         4         8        29        30
         2         4        16        29        30
         2         4        15        16        29
         2         3         7         8        30
         2         3         4         8        30
         2         3         4        16        30
         2         3         7        30        31
         2         3        17        30        31
         2         3        16        17        30
         2         2         6         7        31
         2         2         3         7        31
         2         2         3        17        31
         2         2         6        31        32
         2         2        18        31        32
         2         2        17        18        31
         2         1         5         6        32
         2         1         2         6        32
         2         1         2        18        32
         2         1         5        26        32
         2         1        12        26        32
         2         1        12        18        32
         2        12        13        20        33
         2        12        19        20        33
         2        19        20        33        37
         2        13        20        33        34
         2        20        33        34        38
         2        20        33        37        38
         2        13        14        21        34
         2        13        20        21        34
         2        20        21        34        38
         2        14        21        34        35
         2        21        34        35        39
         2        21        34        38        39
         2        14        15        22        35
         2        14        21        22        35
         2        21        22        35        39
         2        15        22        35        36
         2        22        35        36        40
         2        22        35        39        40
         2        15        16        23        36
         2        15        22        23        36
         2        22        23        36        40
         2        16        23        36        36
         2        23        36        36        41
         2        23        36        40        41
         2        16        17        24        36
         2        16        23        24        36
         2        23        24        36        41
         2        17        24        35        36
         2        24        35        36        42
         2        24        36        41        42
         2        17        18        25        35
         2        17        24        25        35
         2        24        25        35        42
         2        18        25        34        35
         2        25        34        35        43
         2        25        35        42        43
         2        12        18        19        34
         2        18        19        25        34
         2        19        25        34        43
         2        12        19        33        34
         2        19        33        34        37
         2        19        34        37        43
         2        19        20        27        37
         2        19        26        27        37
         2        26        27        37        37
         2        20        27        37        38
         2        27        37        38        43
         2        27        37        37        43
         2        20        21        28        38
         2        20        27        28        38
         2        27        28        38        43
         2        21        28        38        39
         2        28        38        39        42
         2        28        38        42        43
         2        21        22        29        39
         2        21        28        29        39
         2        28        29        39        42
         2        22        29        39        40
         2        29        39        40        41
         2        29        39        41        42
         2        22        23        30        40
         2        22        29        30        40
         2        29        30        40        41
         2        23        30        40        41
         4        30        40        40        41
         2        23        24        31        41
         2        23        30        31        41
         2        30        31        40        41
         2        24        31        41        42
         2        31        39        41        42
         2        31        39        40        41
         2        24        25        32        42
         2        24        31        32        42
         2        31        32        39        42
         2        25        32        42        43
         2        32        38        42        43
         2        32        38        39        42
         2        19        25        26        43
         2        25        26        32        43
         2        26        32        38        43
         2        19        26        37        43
         2        26        37        37        43
         2        26        37        38        43
         2        13        26        27        37
         2        12        13        26        37
         2        12        13        33        37
         2        13        27        37        43
         2        13        34        37        43
         2        13        33        34        37
         2        14        27        28        43
         2        13        14        27        43
         2        13        14        34        43
         2        14        28        42        43
         2        14        35        42        43
         2        14        34        35        43
         2        15        28        29        42
         2        14        15        28        42
         2        14        15        35        42
         2        15        29        41        42
         2        15        36        41        42
         2        15        35        36        42
         2        16        29        30        41
         2        15        16        29        41
         2        15        16        36        41
         2        16        30        40        41
         2        16        36        40        41
         2        16        36        36        41
         2        17        30        31        40
         2        16        17        30        40
         2        16        17        36        40
         2        17        31        39        40
         2        17        35        39        40
         2        17        35        36        40
         2        18        31        32        39
         2        17        18        31        39
         2        17        18        35        39
         2        18        32        38        39
         2        18        34        38        39
         2        18        34        35        39
         2        12        26        32        38
         2        12        18        32        38
         2        12        18        34        38
         2        12        26        37        38
         2        12        33        37        38
         2        12        33        34        38
