       N       E                     dE             d eps       ncg     rms          rms(c)
DAV:   1     0.119516889318E+03    0.11952E+03   -0.10355E+04 16512   0.716E+02
DAV:   2    -0.432096274616E+02   -0.16273E+03   -0.15579E+03 21664   0.278E+02
DAV:   3    -0.521659874935E+02   -0.89564E+01   -0.88993E+01 26872   0.526E+01
DAV:   4    -0.525229991316E+02   -0.35701E+00   -0.35656E+00 23800   0.890E+00
DAV:   5    -0.525285696164E+02   -0.55705E-02   -0.55703E-02 25760   0.926E-01    0.378E+01
DAV:   6    -0.502341635176E+02    0.22944E+01   -0.38588E+00 24312   0.162E+01    0.161E+01
DAV:   7    -0.496365847838E+02    0.59758E+00   -0.11837E+00 22856   0.598E+00    0.769E+00
DAV:   8    -0.495966676943E+02    0.39917E-01   -0.31893E-01 23472   0.353E+00    0.192E+00
DAV:   9    -0.495980886657E+02   -0.14210E-02   -0.21678E-02 22760   0.917E-01    0.112E+00
DAV:  10    -0.495996384628E+02   -0.15498E-02   -0.80487E-03 22224   0.617E-01    0.174E-01
DAV:  11    -0.495997062164E+02   -0.67754E-04   -0.89408E-04 21448   0.219E-01
   1 F= -.49599706E+02 E0= -.49599738E+02  d E =-.495997E+02
       N       E                     dE             d eps       ncg     rms          rms(c)
DAV:   1    -0.496007885161E+02   -0.11501E-02   -0.33384E-02 16824   0.142E+00    0.262E-01
DAV:   2    -0.496006431285E+02    0.14539E-03   -0.29874E-03 21872   0.458E-01    0.758E-02
DAV:   3    -0.496005774297E+02    0.65699E-04   -0.17303E-04 15752   0.927E-02
   2 F= -.49600577E+02 E0= -.49600610E+02  d E =-.871213E-03
       N       E                     dE             d eps       ncg     rms          rms(c)
DAV:   1    -0.496005500759E+02    0.93053E-04   -0.23740E-04 18088   0.119E-01    0.390E-02
DAV:   2    -0.496005476029E+02    0.24730E-05   -0.26906E-05  9848   0.528E-02
   3 F= -.49600548E+02 E0= -.49600580E+02  d E =-.841387E-03
