   22   22   60    1
  0.6242358E+01  0.4585167E-09  0.5026411E-09  0.6174777E-09  0.5000000E-15
  1.000000000000000E-004
  CAR 
 unknown system                          
     22    253     24
 
  0.3742002E-15  0.3742002E-15  0.3742002E-15  0.1984127E-02
    1      -11.681793   1.000000
    2       -9.073017   1.000000
    3       -8.598009   1.000000
    4       -7.857925   1.000000
    5       -7.648807   1.000000
    6       -7.473214   1.000000
    7       -7.295838   1.000000
    8       -6.947196   1.000000
    9       -6.628858   1.000000
   10       -6.115419   1.000000
   11       -5.703493   0.995066
   12        2.815627   0.000000
   13        3.082050   0.000000
   14        3.312259   0.000000
   15        3.593464   0.000000
   16        4.041102   0.000000
   17        4.114880   0.000000
   18        4.711310   0.000000
   19        4.919971   0.000000
   20        5.403504   0.000000
   21        5.613842   0.000000
   22        7.544818   0.000000
   23        8.192023   0.000000
   24        8.802043   0.000000
 
  0.1111111E+00  0.3741582E-15  0.3747003E-15  0.3968254E-02
    1      -11.613218   1.000000
    2       -9.030912   1.000000
    3       -8.580055   1.000000
    4       -8.061144   1.000000
    5       -7.734140   1.000000
    6       -7.425317   1.000000
    7       -7.274046   1.000000
    8       -6.851477   1.000000
    9       -6.636213   1.000000
   10       -6.189757   1.000000
   11       -5.739726   0.997150
   12        2.721675   0.000000
   13        3.013206   0.000000
   14        3.178025   0.000000
   15        3.698156   0.000000
   16        3.949575   0.000000
   17        4.327502   0.000000
   18        4.585572   0.000000
   19        4.941692   0.000000
   20        5.562144   0.000000
   21        5.708876   0.000000
   22        7.851183   0.000000
   23        8.355332   0.000000
   24        8.813480   0.000000
 
  0.2222222E+00  0.3727487E-15  0.3712308E-15  0.3968254E-02
    1      -11.409961   1.000000
    2       -8.932710   1.000000
    3       -8.783810   1.000000
    4       -8.309615   1.000000
    5       -7.679583   1.000000
    6       -7.371943   1.000000
    7       -7.205639   1.000000
    8       -6.868878   1.000000
    9       -6.661715   1.000000
   10       -6.365472   1.000000
   11       -5.829472   0.999929
   12        2.529826   0.000000
   13        2.730867   0.000000
   14        3.107526   0.000000
   15        3.584281   0.000000
   16        4.037670   0.000000
   17        4.152314   0.000000
   18        4.967178   0.000000
   19        5.222768   0.000000
   20        5.731362   0.000000
   21        6.214392   0.000000
   22        8.039663   0.000000
   23        8.707707   0.000000
   24        9.265756   0.000000
 
  0.3333333E+00  0.3729655E-15  0.3677614E-15  0.3968254E-02
    1      -11.077051   1.000000
    2       -9.439454   1.000000
    3       -8.733898   1.000000
    4       -8.159574   1.000000
    5       -7.579993   1.000000
    6       -7.324742   1.000000
    7       -7.162288   1.000000
    8       -7.023897   1.000000
    9       -6.760175   1.000000
   10       -6.541256   1.000000
   11       -5.933778   1.000000
   12        2.182928   0.000000
   13        2.572391   0.000000
   14        3.048400   0.000000
   15        3.404239   0.000000
   16        3.949039   0.000000
   17        4.299356   0.000000
   18        5.238240   0.000000
   19        5.912118   0.000000
   20        6.178949   0.000000
   21        6.711540   0.000000
   22        7.962915   0.000000
   23        8.818146   0.000000
   24        9.504740   0.000000
 
  0.4444444E+00  0.3707971E-15  0.3747003E-15  0.3968254E-02
    1      -10.630158   1.000000
    2      -10.060376   1.000000
    3       -8.613234   1.000000
    4       -7.915802   1.000000
    5       -7.594034   1.000000
    6       -7.353912   1.000000
    7       -7.236781   1.000000
    8       -6.961791   1.000000
    9       -6.896354   1.000000
   10       -6.674032   1.000000
   11       -6.007261   1.000000
   12        1.978916   0.000000
   13        2.550543   0.000000
   14        2.732860   0.000000
   15        3.415212   0.000000
   16        4.053222   0.000000
   17        4.423726   0.000000
   18        5.512840   0.000000
   19        5.998244   0.000000
   20        7.038493   0.000000
   21        7.220868   0.000000
   22        7.741813   0.000000
   23        8.419844   0.000000
   24        9.220240   0.000000
 
  0.3764350E-15  0.1250000E+00  0.3747003E-15  0.3968254E-02
    1      -11.603518   1.000000
    2       -9.073921   1.000000
    3       -8.504358   1.000000
    4       -8.362367   1.000000
    5       -7.658067   1.000000
    6       -7.499208   1.000000
    7       -7.110429   1.000000
    8       -6.811792   1.000000
    9       -6.541180   1.000000
   10       -6.129061   1.000000
   11       -5.794311   0.999595
   12        2.782297   0.000000
   13        3.184462   0.000000
   14        3.320369   0.000000
   15        3.664693   0.000000
   16        3.968258   0.000000
   17        4.219972   0.000000
   18        4.666683   0.000000
   19        5.079616   0.000000
   20        5.494444   0.000000
   21        6.050487   0.000000
   22        6.959339   0.000000
   23        8.435928   0.000000
   24        8.598936   0.000000
 
  0.1111111E+00  0.1250000E+00  0.3677614E-15  0.3968254E-02
    1      -11.529671   1.000000
    2       -9.051863   1.000000
    3       -8.476667   1.000000
    4       -8.327853   1.000000
    5       -7.985449   1.000000
    6       -7.442905   1.000000
    7       -7.038245   1.000000
    8       -6.773783   1.000000
    9       -6.599198   1.000000
   10       -6.165646   1.000000
   11       -5.798389   0.999663
   12        2.686243   0.000000
   13        3.131338   0.000000
   14        3.252232   0.000000
   15        3.773141   0.000000
   16        4.058482   0.000000
   17        4.263337   0.000000
   18        4.608034   0.000000
   19        4.821810   0.000000
   20        5.607299   0.000000
   21        6.196152   0.000000
   22        7.330615   0.000000
   23        8.601253   0.000000
   24        8.847070   0.000000
 
  0.2222222E+00  0.1250000E+00  0.3608225E-15  0.3968254E-02
    1      -11.321469   1.000000
    2       -8.974834   1.000000
    3       -8.711581   1.000000
    4       -8.277327   1.000000
    5       -8.140105   1.000000
    6       -7.357634   1.000000
    7       -7.065095   1.000000
    8       -6.801926   1.000000
    9       -6.697757   1.000000
   10       -6.325179   1.000000
   11       -5.823881   0.999904
   12        2.684322   0.000000
   13        2.818085   0.000000
   14        3.117885   0.000000
   15        3.599794   0.000000
   16        4.040692   0.000000
   17        4.270633   0.000000
   18        4.757992   0.000000
   19        5.299446   0.000000
   20        5.930660   0.000000
   21        6.521328   0.000000
   22        7.791520   0.000000
   23        8.722413   0.000000
   24        9.270414   0.000000
 
  0.3333333E+00  0.1250000E+00  0.3747003E-15  0.3968254E-02
    1      -10.985312   1.000000
    2       -9.403446   1.000000
    3       -8.745888   1.000000
    4       -8.155835   1.000000
    5       -7.902880   1.000000
    6       -7.350462   1.000000
    7       -7.129268   1.000000
    8       -6.980968   1.000000
    9       -6.797201   1.000000
   10       -6.535944   1.000000
   11       -5.843333   0.999967
   12        2.433046   0.000000
   13        2.656374   0.000000
   14        3.077349   0.000000
   15        3.453678   0.000000
   16        3.849925   0.000000
   17        4.394409   0.000000
   18        5.130676   0.000000
   19        6.152499   0.000000
   20        6.277541   0.000000
   21        6.870469   0.000000
   22        7.929305   0.000000
   23        8.933939   0.000000
   24        9.300617   0.000000
 
  0.4444444E+00  0.1250000E+00  0.3608225E-15  0.3968254E-02
    1      -10.539063   1.000000
    2      -10.015832   1.000000
    3       -8.606637   1.000000
    4       -7.932443   1.000000
    5       -7.758976   1.000000
    6       -7.481672   1.000000
    7       -7.247567   1.000000
    8       -7.022816   1.000000
    9       -6.879541   1.000000
   10       -6.742353   1.000000
   11       -5.853369   0.999982
   12        2.186633   0.000000
   13        2.708914   0.000000
   14        2.839316   0.000000
   15        3.488276   0.000000
   16        3.794651   0.000000
   17        4.617454   0.000000
   18        5.510151   0.000000
   19        6.161635   0.000000
   20        7.096064   0.000000
   21        7.226209   0.000000
   22        7.745639   0.000000
   23        8.511782   0.000000
   24        9.044548   0.000000
 
 -0.4444444E+00  0.1250000E+00  0.3816392E-15  0.3968254E-02
    1      -10.577605   1.000000
    2       -9.969128   1.000000
    3       -8.557030   1.000000
    4       -8.042198   1.000000
    5       -7.678708   1.000000
    6       -7.462280   1.000000
    7       -7.268333   1.000000
    8       -7.050371   1.000000
    9       -6.881892   1.000000
   10       -6.745431   1.000000
   11       -5.856519   0.999985
   12        2.107139   0.000000
   13        2.704699   0.000000
   14        2.942878   0.000000
   15        3.486206   0.000000
   16        3.876080   0.000000
   17        4.588251   0.000000
   18        5.588514   0.000000
   19        6.050371   0.000000
   20        7.002034   0.000000
   21        7.320074   0.000000
   22        7.570338   0.000000
   23        8.414947   0.000000
   24        9.075179   0.000000
 
 -0.3333333E+00  0.1250000E+00  0.3686287E-15  0.3968254E-02
    1      -11.019604   1.000000
    2       -9.350682   1.000000
    3       -8.655850   1.000000
    4       -8.273519   1.000000
    5       -7.819307   1.000000
    6       -7.394139   1.000000
    7       -7.213153   1.000000
    8       -6.904115   1.000000
    9       -6.787467   1.000000
   10       -6.595404   1.000000
   11       -5.864865   0.999991
   12        2.211285   0.000000
   13        2.720519   0.000000
   14        3.244874   0.000000
   15        3.574045   0.000000
   16        4.008565   0.000000
   17        4.255952   0.000000
   18        5.370724   0.000000
   19        5.846880   0.000000
   20        6.205092   0.000000
   21        6.850601   0.000000
   22        7.676052   0.000000
   23        8.829481   0.000000
   24        9.205756   0.000000
 
 -0.2222222E+00  0.1250000E+00  0.3686287E-15  0.3968254E-02
    1      -11.345950   1.000000
    2       -8.859815   1.000000
    3       -8.729770   1.000000
    4       -8.385504   1.000000
    5       -7.998697   1.000000
    6       -7.474538   1.000000
    7       -7.086847   1.000000
    8       -6.775506   1.000000
    9       -6.582086   1.000000
   10       -6.445613   1.000000
   11       -5.862619   0.999990
   12        2.465315   0.000000
   13        2.853387   0.000000
   14        3.308553   0.000000
   15        3.721236   0.000000
   16        3.963229   0.000000
   17        4.321031   0.000000
   18        4.951827   0.000000
   19        5.417794   0.000000
   20        5.780330   0.000000
   21        6.385442   0.000000
   22        7.711402   0.000000
   23        8.347083   0.000000
   24        9.103662   0.000000
 
 -0.1111111E+00  0.1250000E+00  0.3677614E-15  0.3968254E-02
    1      -11.542680   1.000000
    2       -9.006436   1.000000
    3       -8.524376   1.000000
    4       -8.329013   1.000000
    5       -7.892779   1.000000
    6       -7.516868   1.000000
    7       -7.069940   1.000000
    8       -6.754769   1.000000
    9       -6.534139   1.000000
   10       -6.244072   1.000000
   11       -5.828863   0.999926
   12        2.718180   0.000000
   13        3.130854   0.000000
   14        3.243926   0.000000
   15        3.533752   0.000000
   16        4.060376   0.000000
   17        4.306738   0.000000
   18        4.848459   0.000000
   19        5.118550   0.000000
   20        5.615052   0.000000
   21        6.047904   0.000000
   22        7.291125   0.000000
   23        8.159736   0.000000
   24        8.722234   0.000000
 
  0.3822897E-15  0.2500000E+00  0.3608225E-15  0.3968254E-02
    1      -11.375990   1.000000
    2       -9.197970   1.000000
    3       -8.922164   1.000000
    4       -8.278738   1.000000
    5       -7.859157   1.000000
    6       -7.517899   1.000000
    7       -6.992490   1.000000
    8       -6.583491   1.000000
    9       -6.377682   1.000000
   10       -6.190736   1.000000
   11       -5.977181   1.000000
   12        2.762028   0.000000
   13        3.202465   0.000000
   14        3.424551   0.000000
   15        3.712386   0.000000
   16        4.217555   0.000000
   17        4.456329   0.000000
   18        4.759341   0.000000
   19        5.314157   0.000000
   20        5.979718   0.000000
   21        6.362565   0.000000
   22        6.717002   0.000000
   23        8.199713   0.000000
   24        8.540942   0.000000
 
  0.1111111E+00  0.2500000E+00  0.3747003E-15  0.3968254E-02
    1      -11.295789   1.000000
    2       -9.150890   1.000000
    3       -8.940868   1.000000
    4       -8.197536   1.000000
    5       -7.892703   1.000000
    6       -7.753288   1.000000
    7       -6.948129   1.000000
    8       -6.645973   1.000000
    9       -6.462422   1.000000
   10       -6.183292   1.000000
   11       -5.908914   1.000000
   12        2.746324   0.000000
   13        3.154121   0.000000
   14        3.468313   0.000000
   15        3.690421   0.000000
   16        4.156545   0.000000
   17        4.563791   0.000000
   18        4.768138   0.000000
   19        5.267271   0.000000
   20        5.898434   0.000000
   21        6.630534   0.000000
   22        6.903100   0.000000
   23        8.425121   0.000000
   24        8.827018   0.000000
 
  0.2222222E+00  0.2500000E+00  0.3469447E-15  0.3968254E-02
    1      -11.084918   1.000000
    2       -9.012808   1.000000
    3       -8.894893   1.000000
    4       -8.501178   1.000000
    5       -7.963417   1.000000
    6       -7.641669   1.000000
    7       -7.111423   1.000000
    8       -6.774142   1.000000
    9       -6.631504   1.000000
   10       -6.294303   1.000000
   11       -5.801566   0.999709
   12        2.844203   0.000000
   13        3.002693   0.000000
   14        3.313851   0.000000
   15        3.603307   0.000000
   16        4.150061   0.000000
   17        4.559288   0.000000
   18        5.082856   0.000000
   19        5.508978   0.000000
   20        6.198057   0.000000
   21        6.789246   0.000000
   22        7.472541   0.000000
   23        8.560194   0.000000
   24        8.707363   0.000000
 
  0.3333333E+00  0.2500000E+00  0.3747003E-15  0.3968254E-02
    1      -10.748682   1.000000
    2       -9.254798   1.000000
    3       -8.750860   1.000000
    4       -8.657342   1.000000
    5       -7.775541   1.000000
    6       -7.491116   1.000000
    7       -7.375201   1.000000
    8       -7.017820   1.000000
    9       -6.844966   1.000000
   10       -6.473514   1.000000
   11       -5.705304   0.995080
   12        2.754928   0.000000
   13        2.958495   0.000000
   14        3.247034   0.000000
   15        3.461437   0.000000
   16        4.132809   0.000000
   17        4.648159   0.000000
   18        5.272243   0.000000
   19        6.317214   0.000000
   20        6.482488   0.000000
   21        7.022279   0.000000
   22        7.868694   0.000000
   23        8.397284   0.000000
   24        8.960640   0.000000
 
  0.4444444E+00  0.2500000E+00  0.3608225E-15  0.3968254E-02
    1      -10.304504   1.000000
    2       -9.836706   1.000000
    3       -8.586083   1.000000
    4       -8.362180   1.000000
    5       -7.947839   1.000000
    6       -7.473955   1.000000
    7       -7.336831   1.000000
    8       -7.173948   1.000000
    9       -7.029252   1.000000
   10       -6.660768   1.000000
   11       -5.661446   1.004351
   12        2.548439   0.000000
   13        2.989505   0.000000
   14        3.217395   0.000000
   15        3.487599   0.000000
   16        4.005312   0.000000
   17        4.887018   0.000000
   18        5.573193   0.000000
   19        6.449831   0.000000
   20        7.052398   0.000000
   21        7.268644   0.000000
   22        7.795678   0.000000
   23        8.341680   0.000000
   24        8.511755   0.000000
 
 -0.4444444E+00  0.2500000E+00  0.3660267E-15  0.3968254E-02
    1      -10.383759   1.000000
    2       -9.745622   1.000000
    3       -8.474459   1.000000
    4       -8.320191   1.000000
    5       -8.050868   1.000000
    6       -7.685614   1.000000
    7       -7.378334   1.000000
    8       -7.034373   1.000000
    9       -6.883068   1.000000
   10       -6.767982   1.000000
   11       -5.681294   0.997075
   12        2.407232   0.000000
   13        2.962719   0.000000
   14        3.343365   0.000000
   15        3.661823   0.000000
   16        4.028508   0.000000
   17        4.831820   0.000000
   18        5.734108   0.000000
   19        6.153974   0.000000
   20        6.952817   0.000000
   21        7.356307   0.000000
   22        7.541991   0.000000
   23        8.254482   0.000000
   24        8.770351   0.000000
 
 -0.3333333E+00  0.2500000E+00  0.3747003E-15  0.3968254E-02
    1      -10.815310   1.000000
    2       -9.153797   1.000000
    3       -8.680057   1.000000
    4       -8.452965   1.000000
    5       -8.111783   1.000000
    6       -7.638092   1.000000
    7       -7.395532   1.000000
    8       -6.823425   1.000000
    9       -6.732463   1.000000
   10       -6.619766   1.000000
   11       -5.760471   0.998467
   12        2.395387   0.000000
   13        2.961496   0.000000
   14        3.548395   0.000000
   15        3.788488   0.000000
   16        4.322735   0.000000
   17        4.513315   0.000000
   18        5.436136   0.000000
   19        5.842312   0.000000
   20        6.333720   0.000000
   21        7.166349   0.000000
   22        7.415671   0.000000
   23        8.295172   0.000000
   24        9.123667   0.000000
 
 -0.2222222E+00  0.2500000E+00  0.3677614E-15  0.3968254E-02
    1      -11.131199   1.000000
    2       -8.966404   1.000000
    3       -8.718735   1.000000
    4       -8.446705   1.000000
    5       -8.145556   1.000000
    6       -7.770330   1.000000
    7       -7.074594   1.000000
    8       -6.709480   1.000000
    9       -6.536005   1.000000
   10       -6.426723   1.000000
   11       -5.877068   0.999996
   12        2.514486   0.000000
   13        3.090496   0.000000
   14        3.610844   0.000000
   15        3.671970   0.000000
   16        4.244968   0.000000
   17        4.752494   0.000000
   18        5.125466   0.000000
   19        5.428816   0.000000
   20        6.040357   0.000000
   21        6.730443   0.000000
   22        7.370765   0.000000
   23        7.813724   0.000000
   24        8.799349   0.000000
 
 -0.1111111E+00  0.2500000E+00  0.3747003E-15  0.3968254E-02
    1      -11.320659   1.000000
    2       -9.133879   1.000000
    3       -8.829685   1.000000
    4       -8.317781   1.000000
    5       -7.865312   1.000000
    6       -7.770875   1.000000
    7       -6.911274   1.000000
    8       -6.640474   1.000000
    9       -6.407876   1.000000
   10       -6.267240   1.000000
   11       -5.977750   1.000000
   12        2.689763   0.000000
   13        3.315655   0.000000
   14        3.440747   0.000000
   15        3.489297   0.000000
   16        4.259475   0.000000
   17        4.523236   0.000000
   18        5.049930   0.000000
   19        5.536210   0.000000
   20        5.819076   0.000000
   21        6.380240   0.000000
   22        6.956794   0.000000
   23        7.867605   0.000000
   24        8.463756   0.000000
 
  0.3773024E-15  0.3750000E+00  0.3747003E-15  0.3968254E-02
    1      -11.004595   1.000000
    2       -9.848945   1.000000
    3       -8.837667   1.000000
    4       -8.230025   1.000000
    5       -8.018935   1.000000
    6       -7.316479   1.000000
    7       -6.914919   1.000000
    8       -6.676660   1.000000
    9       -6.419274   1.000000
   10       -6.216753   1.000000
   11       -5.968089   1.000000
   12        2.717949   0.000000
   13        3.116407   0.000000
   14        3.538821   0.000000
   15        3.909490   0.000000
   16        4.553976   0.000000
   17        4.823354   0.000000
   18        5.090532   0.000000
   19        5.351539   0.000000
   20        6.304907   0.000000
   21        6.666619   0.000000
   22        6.972946   0.000000
   23        7.805833   0.000000
   24        8.115130   0.000000
 
  0.1111111E+00  0.3750000E+00  0.3469447E-15  0.3968254E-02
    1      -10.921493   1.000000
    2       -9.810133   1.000000
    3       -8.836971   1.000000
    4       -8.149030   1.000000
    5       -7.949453   1.000000
    6       -7.657104   1.000000
    7       -6.986229   1.000000
    8       -6.678940   1.000000
    9       -6.501806   1.000000
   10       -6.189878   1.000000
   11       -5.901150   0.999999
   12        2.775168   0.000000
   13        3.055785   0.000000
   14        3.541819   0.000000
   15        3.941986   0.000000
   16        4.502985   0.000000
   17        4.823692   0.000000
   18        5.205712   0.000000
   19        5.567140   0.000000
   20        6.302267   0.000000
   21        6.612413   0.000000
   22        7.048181   0.000000
   23        7.943568   0.000000
   24        8.524724   0.000000
 
  0.2222222E+00  0.3750000E+00  0.3608225E-15  0.3968254E-02
    1      -10.711422   1.000000
    2       -9.659005   1.000000
    3       -8.771321   1.000000
    4       -8.268634   1.000000
    5       -7.974230   1.000000
    6       -7.768689   1.000000
    7       -7.344342   1.000000
    8       -6.766389   1.000000
    9       -6.680488   1.000000
   10       -6.254688   1.000000
   11       -5.776275   0.999139
   12        2.753478   0.000000
   13        3.127489   0.000000
   14        3.542607   0.000000
   15        3.884345   0.000000
   16        4.595766   0.000000
   17        4.890366   0.000000
   18        5.504283   0.000000
   19        5.870755   0.000000
   20        6.404221   0.000000
   21        6.637043   0.000000
   22        7.416332   0.000000
   23        7.994049   0.000000
   24        8.591438   0.000000
 
  0.3333333E+00  0.3750000E+00  0.3608225E-15  0.3968254E-02
    1      -10.381304   1.000000
    2       -9.412564   1.000000
    3       -8.956311   1.000000
    4       -8.513366   1.000000
    5       -7.924525   1.000000
    6       -7.738677   1.000000
    7       -7.483769   1.000000
    8       -7.004964   1.000000
    9       -6.917855   1.000000
   10       -6.421037   1.000000
   11       -5.656744   1.007077
   12        2.620825   0.000000
   13        3.262574   0.000000
   14        3.554302   0.000000
   15        3.831681   0.000000
   16        4.740181   0.000000
   17        5.058594   0.000000
   18        5.606308   0.000000
   19        6.293065   0.000000
   20        6.572280   0.000000
   21        6.962585   0.000000
   22        7.565203   0.000000
   23        8.104397   0.000000
   24        8.551866   0.000000
 
  0.4444444E+00  0.3750000E+00  0.3608225E-15  0.3968254E-02
    1       -9.945542   1.000000
    2       -9.542278   1.000000
    3       -9.032736   1.000000
    4       -8.417898   1.000000
    5       -8.303081   1.000000
    6       -7.582953   1.000000
    7       -7.377806   1.000000
    8       -7.215035   1.000000
    9       -7.049583   1.000000
   10       -6.616865   1.000000
   11       -5.595723   1.051578
   12        2.513822   0.000000
   13        3.175870   0.000000
   14        3.737095   0.000000
   15        3.914556   0.000000
   16        4.641161   0.000000
   17        5.267570   0.000000
   18        5.667373   0.000000
   19        6.557540   0.000000
   20        6.830063   0.000000
   21        7.221853   0.000000
   22        7.722544   0.000000
   23        7.987918   0.000000
   24        8.212175   0.000000
 
 -0.4444444E+00  0.3750000E+00  0.3677614E-15  0.3968254E-02
    1      -10.054826   1.000000
    2       -9.421028   1.000000
    3       -8.837545   1.000000
    4       -8.644916   1.000000
    5       -8.183495   1.000000
    6       -7.747406   1.000000
    7       -7.535599   1.000000
    8       -7.051681   1.000000
    9       -6.874022   1.000000
   10       -6.720695   1.000000
   11       -5.609200   1.047284
   12        2.458184   0.000000
   13        3.145212   0.000000
   14        3.739558   0.000000
   15        4.129897   0.000000
   16        4.648328   0.000000
   17        5.232699   0.000000
   18        5.850311   0.000000
   19        6.181667   0.000000
   20        6.760029   0.000000
   21        7.181697   0.000000
   22        7.592135   0.000000
   23        8.085653   0.000000
   24        8.436841   0.000000
 
 -0.3333333E+00  0.3750000E+00  0.3677614E-15  0.3968254E-02
    1      -10.469531   1.000000
    2       -9.303559   1.000000
    3       -8.770888   1.000000
    4       -8.396068   1.000000
    5       -8.193838   1.000000
    6       -7.881765   1.000000
    7       -7.593723   1.000000
    8       -6.852290   1.000000
    9       -6.722391   1.000000
   10       -6.548294   1.000000
   11       -5.697722   0.995159
   12        2.465491   0.000000
   13        3.223658   0.000000
   14        3.683568   0.000000
   15        4.123815   0.000000
   16        4.773991   0.000000
   17        5.200681   0.000000
   18        5.628703   0.000000
   19        5.903112   0.000000
   20        6.381329   0.000000
   21        6.979633   0.000000
   22        7.424108   0.000000
   23        7.918498   0.000000
   24        8.890414   0.000000
 
 -0.2222222E+00  0.3750000E+00  0.3747003E-15  0.3968254E-02
    1      -10.773135   1.000000
    2       -9.579291   1.000000
    3       -8.595219   1.000000
    4       -8.249957   1.000000
    5       -8.058895   1.000000
    6       -7.964065   1.000000
    7       -7.342191   1.000000
    8       -6.716878   1.000000
    9       -6.512165   1.000000
   10       -6.376423   1.000000
   11       -5.829930   0.999930
   12        2.546034   0.000000
   13        3.331848   0.000000
   14        3.577770   0.000000
   15        4.017745   0.000000
   16        4.546948   0.000000
   17        5.083232   0.000000
   18        5.482449   0.000000
   19        5.917364   0.000000
   20        6.048605   0.000000
   21        6.921036   0.000000
   22        7.223076   0.000000
   23        7.478538   0.000000
   24        8.682538   0.000000
 
 -0.1111111E+00  0.3750000E+00  0.3608225E-15  0.3968254E-02
    1      -10.953764   1.000000
    2       -9.770055   1.000000
    3       -8.749258   1.000000
    4       -8.241243   1.000000
    5       -8.026174   1.000000
    6       -7.560232   1.000000
    7       -6.998732   1.000000
    8       -6.706546   1.000000
    9       -6.385181   1.000000
   10       -6.269897   1.000000
   11       -5.953303   1.000000
   12        2.655254   0.000000
   13        3.215203   0.000000
   14        3.648390   0.000000
   15        3.844205   0.000000
   16        4.413347   0.000000
   17        4.907790   0.000000
   18        5.318589   0.000000
   19        5.588331   0.000000
   20        6.310384   0.000000
   21        6.679290   0.000000
   22        7.014421   0.000000
   23        7.451552   0.000000
   24        8.369426   0.000000
 
  0.3838076E-15  0.5000000E+00  0.3469447E-15  0.1984127E-02
    1      -10.584867   1.000000
    2      -10.374264   1.000000
    3       -8.686509   1.000000
    4       -8.457077   1.000000
    5       -7.903691   1.000000
    6       -7.100909   1.000000
    7       -6.901981   1.000000
    8       -6.876073   1.000000
    9       -6.491571   1.000000
   10       -6.203201   1.000000
   11       -5.914226   1.000000
   12        2.665398   0.000000
   13        3.117862   0.000000
   14        3.625768   0.000000
   15        4.042877   0.000000
   16        4.395663   0.000000
   17        5.008564   0.000000
   18        5.405319   0.000000
   19        5.855499   0.000000
   20        6.358120   0.000000
   21        6.519877   0.000000
   22        7.224904   0.000000
   23        7.421358   0.000000
   24        7.811999   0.000000
 
  0.1111111E+00  0.5000000E+00  0.3608225E-15  0.3968254E-02
    1      -10.525477   1.000000
    2      -10.311022   1.000000
    3       -8.651851   1.000000
    4       -8.406994   1.000000
    5       -7.887719   1.000000
    6       -7.370278   1.000000
    7       -7.209882   1.000000
    8       -6.705678   1.000000
    9       -6.492071   1.000000
   10       -6.222405   1.000000
   11       -5.883271   0.999997
   12        2.659792   0.000000
   13        3.163474   0.000000
   14        3.633386   0.000000
   15        4.144289   0.000000
   16        4.374947   0.000000
   17        4.989010   0.000000
   18        5.579174   0.000000
   19        5.934754   0.000000
   20        6.404533   0.000000
   21        6.596906   0.000000
   22        7.197136   0.000000
   23        7.356264   0.000000
   24        7.994169   0.000000
 
  0.2222222E+00  0.5000000E+00  0.3330669E-15  0.3968254E-02
    1      -10.341965   1.000000
    2      -10.123262   1.000000
    3       -8.565878   1.000000
    4       -8.274811   1.000000
    5       -8.010382   1.000000
    6       -7.755659   1.000000
    7       -7.559089   1.000000
    8       -6.759730   1.000000
    9       -6.613823   1.000000
   10       -6.286171   1.000000
   11       -5.783262   0.999350
   12        2.588856   0.000000
   13        3.323467   0.000000
   14        3.615283   0.000000
   15        4.188499   0.000000
   16        4.605668   0.000000
   17        5.184868   0.000000
   18        5.868658   0.000000
   19        6.044718   0.000000
   20        6.381555   0.000000