  21  21   1   0
  0.8822331E+01  0.4794187E-09  0.7016269E-09  0.5908897E-09  0.5000000E-15
  1.000000000000000E-004
  CAR 
 unknown system                          
     12.17822512    -34.15212560  301      3.28606025      1.00000000
    -34.152  0.0000E+00  0.0000E+00  0.0000E+00  0.0000E+00
    -33.998  0.0000E+00  0.0000E+00  0.0000E+00  0.0000E+00
    -33.843  0.0000E+00  0.0000E+00  0.0000E+00  0.0000E+00
    -33.689  0.0000E+00  0.0000E+00  0.0000E+00  0.0000E+00
    -33.534  0.0000E+00  0.0000E+00  0.0000E+00  0.0000E+00
    -33.380  0.0000E+00  0.0000E+00  0.0000E+00  0.0000E+00
    -33.226  0.0000E+00  0.0000E+00  0.0000E+00  0.0000E+00
    -33.071  0.0000E+00  0.0000E+00  0.0000E+00  0.0000E+00
    -32.917  0.0000E+00  0.0000E+00  0.0000E+00  0.0000E+00
    -32.762  0.0000E+00  0.0000E+00  0.0000E+00  0.0000E+00
    -32.608  0.0000E+00  0.0000E+00  0.0000E+00  0.0000E+00
    -32.453  0.0000E+00  0.0000E+00  0.0000E+00  0.0000E+00
    -32.299  0.0000E+00  0.0000E+00  0.0000E+00  0.0000E+00
    -32.144  0.0000E+00  0.0000E+00  0.0000E+00  0.0000E+00
    -31.990  0.0000E+00  0.0000E+00  0.1010E-01  0.1010E-01
    -31.836  0.0000E+00  0.0000E+00  0.1010E-01  0.1010E-01
    -31.681  0.0000E+00  0.0000E+00  0.1010E-01  0.1010E-01
    -31.527  0.0000E+00  0.0000E+00  0.1010E-01  0.1010E-01
    -31.372  0.0000E+00  0.0000E+00  0.1010E-01  0.1010E-01
    -31.218  0.0000E+00  0.0000E+00  0.1010E-01  0.1010E-01
    -31.063  0.0000E+00  0.0000E+00  0.1010E-01  0.1010E-01
    -30.909  0.0000E+00  0.0000E+00  0.1010E-01  0.1010E-01
    -30.755  0.0000E+00  0.0000E+00  0.1010E-01  0.1010E-01
    -30.600  0.0000E+00  0.0000E+00  0.1010E-01  0.1010E-01
    -30.446  0.0000E+00  0.0000E+00  0.1010E-01  0.1010E-01
    -30.291  0.0000E+00  0.0000E+00  0.1010E-01  0.1010E-01
    -30.137  0.0000E+00  0.0000E+00  0.1010E-01  0.1010E-01
    -29.982  0.0000E+00  0.0000E+00  0.1010E-01  0.1010E-01
    -29.828  0.0000E+00  0.0000E+00  0.1010E-01  0.1010E-01
    -29.674  0.0000E+00  0.0000E+00  0.1010E-01  0.1010E-01
    -29.519  0.0000E+00  0.0000E+00  0.1010E-01  0.1010E-01
    -29.365  0.0000E+00  0.0000E+00  0.1010E-01  0.1010E-01
    -29.210  0.0000E+00  0.0000E+00  0.1010E-01  0.1010E-01
    -29.056  0.0000E+00  0.0000E+00  0.1010E-01  0.1010E-01
    -28.901  0.0000E+00  0.0000E+00  0.1010E-01  0.1010E-01
    -28.747  0.0000E+00  0.0000E+00  0.1010E-01  0.1010E-01
    -28.592  0.1346E+00  0.1346E+00  0.1227E-01  0.1227E-01
    -28.438  0.2516E+00  0.2516E+00  0.3326E-01  0.3326E-01
    -28.284  0.3928E+00  0.3928E+00  0.6284E-01  0.6284E-01
    -28.129  0.2964E+00  0.2964E+00  0.9396E-01  0.9396E-01
    -27.975  0.1023E+00  0.1023E+00  0.1209E+00  0.1209E+00
    -27.820  0.0000E+00  0.0000E+00  0.1414E+00  0.1414E+00
    -27.666  0.0000E+00  0.0000E+00  0.1515E+00  0.1515E+00
    -27.511  0.2129E+00  0.2128E+00  0.1613E+00  0.1613E+00
    -27.357  0.0000E+00  0.0000E+00  0.1616E+00  0.1616E+00
    -27.203  0.0000E+00  0.0000E+00  0.1616E+00  0.1616E+00
    -27.048  0.0000E+00  0.0000E+00  0.1616E+00  0.1616E+00
    -26.894  0.0000E+00  0.0000E+00  0.1616E+00  0.1616E+00
    -26.739  0.0000E+00  0.0000E+00  0.1616E+00  0.1616E+00
    -26.585  0.0000E+00  0.0000E+00  0.1616E+00  0.1616E+00
    -26.430  0.0000E+00  0.0000E+00  0.1616E+00  0.1616E+00
    -26.276  0.0000E+00  0.0000E+00  0.1616E+00  0.1616E+00
    -26.122  0.0000E+00  0.0000E+00  0.1616E+00  0.1616E+00
    -25.967  0.0000E+00  0.0000E+00  0.1616E+00  0.1616E+00
    -25.813  0.0000E+00  0.0000E+00  0.1616E+00  0.1616E+00
    -25.658  0.0000E+00  0.0000E+00  0.1616E+00  0.1616E+00
    -25.504  0.0000E+00  0.0000E+00  0.1616E+00  0.1616E+00
    -25.349  0.0000E+00  0.0000E+00  0.1616E+00  0.1616E+00
    -25.195  0.0000E+00  0.0000E+00  0.1616E+00  0.1616E+00
    -25.040  0.0000E+00  0.0000E+00  0.1616E+00  0.1616E+00
    -24.886  0.0000E+00  0.0000E+00  0.1616E+00  0.1616E+00
    -24.732  0.0000E+00  0.0000E+00  0.1616E+00  0.1616E+00
    -24.577  0.0000E+00  0.0000E+00  0.1616E+00  0.1616E+00
    -24.423  0.0000E+00  0.0000E+00  0.1616E+00  0.1616E+00
    -24.268  0.0000E+00  0.0000E+00  0.1616E+00  0.1616E+00
    -24.114  0.0000E+00  0.0000E+00  0.1616E+00  0.1616E+00
    -23.959  0.0000E+00  0.0000E+00  0.1616E+00  0.1616E+00
    -23.805  0.0000E+00  0.0000E+00  0.1616E+00  0.1616E+00
    -23.651  0.0000E+00  0.0000E+00  0.1616E+00  0.1616E+00
    -23.496  0.0000E+00  0.0000E+00  0.1616E+00  0.1616E+00
    -23.342  0.0000E+00  0.0000E+00  0.1616E+00  0.1616E+00
    -23.187  0.0000E+00  0.0000E+00  0.1616E+00  0.1616E+00
    -23.033  0.0000E+00  0.0000E+00  0.1616E+00  0.1616E+00
    -22.878  0.0000E+00  0.0000E+00  0.1616E+00  0.1616E+00
    -22.724  0.0000E+00  0.0000E+00  0.1616E+00  0.1616E+00
    -22.570  0.0000E+00  0.0000E+00  0.1616E+00  0.1616E+00
    -22.415  0.0000E+00  0.0000E+00  0.1616E+00  0.1616E+00
    -22.261  0.0000E+00  0.0000E+00  0.1616E+00  0.1616E+00
    -22.106  0.0000E+00  0.0000E+00  0.1616E+00  0.1616E+00
    -21.952  0.0000E+00  0.0000E+00  0.1616E+00  0.1616E+00
    -21.797  0.0000E+00  0.0000E+00  0.1616E+00  0.1616E+00
    -21.643  0.0000E+00  0.0000E+00  0.1616E+00  0.1616E+00
    -21.488  0.0000E+00  0.0000E+00  0.1616E+00  0.1616E+00
    -21.334  0.0000E+00  0.0000E+00  0.1616E+00  0.1616E+00
    -21.180  0.0000E+00  0.0000E+00  0.1616E+00  0.1616E+00
    -21.025  0.0000E+00  0.0000E+00  0.1616E+00  0.1616E+00
    -20.871  0.0000E+00  0.0000E+00  0.1616E+00  0.1616E+00
    -20.716  0.0000E+00  0.0000E+00  0.1616E+00  0.1616E+00
    -20.562  0.0000E+00  0.0000E+00  0.1616E+00  0.1616E+00
    -20.407  0.0000E+00  0.0000E+00  0.1616E+00  0.1616E+00
    -20.253  0.0000E+00  0.0000E+00  0.1616E+00  0.1616E+00
    -20.099  0.0000E+00  0.0000E+00  0.1616E+00  0.1616E+00
    -19.944  0.0000E+00  0.0000E+00  0.1616E+00  0.1616E+00
    -19.790  0.0000E+00  0.0000E+00  0.1616E+00  0.1616E+00
    -19.635  0.0000E+00  0.0000E+00  0.1616E+00  0.1616E+00
    -19.481  0.0000E+00  0.0000E+00  0.1616E+00  0.1616E+00
    -19.326  0.0000E+00  0.0000E+00  0.1616E+00  0.1616E+00
    -19.172  0.0000E+00  0.0000E+00  0.1616E+00  0.1616E+00
    -19.018  0.0000E+00  0.0000E+00  0.1616E+00  0.1616E+00
    -18.863  0.0000E+00  0.0000E+00  0.1616E+00  0.1616E+00
    -18.709  0.0000E+00  0.0000E+00  0.1616E+00  0.1616E+00
    -18.554  0.0000E+00  0.0000E+00  0.1616E+00  0.1616E+00
    -18.400  0.0000E+00  0.0000E+00  0.1616E+00  0.1616E+00
    -18.245  0.0000E+00  0.0000E+00  0.1616E+00  0.1616E+00
    -18.091  0.0000E+00  0.0000E+00  0.1616E+00  0.1616E+00
    -17.937  0.0000E+00  0.0000E+00  0.1616E+00  0.1616E+00
    -17.782  0.0000E+00  0.0000E+00  0.1616E+00  0.1616E+00
    -17.628  0.0000E+00  0.0000E+00  0.1616E+00  0.1616E+00
    -17.473  0.0000E+00  0.0000E+00  0.1616E+00  0.1616E+00
    -17.319  0.0000E+00  0.0000E+00  0.1616E+00  0.1616E+00
    -17.164  0.0000E+00  0.0000E+00  0.1616E+00  0.1616E+00
    -17.010  0.0000E+00  0.0000E+00  0.1616E+00  0.1616E+00
    -16.855  0.0000E+00  0.0000E+00  0.1616E+00  0.1616E+00
    -16.701  0.0000E+00  0.0000E+00  0.1616E+00  0.1616E+00
    -16.547  0.0000E+00  0.0000E+00  0.1616E+00  0.1616E+00
    -16.392  0.0000E+00  0.0000E+00  0.1616E+00  0.1616E+00
    -16.238  0.0000E+00  0.0000E+00  0.1616E+00  0.1616E+00
    -16.083  0.0000E+00  0.0000E+00  0.1616E+00  0.1616E+00
    -15.929  0.0000E+00  0.0000E+00  0.1616E+00  0.1616E+00
    -15.774  0.0000E+00  0.0000E+00  0.1616E+00  0.1616E+00
    -15.620  0.0000E+00  0.0000E+00  0.1616E+00  0.1616E+00
    -15.466  0.0000E+00  0.0000E+00  0.1616E+00  0.1616E+00
    -15.311  0.0000E+00  0.0000E+00  0.1616E+00  0.1616E+00
    -15.157  0.0000E+00  0.0000E+00  0.1616E+00  0.1616E+00
    -15.002  0.0000E+00  0.0000E+00  0.1616E+00  0.1616E+00
    -14.848  0.0000E+00  0.0000E+00  0.1616E+00  0.1616E+00
    -14.693  0.0000E+00  0.0000E+00  0.1616E+00  0.1616E+00
    -14.539  0.0000E+00  0.0000E+00  0.1616E+00  0.1616E+00
    -14.385  0.0000E+00  0.0000E+00  0.1616E+00  0.1616E+00
    -14.230  0.0000E+00  0.0000E+00  0.1616E+00  0.1616E+00
    -14.076  0.0000E+00  0.0000E+00  0.1919E+00  0.1919E+00
    -13.921  0.0000E+00  0.0000E+00  0.1919E+00  0.1919E+00
    -13.767  0.0000E+00  0.0000E+00  0.1919E+00  0.1919E+00
    -13.612  0.0000E+00  0.0000E+00  0.1919E+00  0.1919E+00
    -13.458  0.0000E+00  0.0000E+00  0.1919E+00  0.1919E+00
    -13.303  0.0000E+00  0.0000E+00  0.1919E+00  0.1919E+00
    -13.149  0.0000E+00  0.0000E+00  0.1919E+00  0.1919E+00
    -12.995  0.0000E+00  0.0000E+00  0.1919E+00  0.1919E+00
    -12.840  0.0000E+00  0.0000E+00  0.1919E+00  0.1919E+00
    -12.686  0.0000E+00  0.0000E+00  0.1919E+00  0.1919E+00
    -12.531  0.0000E+00  0.0000E+00  0.1919E+00  0.1919E+00
    -12.377  0.0000E+00  0.0000E+00  0.1919E+00  0.1919E+00
    -12.222  0.0000E+00  0.0000E+00  0.1919E+00  0.1919E+00
    -12.068  0.0000E+00  0.0000E+00  0.1919E+00  0.1919E+00
    -11.914  0.0000E+00  0.0000E+00  0.1919E+00  0.1919E+00
    -11.759  0.0000E+00  0.0000E+00  0.1919E+00  0.1919E+00
    -11.605  0.0000E+00  0.0000E+00  0.1919E+00  0.1919E+00
    -11.450  0.0000E+00  0.0000E+00  0.1919E+00  0.1919E+00
    -11.296  0.0000E+00  0.0000E+00  0.1919E+00  0.1919E+00
    -11.141  0.0000E+00  0.0000E+00  0.1919E+00  0.1919E+00
    -10.987  0.0000E+00  0.0000E+00  0.1919E+00  0.1919E+00
    -10.833  0.0000E+00  0.0000E+00  0.1919E+00  0.1919E+00
    -10.678  0.0000E+00  0.0000E+00  0.1919E+00  0.1919E+00
    -10.524  0.0000E+00  0.0000E+00  0.1919E+00  0.1919E+00
    -10.369  0.0000E+00  0.0000E+00  0.1919E+00  0.1919E+00
    -10.215  0.0000E+00  0.0000E+00  0.1919E+00  0.1919E+00
    -10.060  0.0000E+00  0.0000E+00  0.1919E+00  0.1919E+00
     -9.906  0.0000E+00  0.0000E+00  0.1919E+00  0.1919E+00
     -9.751  0.0000E+00  0.0000E+00  0.1919E+00  0.1919E+00
     -9.597  0.0000E+00  0.0000E+00  0.1919E+00  0.1919E+00
     -9.443  0.0000E+00  0.0000E+00  0.1919E+00  0.1919E+00
     -9.288  0.0000E+00  0.0000E+00  0.1919E+00  0.1919E+00
     -9.134  0.0000E+00  0.0000E+00  0.1919E+00  0.1919E+00
     -8.979  0.0000E+00  0.0000E+00  0.1919E+00  0.1919E+00
     -8.825  0.0000E+00  0.0000E+00  0.1919E+00  0.1919E+00
     -8.670  0.0000E+00  0.0000E+00  0.1919E+00  0.1919E+00
     -8.516  0.0000E+00  0.0000E+00  0.1919E+00  0.1919E+00
     -8.362  0.0000E+00  0.0000E+00  0.1919E+00  0.1919E+00
     -8.207  0.0000E+00  0.0000E+00  0.1919E+00  0.1919E+00
     -8.053  0.0000E+00  0.0000E+00  0.1919E+00  0.1919E+00
     -7.898  0.0000E+00  0.0000E+00  0.1919E+00  0.1919E+00
     -7.744  0.0000E+00  0.0000E+00  0.1919E+00  0.1919E+00
     -7.589  0.0000E+00  0.0000E+00  0.1919E+00  0.1919E+00
     -7.435  0.0000E+00  0.0000E+00  0.1919E+00  0.1919E+00
     -7.281  0.0000E+00  0.0000E+00  0.1919E+00  0.1919E+00
     -7.126  0.0000E+00  0.0000E+00  0.1919E+00  0.1919E+00
     -6.972  0.0000E+00  0.0000E+00  0.1919E+00  0.1919E+00
     -6.817  0.0000E+00  0.0000E+00  0.1919E+00  0.1919E+00
     -6.663  0.0000E+00  0.0000E+00  0.1919E+00  0.1919E+00
     -6.508  0.0000E+00  0.0000E+00  0.1919E+00  0.1919E+00
     -6.354  0.0000E+00  0.0000E+00  0.1919E+00  0.1919E+00
     -6.199  0.6932E-04  0.6931E-04  0.1919E+00  0.1919E+00
     -6.045  0.1124E-02  0.1124E-02  0.1920E+00  0.1920E+00
     -5.891  0.3432E-02  0.3432E-02  0.1923E+00  0.1923E+00
     -5.736  0.5845E-02  0.5845E-02  0.1931E+00  0.1931E+00
     -5.582  0.6947E-02  0.6947E-02  0.1941E+00  0.1941E+00
     -5.427  0.7603E-02  0.7603E-02  0.1952E+00  0.1952E+00
     -5.273  0.8763E-02  0.8763E-02  0.1965E+00  0.1965E+00
     -5.118  0.8911E-02  0.8911E-02  0.1979E+00  0.1979E+00
     -4.964  0.8839E-02  0.8839E-02  0.1992E+00  0.1992E+00
     -4.810  0.6814E-02  0.6814E-02  0.2004E+00  0.2004E+00
     -4.655  0.4820E-02  0.4820E-02  0.2013E+00  0.2013E+00
     -4.501  0.6334E-02  0.6334E-02  0.2021E+00  0.2021E+00
     -4.346  0.5899E-02  0.5899E-02  0.2028E+00  0.2028E+00
     -4.192  0.1422E-01  0.1422E-01  0.2043E+00  0.2043E+00
     -4.037  0.2379E-01  0.2379E-01  0.2076E+00  0.2076E+00
     -3.883  0.1359E-01  0.1359E-01  0.2107E+00  0.2107E+00
     -3.729  0.4312E-02  0.4312E-02  0.2118E+00  0.2118E+00
     -3.574  0.3373E-01  0.3373E-01  0.2144E+00  0.2144E+00
     -3.420  0.2741E-01  0.2741E-01  0.2194E+00  0.2194E+00
     -3.265  0.6088E-02  0.6088E-02  0.2220E+00  0.2220E+00
     -3.111  0.4292E-01  0.4292E-01  0.2256E+00  0.2256E+00
     -2.956  0.1014E-01  0.1014E-01  0.2322E+00  0.2322E+00
     -2.802  0.2938E-01  0.2938E-01  0.2331E+00  0.2331E+00
     -2.647  0.5028E-01  0.5028E-01  0.2411E+00  0.2411E+00
     -2.493  0.5373E-01  0.5373E-01  0.2510E+00  0.2510E+00
     -2.339  0.1057E+00  0.1057E+00  0.2580E+00  0.2580E+00
     -2.184  0.3444E-02  0.3444E-02  0.2628E+00  0.2628E+00
     -2.030  0.4875E-01  0.4875E-01  0.2703E+00  0.2703E+00
     -1.875  0.6478E-01  0.6478E-01  0.2764E+00  0.2764E+00
     -1.721  0.4669E-01  0.4669E-01  0.2857E+00  0.2857E+00
     -1.566  0.3520E-01  0.3520E-01  0.2922E+00  0.2922E+00
     -1.412  0.1081E+00  0.1081E+00  0.2973E+00  0.2973E+00
     -1.258  0.6744E-01  0.6744E-01  0.3049E+00  0.3049E+00
     -1.103  0.1162E-02  0.1163E-02  0.3131E+00  0.3131E+00
     -0.949  0.9348E-01  0.9348E-01  0.3180E+00  0.3180E+00
     -0.794  0.5606E-02  0.5606E-02  0.3232E+00  0.3232E+00
     -0.640  0.7865E-01  0.7865E-01  0.3280E+00  0.3280E+00
     -0.485  0.3050E-02  0.3050E-02  0.3333E+00  0.3333E+00
     -0.331  0.2636E-02  0.2636E-02  0.3334E+00  0.3334E+00
     -0.177  0.2999E-01  0.2999E-01  0.3368E+00  0.3368E+00
     -0.022  0.4703E-01  0.4703E-01  0.3414E+00  0.3414E+00
      0.132  0.1278E-02  0.1278E-02  0.3434E+00  0.3434E+00
      0.287  0.0000E+00  0.0000E+00  0.3434E+00  0.3434E+00
      0.441  0.0000E+00  0.0000E+00  0.3434E+00  0.3434E+00
      0.596  0.0000E+00  0.0000E+00  0.3434E+00  0.3434E+00
      0.750  0.0000E+00  0.0000E+00  0.3434E+00  0.3434E+00
      0.905  0.0000E+00  0.0000E+00  0.3434E+00  0.3434E+00
      1.059  0.0000E+00  0.0000E+00  0.3434E+00  0.3434E+00
      1.213  0.2119E-02  0.2119E-02  0.3435E+00  0.3435E+00
      1.368  0.4628E-01  0.4628E-01  0.3478E+00  0.3478E+00
      1.522  0.1008E-01  0.1008E-01  0.3535E+00  0.3535E+00
      1.677  0.9060E-02  0.9060E-02  0.3540E+00  0.3540E+00
      1.831  0.2779E-01  0.2779E-01  0.3563E+00  0.3563E+00
      1.986  0.4476E-01  0.4476E-01  0.3623E+00  0.3623E+00
      2.140  0.7700E-01  0.7700E-01  0.3693E+00  0.3693E+00
      2.294  0.7775E-02  0.7775E-02  0.3739E+00  0.3739E+00
      2.449  0.3690E-01  0.3690E-01  0.3795E+00  0.3795E+00
      2.603  0.5135E-01  0.5135E-01  0.3854E+00  0.3854E+00
      2.758  0.3461E-01  0.3461E-01  0.3909E+00  0.3909E+00
      2.912  0.2893E-01  0.2893E-01  0.3942E+00  0.3942E+00
      3.067  0.3537E-01  0.3537E-01  0.3998E+00  0.3998E+00
      3.221  0.1533E-01  0.1533E-01  0.4032E+00  0.4032E+00
      3.375  0.2859E-01  0.2859E-01  0.4056E+00  0.4056E+00
      3.530  0.2202E-01  0.2202E-01  0.4124E+00  0.4124E+00
      3.684  0.2452E-01  0.2452E-01  0.4152E+00  0.4152E+00
      3.839  0.5237E-01  0.5237E-01  0.4225E+00  0.4225E+00
      3.993  0.9822E-01  0.9823E-01  0.4272E+00  0.4272E+00
      4.148  0.8666E-02  0.8665E-02  0.4343E+00  0.4343E+00
      4.302  0.7559E-01  0.7559E-01  0.4403E+00  0.4403E+00
      4.457  0.9827E-02  0.9827E-02  0.4447E+00  0.4447E+00
      4.611  0.4681E-01  0.4681E-01  0.4531E+00  0.4531E+00
      4.765  0.6077E-01  0.6077E-01  0.4575E+00  0.4575E+00
      4.920  0.2471E-01  0.2471E-01  0.4652E+00  0.4652E+00
      5.074  0.6310E-01  0.6310E-01  0.4728E+00  0.4728E+00
      5.229  0.1227E+00  0.1227E+00  0.4795E+00  0.4795E+00
      5.383  0.2898E-01  0.2898E-01  0.4852E+00  0.4852E+00
      5.538  0.3017E-01  0.3017E-01  0.4933E+00  0.4933E+00
      5.692  0.4176E-01  0.4176E-01  0.4972E+00  0.4972E+00
      5.846  0.3595E-01  0.3595E-01  0.5044E+00  0.5044E+00
      6.001  0.2464E-01  0.2464E-01  0.5080E+00  0.5080E+00
      6.155  0.3697E-01  0.3697E-01  0.5131E+00  0.5131E+00
      6.310  0.3353E-01  0.3353E-01  0.5184E+00  0.5184E+00
      6.464  0.3709E-01  0.3709E-01  0.5235E+00  0.5235E+00
      6.619  0.3442E-01  0.3442E-01  0.5292E+00  0.5292E+00
      6.773  0.2659E-01  0.2659E-01  0.5340E+00  0.5340E+00
      6.927  0.2936E-01  0.2936E-01  0.5389E+00  0.5389E+00
      7.082  0.2336E-01  0.2336E-01  0.5427E+00  0.5427E+00
      7.236  0.4308E-01  0.4308E-01  0.5478E+00  0.5478E+00
      7.391  0.2851E-01  0.2851E-01  0.5528E+00  0.5528E+00
      7.545  0.1451E-01  0.1451E-01  0.5561E+00  0.5561E+00
      7.700  0.3946E-01  0.3946E-01  0.5613E+00  0.5613E+00
      7.854  0.1393E-01  0.1393E-01  0.5656E+00  0.5656E+00
      8.008  0.5506E-01  0.5506E-01  0.5705E+00  0.5705E+00
      8.163  0.3411E-01  0.3410E-01  0.5762E+00  0.5762E+00
      8.317  0.4282E-01  0.4282E-01  0.5840E+00  0.5840E+00
      8.472  0.3707E-01  0.3707E-01  0.5875E+00  0.5875E+00
      8.626  0.1309E-01  0.1309E-01  0.5957E+00  0.5957E+00
      8.781  0.8601E-01  0.8601E-01  0.6010E+00  0.6010E+00
      8.935  0.2973E-01  0.2974E-01  0.6064E+00  0.6064E+00
      9.090  0.1651E-01  0.1651E-01  0.6160E+00  0.6160E+00
      9.244  0.4680E-01  0.4680E-01  0.6189E+00  0.6189E+00
      9.398  0.2238E-01  0.2238E-01  0.6260E+00  0.6260E+00
      9.553  0.6112E-01  0.6118E-01  0.6326E+00  0.6326E+00
      9.707  0.1647E-02  0.1647E-02  0.6363E+00  0.6363E+00
      9.862  0.6173E-01  0.6163E-01  0.6405E+00  0.6405E+00
     10.016  0.1481E-02  0.1520E-02  0.6464E+00  0.6464E+00
     10.171  0.0000E+00  0.0000E+00  0.6465E+00  0.6465E+00
     10.325  0.0000E+00  0.0000E+00  0.6465E+00  0.6465E+00
     10.479  0.0000E+00  0.0000E+00  0.6465E+00  0.6465E+00
     10.634  0.0000E+00  0.0000E+00  0.6465E+00  0.6465E+00
     10.788  0.0000E+00  0.0000E+00  0.6465E+00  0.6465E+00
     10.943  0.0000E+00  0.0000E+00  0.6465E+00  0.6465E+00
     11.097  0.0000E+00  0.0000E+00  0.6465E+00  0.6465E+00
     11.252  0.0000E+00  0.0000E+00  0.6465E+00  0.6465E+00
     11.406  0.0000E+00  0.0000E+00  0.6465E+00  0.6465E+00
     11.560  0.0000E+00  0.0000E+00  0.6465E+00  0.6465E+00
     11.715  0.0000E+00  0.0000E+00  0.6465E+00  0.6465E+00
     11.869  0.0000E+00  0.0000E+00  0.6465E+00  0.6465E+00
     12.024  0.0000E+00  0.0000E+00  0.6465E+00  0.6465E+00
     12.178  0.0000E+00  0.0000E+00  0.6465E+00  0.6465E+00
     12.17822512    -34.15212560  301      3.28606025      1.00000000
    -34.152  0.0000E+00  0.0000E+00  0.0000E+00  0.0000E+00  0.0000E+00  0.0000E+00  0.0000E+00  0.0000E+00  0.0000E+00  0.0000E+00  0.0000E+00  0.0000E+00  0.0000E+00  0.0000E+00  0.0000E+00  0.0000E+00  0.0000E+00  0.0000E+00
    -33.998  0.0000E+00  0.0000E+00  0.0000E+00  0.0000E+00  0.0000E+00  0.0000E+00  0.0000E+00  0.0000E+00  0.0000E+00  0.0000E+00  0.0000E+00  0.0000E+00  0.0000E+00  0.0000E+00  0.0000E+00  0.0000E+00  0.0000E+00  0.0000E+00
    -33.843  0.0000E+00  0.0000E+00  0.0000E+00  0.0000E+00  0.0000E+00  0.0000E+00  0.0000E+00  0.0000E+00  0.0000E+00  0.0000E+00  0.0000E+00  0.0000E+00  0.0000E+00  0.0000E+00  0.0000E+00  0.0000E+00  0.0000E+00  0.0000E+00
    -33.689  0.0000E+00  0.0000E+00  0.0000E+00  0.0000E+00  0.0000E+00  0.0000E+00  0.0000E+00  0.0000E+00  0.0000E+00  0.0000E+00  0.0000E+00  0.0000E+00  0.0000E+00  0.0000E+00  0.0000E+00  0.0000E+00  0.0000E+00  0.0000E+00
    -33.534  0.0000E+00  0.0000E+00  0.0000E+00  0.0000E+00  0.0000E+00  0.0000E+00  0.0000E+00  0.0000E+00  0.0000E+00  0.0000E+00  0.0000E+00  0.0000E+00  0.0000E+00  0.0000E+00  0.0000E+00  0.0000E+00  0.0000E+00  0.0000E+00
    -33.380  0.0000E+00  0.0000E+00  0.0000E+00  0.0000E+00  0.0000E+00  0.0000E+00  0.0000E+00  0.0000E+00  0.0000E+00  0.0000E+00  0.0000E+00  0.0000E+00  0.0000E+00  0.0000E+00  0.0000E+00  0.0000E+00  0.0000E+00  0.0000E+00
    -33.226  0.0000E+00  0.0000E+00  0.0000E+00  0.0000E+00  0.0000E+00  0.0000E+00  0.0000E+00  0.0000E+00  0.0000E+00  0.0000E+00  0.0000E+00  0.0000E+00  0.0000E+00  0.0000E+00  0.0000E+00  0.0000E+00  0.0000E+00  0.0000E+00
    -33.071  0.0000E+00  0.0000E+00  0.0000E+00  0.0000E+00  0.0000E+00  0.0000E+00  0.0000E+00  0.0000E+00  0.0000E+00  0.0000E+00  0.0000E+00  0.0000E+00  0.0000E+00  0.0000E+00  0.0000E+00  0.0000E+00  0.0000E+00  0.0000E+00
    -32.917  0.0000E+00  0.0000E+00  0.0000E+00  0.0000E+00  0.0000E+00  0.0000E+00  0.0000E+00  0.0000E+00  0.0000E+00  0.0000E+00  0.0000E+00  0.0000E+00  0.0000E+00  0.0000E+00  0.0000E+00  0.0000E+00  0.0000E+00  0.0000E+00
    -32.762  0.0000E+00  0.0000E+00  0.0000E+00  0.0000E+00  0.0000E+00  0.0000E+00  0.0000E+00  0.0000E+00  0.0000E+00  0.0000E+00  0.0000E+00  0.0000E+00  0.0000E+00  0.0000E+00  0.0000E+00  0.0000E+00  0.0000E+00  0.0000E+00
    -32.608  0.0000E+00  0.0000E+00  0.0000E+00  0.0000E+00  0.0000E+00  0.0000E+00  0.0000E+00  0.0000E+00  0.0000E+00  0.0000E+00  0.0000E+00  0.0000E+00  0.0000E+00  0.0000E+00  0.0000E+00  0.0000E+00  0.0000E+00  0.0000E+00
    -32.453  0.0000E+00  0.0000E+00  0.0000E+00  0.0000E+00  0.0000E+00  0.0000E+00  0.0000E+00  0.0000E+00  0.0000E+00  0.0000E+00  0.0000E+00  0.0000E+00  0.0000E+00  0.0000E+00  0.0000E+00  0.0000E+00  0.0000E+00  0.0000E+00
    -32.299  0.0000E+00  0.0000E+00  0.0000E+00  0.0000E+00  0.0000E+00  0.0000E+00  0.0000E+00  0.0000E+00  0.0000E+00  0.0000E+00  0.0000E+00  0.0000E+00  0.0000E+00  0.0000E+00  0.0000E+00  0.0000E+00  0.0000E+00  0.0000E+00
    -32.144  0.0000E+00  0.0000E+00  0.0000E+00  0.0000E+00  0.0000E+00  0.0000E+00  0.0000E+00  0.0000E+00  0.0000E+00  0.0000E+00  0.0000E+00  0.0000E+00  0.0000E+00  0.0000E+00  0.0000E+00  0.0000E+00  0.0000E+00  0.0000E+00
    -31.990  0.0000E+00  0.0000E+00  0.0000E+00  0.0000E+00  0.0000E+00  0.0000E+00  0.0000E+00  0.0000E+00  0.0000E+00  0.0000E+00  0.0000E+00  0.0000E+00  0.0000E+00  0.0000E+00  0.0000E+00  0.0000E+00  0.0000E+00  0.0000E+00
    -31.836  0.0000E+00  0.0000E+00  0.0000E+00  0.0000E+00  0.0000E+00  0.0000E+00  0.0000E+00  0.0000E+00  0.0000E+00  0.0000E+00  0.0000E+00  0.0000E+00  0.0000E+00  0.0000E+00  0.0000E+00  0.0000E+00  0.0000E+00  0.0000E+00
    -31.681  0.0000E+00  0.0000E+00  0.0000E+00  0.0000E+00  0.0000E+00  0.0000E+00  0.0000E+00  0.0000E+00  0.0000E+00  0.0000E+00  0.0000E+00  0.0000E+00  0.0000E+00  0.0000E+00  0.0000E+00  0.0000E+00  0.0000E+00  0.0000E+00
    -31.527  0.0000E+00  0.0000E+00  0.0000E+00  0.0000E+00  0.0000E+00  0.0000E+00  0.0000E+00  0.0000E+00  0.0000E+00  0.0000E+00  0.0000E+00  0.0000E+00  0.0000E+00  0.0000E+00  0.0000E+00  0.0000E+00  0.0000E+00  0.0000E+00
    -31.372  0.0000E+00  0.0000E+00  0.0000E+00  0.0000E+00  0.0000E+00  0.0000E+00  0.0000E+00  0.0000E+00  0.0000E+00  0.0000E+00  0.0000E+00  0.0000E+00  0.0000E+00  0.0000E+00  0.0000E+00  0.0000E+00  0.0000E+00  0.0000E+00
    -31.218  0.0000E+00  0.0000E+00  0.0000E+00  0.0000E+00  0.0000E+00  0.0000E+00  0.0000E+00  0.0000E+00  0.0000E+00  0.0000E+00  0.0000E+00  0.0000E+00  0.0000E+00  0.0000E+00  0.0000E+00  0.0000E+00  0.0000E+00  0.0000E+00
    -31.063  0.0000E+00  0.0000E+00  0.0000E+00  0.0000E+00  0.0000E+00  0.0000E+00  0.0000E+00  0.0000E+00  0.0000E+00  0.0000E+00  0.0000E+00  0.0000E+00  0.0000E+00  0.0000E+00  0.0000E+00  0.0000E+00  0.0000E+00  0.0000E+00
    -30.909  0.0000E+00  0.0000E+00  0.0000E+00  0.0000E+00  0.0000E+00  0.0000E+00  0.0000E+00  0.0000E+00  0.0000E+00  0.0000E+00  0.0000E+00  0.0000E+00  0.0000E+00  0.0000E+00  0.0000E+00  0.0000E+00  0.0000E+00  0.0000E+00
    -30.755  0.0000E+00  0.0000E+00  0.0000E+00  0.0000E+00  0.0000E+00  0.0000E+00  0.0000E+00  0.0000E+00  0.0000E+00  0.0000E+00  0.0000E+00  0.0000E+00  0.0000E+00  0.0000E+00  0.0000E+00  0.0000E+00  0.0000E+00  0.0000E+00
    -30.600  0.0000E+00  0.0000E+00  0.0000E+00  0.0000E+00  0.0000E+00  0.0000E+00  0.0000E+00  0.0000E+00  0.0000E+00  0.0000E+00  0.0000E+00  0.0000E+00  0.0000E+00  0.0000E+00  0.0000E+00  0.0000E+00  0.0000E+00  0.0000E+00
    -30.446  0.0000E+00  0.0000E+00  0.0000E+00  0.0000E+00  0.0000E+00  0.0000E+00  0.0000E+00  0.0000E+00  0.0000E+00  0.0000E+00  0.0000E+00  0.0000E+00  0.0000E+00  0.0000E+00  0.0000E+00  0.0000E+00  0.0000E+00  0.0000E+00
    -30.291  0.0000E+00  0.0000E+00  0.0000E+00  0.0000E+00  0.0000E+00  0.0000E+00  0.0000E+00  0.0000E+00  0.0000E+00  0.0000E+00  0.0000E+00  0.0000E+00  0.0000E+00  0.0000E+00  0.0000E+00  0.0000E+00  0.0000E+00  0.0000E+00
    -30.137  0.0000E+00  0.0000E+00  0.0000E+00  0.0000E+00  0.0000E+00  0.0000E+00  0.0000E+00  0.0000E+00  0.0000E+00  0.0000E+00  0.0000E+00  0.0000E+00  0.0000E+00  0.0000E+00  0.0000E+00  0.0000E+00  0.0000E+00  0.0000E+00
    -29.982  0.0000E+00  0.0000E+00  0.0000E+00  0.0000E+00  0.0000E+00  0.0000E+00  0.0000E+00  0.0000E+00  0.0000E+00  0.0000E+00  0.0000E+00  0.0000E+00  0.0000E+00  0.0000E+00  0.0000E+00  0.0000E+00  0.0000E+00  0.0000E+00
    -29.828  0.0000E+00  0.0000E+00  0.0000E+00  0.0000E+00  0.0000E+00  0.0000E+00  0.0000E+00  0.0000E+00  0.0000E+00  0.0000E+00  0.0000E+00  0.0000E+00  0.0000E+00  0.0000E+00  0.0000E+00  0.0000E+00  0.0000E+00  0.0000E+00
    -29.674  0.0000E+00  0.0000E+00  0.0000E+00  0.0000E+00  0.0000E+00  0.0000E+00  0.0000E+00  0.0000E+00  0.0000E+00  0.0000E+00  0.0000E+00  0.0000E+00  0.0000E+00  0.0000E+00  0.0000E+00  0.0000E+00  0.0000E+00  0.0000E+00
    -29.519  0.0000E+00  0.0000E+00  0.0000E+00  0.0000E+00  0.0000E+00  0.0000E+00  0.0000E+00  0.0000E+00  0.0000E+00  0.0000E+00  0.0000E+00  0.0000E+00  0.0000E+00  0.0000E+00  0.0000E+00  0.0000E+00  0.0000E+00  0.0000E+00
    -29.365  0.0000E+00  0.0000E+00  0.0000E+00  0.0000E+00  0.0000E+00  0.0000E+00  0.0000E+00  0.0000E+00  0.0000E+00  0.0000E+00  0.0000E+00  0.0000E+00  0.0000E+00  0.0000E+00  0.0000E+00  0.0000E+00  0.0000E+00  0.0000E+00
    -29.210  0.0000E+00  0.0000E+00  0.0000E+00  0.0000E+00  0.0000E+00  0.0000E+00  0.0000E+00  0.0000E+00  0.0000E+00  0.0000E+00  0.0000E+00  0.0000E+00  0.0000E+00  0.0000E+00  0.0000E+00  0.0000E+00  0.0000E+00  0.0000E+00
    -29.056  0.0000E+00  0.0000E+00  0.0000E+00  0.0000E+00  0.0000E+00  0.0000E+00  0.0000E+00  0.0000E+00  0.0000E+00  0.0000E+00  0.0000E+00  0.0000E+00  0.0000E+00  0.0000E+00  0.0000E+00  0.0000E+00  0.0000E+00  0.0000E+00
    -28.901  0.0000E+00  0.0000E+00  0.0000E+00  0.0000E+00  0.0000E+00  0.0000E+00  0.0000E+00  0.0000E+00  0.0000E+00  0.0000E+00  0.0000E+00  0.0000E+00  0.0000E+00  0.0000E+00  0.0000E+00  0.0000E+00  0.0000E+00  0.0000E+00
    -28.747  0.0000E+00  0.0000E+00  0.0000E+00  0.0000E+00  0.0000E+00  0.0000E+00  0.0000E+00  0.0000E+00  0.0000E+00  0.0000E+00  0.0000E+00  0.0000E+00  0.0000E+00  0.0000E+00  0.0000E+00  0.0000E+00  0.0000E+00  0.0000E+00
    -28.592  0.1682E-03  0.1682E-03  0.2199E-04  0.2199E-04  0.5610E-05  0.5610E-05  0.4082E-05  0.4083E-05  0.1354E-05  0.1354E-05  0.2956E-05  0.2956E-05  0.2003E-05  0.2003E-05  0.1673E-05  0.1673E-05  0.4317E-05  0.4317E-05
    -28.438  0.5023E-03  0.5023E-03  0.9690E-04  0.9690E-04  0.2647E-04  0.2647E-04  0.5047E-04  0.5046E-04  0.1325E-04  0.1324E-04  0.5922E-05  0.5921E-05  0.3999E-05  0.3998E-05  0.6788E-05  0.6788E-05  0.8429E-05  0.8426E-05
    -28.284  0.7815E-03  0.7815E-03  0.1022E-03  0.1022E-03  0.7059E-04  0.7059E-04  0.3988E-04  0.3988E-04  0.1289E-04  0.1289E-04  0.2565E-04  0.2565E-04  0.6931E-05  0.6932E-05  0.2147E-04  0.2147E-04  0.1754E-04  0.1754E-04
    -28.129  0.3262E-03  0.3262E-03  0.4891E-04  0.4892E-04  0.3299E-04  0.3299E-04  0.8377E-04  0.8380E-04  0.2932E-04  0.2933E-04  0.1093E-04  0.1093E-04  0.2158E-05  0.2159E-05  0.1297E-04  0.1298E-04  0.6740E-05  0.6741E-05
    -27.975  0.9759E-04  0.9757E-04  0.1762E-04  0.1762E-04  0.1537E-04  0.1537E-04  0.5883E-05  0.5882E-05  0.2630E-05  0.2630E-05  0.9485E-05  0.9478E-05  0.2277E-05  0.2278E-05  0.1954E-05  0.1953E-05  0.3074E-05  0.3074E-05
    -27.820  0.0000E+00  0.0000E+00  0.0000E+00  0.0000E+00  0.0000E+00  0.0000E+00  0.0000E+00  0.0000E+00  0.0000E+00  0.0000E+00  0.0000E+00  0.0000E+00  0.0000E+00  0.0000E+00  0.0000E+00  0.0000E+00  0.0000E+00  0.0000E+00
    -27.666  0.0000E+00  0.0000E+00  0.0000E+00  0.0000E+00  0.0000E+00  0.0000E+00  0.0000E+00  0.0000E+00  0.0000E+00  0.0000E+00  0.0000E+00  0.0000E+00  0.0000E+00  0.0000E+00  0.0000E+00  0.0000E+00  0.0000E+00  0.0000E+00
    -27.511  0.4686E-03  0.4684E-03  0.9361E-04  0.9359E-04  0.3673E-04  0.3672E-04  0.1212E-03  0.1212E-03  0.4961E-04  0.4959E-04  0.1533E-04  0.1533E-04  0.6825E-05  0.6828E-05  0.1887E-04  0.1887E-04  0.1416E-05  0.1416E-05
    -27.357  0.0000E+00  0.0000E+00  0.0000E+00  0.0000E+00  0.0000E+00  0.0000E+00  0.0000E+00  0.0000E+00  0.0000E+00  0.0000E+00  0.0000E+00  0.0000E+00  0.0000E+00  0.0000E+00  0.0000E+00  0.0000E+00  0.0000E+00  0.0000E+00
    -27.203  0.0000E+00  0.0000E+00  0.0000E+00  0.0000E+00  0.0000E+00  0.0000E+00  0.0000E+00  0.0000E+00  0.0000E+00  0.0000E+00  0.0000E+00  0.0000E+00  0.0000E+00  0.0000E+00  0.0000E+00  0.0000E+00  0.0000E+00  0.0000E+00
    -27.048  0.0000E+00  0.0000E+00  0.0000E+00  0.0000E+00  0.0000E+00  0.0000E+00  0.0000E+00  0.0000E+00  0.0000E+00  0.0000E+00  0.0000E+00  0.0000E+00  0.0000E+00  0.0000E+00  0.0000E+00  0.0000E+00  0.0000E+00  0.0000E+00
    -26.894  0.0000E+00  0.0000E+00  0.0000E+00  0.0000E+00  0.0000E+00  0.0000E+00  0.0000E+00  0.0000E+00  0.0000E+00  0.0000E+00  0.0000E+00  0.0000E+00  0.0000E+00  0.0000E+00  0.0000E+00  0.0000E+00  0.0000E+00  0.0000E+00
    -26.739  0.0000E+00  0.0000E+00  0.0000E+00  0.0000E+00  0.0000E+00  0.0000E+00  0.0000E+00  0.0000E+00  0.0000E+00  0.0000E+00  0.0000E+00  0.0000E+00  0.0000E+00  0.0000E+00  0.0000E+00  0.0000E+00  0.0000E+00  0.0000E+00
    -26.585  0.0000E+00  0.0000E+00  0.0000E+00  0.0000E+00  0.0000E+00  0.0000E+00  0.0000E+00  0.0000E+00  0.0000E+00  0.0000E+00  0.0000E+00  0.0000E+00  0.0000E+00  0.0000E+00  0.0000E+00  0.0000E+00  0.0000E+00  0.0000E+00
    -26.430  0.0000E+00  0.0000E+00  0.0000E+00  0.0000E+00  0.0000E+00  0.0000E+00  0.0000E+00  0.0000E+00  0.0000E+00  0.0000E+00  0.0000E+00  0.0000E+00  0.0000E+00  0.0000E+00  0.0000E+00  0.0000E+00  0.0000E+00  0.0000E+00