unknown system                          
           1
     3.839000   -0.248671   -0.557602
     0.347795    6.572750   -0.542066
     0.138222    0.453551    5.619750
   Sr   Nb   H 
   2   2  13
Direct configuration=     1
   0.57355100  0.39536000  0.79701600
   0.84058200  0.89537600  0.74051700
   0.27787300  0.65032600  0.27192000
   0.27762700  0.14002600  0.27156000
   0.09751100  0.58958600  0.94523900
   0.09664600  0.20129100  0.94567500
   0.47615500  0.39516000  0.19538000
   0.63995600  0.67046900  0.09605100
   0.12857500  0.39543400  0.41693900
   0.29450000  0.10346100  0.60408100
   0.71000900  0.17825500  0.43574200
   0.52021000  0.89524900  0.35433700
   0.63779800  0.11962800  0.09431100
   0.02336700  0.89528900  0.34163500
   0.29378000  0.68730500  0.60414600
   0.70905700  0.61176600  0.43714100
   0.26921400  0.89519900  0.07190300
unknown system                          
           1
     3.875573   -0.251194   -0.564686
     0.350750    6.628499   -0.546549
     0.136164    0.457724    5.668108
   Sr   Nb   H 
   2   2  13
Direct configuration=     2
   0.57314959  0.39536090  0.79707164
   0.84093518  0.89536885  0.74018387
   0.28001025  0.65109945  0.27174640
   0.27983240  0.13921834  0.27160521
   0.09730744  0.58961014  0.94543213
   0.09645215  0.20126342  0.94578823
   0.47590115  0.39518772  0.19527641
   0.63945232  0.67035272  0.09646897
   0.12846954  0.39541346  0.41696275
   0.29478763  0.10356373  0.60382670
   0.70905242  0.17820021  0.43547853
   0.51980152  0.89524142  0.35448586
   0.63739407  0.11974919  0.09475964
   0.02296763  0.89529748  0.34171407
   0.29410027  0.68720826  0.60391404
   0.70815168  0.61183169  0.43686549
   0.26864576  0.89521302  0.07201306
unknown system                          
           1
     3.933863   -0.255214   -0.575978
     0.355459    6.717352   -0.553694
     0.132885    0.464375    5.745180
   Sr   Nb   H 
   2   2  13
Direct configuration=     3
   0.57251594  0.39536232  0.79715937
   0.84149231  0.89535756  0.73965760
   0.28338416  0.65232180  0.27147308
   0.28331419  0.13794193  0.27167777
   0.09698633  0.58964828  0.94573724
   0.09614626  0.20121982  0.94596707
   0.47550025  0.39523153  0.19511259
   0.63865771  0.67016893  0.09712926
   0.12830309  0.39538101  0.41700024
   0.29524139  0.10372610  0.60342497
   0.70754188  0.17811362  0.43506170
   0.51915684  0.89522945  0.35472091
   0.63675696  0.11994070  0.09546842
   0.02233724  0.89531089  0.34183882
   0.29460558  0.68705538  0.60354762
   0.70672206  0.61193550  0.43642964
   0.26774880  0.89523518  0.07218671
unknown system                          
           1
     3.909492   -0.253533   -0.571257
     0.353490    6.680202   -0.550706
     0.134256    0.461594    5.712955
   Sr   Nb   H 
   2   2  13
Direct configuration=     4
   0.57277690  0.39536173  0.79712330
   0.84126310  0.89536221  0.73987460
   0.28199456  0.65181747  0.27158518
   0.28187996  0.13846855  0.27164712
   0.09711844  0.58963254  0.94561143
   0.09627216  0.20123781  0.94589335
   0.47566547  0.39521345  0.19518026
   0.63898466  0.67024477  0.09685701
   0.12837163  0.39539440  0.41698481
   0.29505469  0.10365911  0.60359062
   0.70816431  0.17814935  0.43523397
   0.51942226  0.89523439  0.35462407
   0.63701901  0.11986169  0.09517614
   0.02259684  0.89530536  0.34178748
   0.29439763  0.68711845  0.60369869
   0.70731117  0.61189266  0.43660974
   0.26811818  0.89522604  0.07211525
unknown system                          
           1
     3.911712   -0.253848   -0.572822
     0.351257    6.639578   -0.547161
     0.126376    0.459105    5.675513
   Sr   Nb   H 
   2   2  13
Direct configuration=     5
   0.57138074  0.39536198  0.79756996
   0.84226552  0.89534435  0.73901894
   0.28498089  0.65181991  0.27227381
   0.28476503  0.13847338  0.27194348
   0.09758376  0.59000340  0.94719323
   0.09678597  0.20083085  0.94750020
   0.47382064  0.39523324  0.19547747
   0.63719914  0.67007415  0.09778719
   0.12994916  0.39538733  0.41553862
   0.29575455  0.10381608  0.60177889
   0.70576557  0.17783795  0.43454804
   0.51864128  0.89520792  0.35471315
   0.63523462  0.12004786  0.09623238
   0.02484355  0.89533388  0.34119248
   0.29509367  0.68694293  0.60178539
   0.70482800  0.61222540  0.43581769
   0.26751891  0.89523939  0.07322206
unknown system                          
           1
     3.911901   -0.253875   -0.572955
     0.351067    6.636126   -0.546859
     0.125706    0.458894    5.672332
   Sr   Nb   H 
   2   2  13
Direct configuration=     6
   0.57126226  0.39536199  0.79760814
   0.84235051  0.89534282  0.73894577
   0.28523457  0.65182012  0.27233276
   0.28501004  0.13847380  0.27196888
   0.09762351  0.59003510  0.94732853
   0.09682984  0.20079606  0.94763765
   0.47366404  0.39523493  0.19550286
   0.63704768  0.67005956  0.09786672
   0.13008288  0.39538673  0.41541495
   0.29581370  0.10382950  0.60162394
   0.70556179  0.17781133  0.43448932
   0.51857498  0.89520566  0.35472076
   0.63508327  0.12006377  0.09632269
   0.02503423  0.89533633  0.34114163
   0.29515248  0.68692793  0.60162175
   0.70461703  0.61225384  0.43574990
   0.26746819  0.89524053  0.07331672
unknown system                          
           1
     3.943532   -0.256222   -0.579516
     0.349583    6.611486   -0.544536
     0.115018    0.458645    5.659372
   Sr   Nb   H 
   2   2  13
Direct configuration=     7
   0.56990995  0.39535889  0.79821229
   0.84421799  0.89533674  0.73815350
   0.28361987  0.65126063  0.27180592
   0.28343634  0.13901181  0.27154712
   0.09795046  0.59040497  0.94890798
   0.09720458  0.20039321  0.94917321
   0.47216417  0.39526014  0.19576805
   0.63605226  0.66993444  0.09848092
   0.13198049  0.39538142  0.41362280
   0.29722004  0.10395235  0.60032102
   0.70431232  0.17759162  0.43447169
   0.51919158  0.89518824  0.35546165
   0.63423629  0.12020077  0.09700626
   0.02799465  0.89536465  0.34037755
   0.29657604  0.68679413  0.60031351
   0.70344347  0.61248316  0.43569331
   0.26690050  0.89526281  0.07427622
unknown system                          
           1
     3.962589   -0.257635   -0.583470
     0.348689    6.596642   -0.543136
     0.108579    0.458495    5.651564
   Sr   Nb   H 
   2   2  13
Direct configuration=     8
   0.56910273  0.39535699  0.79857692
   0.84533278  0.89533310  0.73767535
   0.28265404  0.65092229  0.27148740
   0.28249521  0.13933714  0.27129204
   0.09814837  0.59062861  0.94986202
   0.09743096  0.20014957  0.95010078
   0.47126824  0.39527537  0.19592791
   0.63545835  0.66985876  0.09885169
   0.13311169  0.39537828  0.41254073
   0.29805844  0.10402669  0.59953434
   0.70356557  0.17745875  0.43446079
   0.51956125  0.89517770  0.35590927
   0.63373120  0.12028360  0.09741896
   0.02976265  0.89538183  0.33991664
   0.29742470  0.68671327  0.59952363
   0.70274204  0.61262182  0.43565889
   0.26656277  0.89527625  0.07485565
unknown system                          
           1
     3.983850   -0.259254   -0.588713
     0.348383    6.592394   -0.542631
     0.102309    0.459381    5.656692
   Sr   Nb   H 
   2   2  13
Direct configuration=     9
   0.56839212  0.39535333  0.79892869
   0.84663841  0.89533029  0.73723286
   0.28336375  0.65086726  0.27135624
   0.28322768  0.13938686  0.27122000
   0.09787852  0.59072549  0.95030506
   0.09718892  0.20003327  0.95051740
   0.47052011  0.39528975  0.19603604
   0.63453084  0.66979094  0.09918886
   0.13378548  0.39537242  0.41160525
   0.29878368  0.10406011  0.59922596
   0.70251133  0.17736558  0.43443889
   0.51964105  0.89516935  0.35626428
   0.63289621  0.12035906  0.09779989
   0.03100912  0.89539672  0.33954162
   0.29815873  0.68667100  0.59921607
   0.70173785  0.61272041  0.43561250
   0.26614718  0.89528817  0.07510338
unknown system                          
           1
     4.047633   -0.264109   -0.604442
     0.347464    6.579653   -0.541116
     0.083499    0.462039    5.672074
   Sr   Nb   H 
   2   2  13
Direct configuration=    10
   0.56627338  0.39534232  0.79998242
   0.85053224  0.89532194  0.73590785
   0.28548087  0.65070209  0.27096386
   0.28541299  0.13953616  0.27100484
   0.09707543  0.59101629  0.95163288
   0.09646866  0.19968411  0.95176607
   0.46828825  0.39533289  0.19635935
   0.63176481  0.66958730  0.10019859
   0.13579157  0.39535491  0.40880166
   0.30094629  0.10416046  0.59830229
   0.69936542  0.17708587  0.43437209
   0.51988088  0.89514426  0.35732861
   0.63040646  0.12058556  0.09894090
   0.03472673  0.89544146  0.33841879
   0.30034756  0.68654416  0.59829490
   0.69874120  0.61301631  0.43547232
   0.26490828  0.89532391  0.07584557
unknown system                          
           1
     4.175200   -0.273819   -0.635902
     0.345625    6.554169   -0.538086
     0.045878    0.467355    5.702838
   Sr   Nb   H 
   2   2  13
Direct configuration=    11
   0.56211268  0.39531999  0.80208058
   0.85818452  0.89530556  0.73327221
   0.28964457  0.65037126  0.27018550
   0.28971263  0.13983549  0.27058023
   0.09550711  0.59159881  0.95428083
   0.09506256  0.19898426  0.95425635
   0.46389801  0.39541917  0.19699964
   0.62632953  0.66917896  0.10220756
   0.13971407  0.39532028  0.40321129
   0.30519457  0.10436179  0.59646378
   0.69317223  0.17652521  0.43423194
   0.52036296  0.89509387  0.35945308
   0.62551629  0.12103916  0.10121238
   0.04203405  0.89553145  0.33618624
   0.30464746  0.68629023  0.59646146
   0.69284120  0.61360913  0.43518599
   0.26247656  0.89539539  0.07732394
unknown system                          
           1
     4.209071   -0.276938   -0.652620
     0.346031    6.560259   -0.538457
     0.026033    0.470022    5.721171
   Sr   Nb   H 
   2   2  13
Direct configuration=    12
   0.56060363  0.39530255  0.80295895
   0.86238675  0.89529876  0.73181745
   0.29684502  0.65162895  0.27175930
   0.29684610  0.13867470  0.27163479
   0.09352791  0.59140060  0.95378066
   0.09318970  0.19912526  0.95380798
   0.46323170  0.39541827  0.19678901
   0.62262865  0.66907848  0.10289214
   0.13953431  0.39529245  0.40139424
   0.30657116  0.10429685  0.59668425
   0.68959764  0.17662050  0.43421757
   0.51940304  0.89508329  0.35987356
   0.62189273  0.12117051  0.10209687
   0.04317046  0.89554297  0.33553665
   0.30601959  0.68629890  0.59655742
   0.68923830  0.61353759  0.43501899
   0.26172431  0.89540937  0.07677318
unknown system                          
           1
     4.216792   -0.277649   -0.656431
     0.346123    6.561647   -0.538541
     0.021509    0.470629    5.725350
   Sr   Nb   H 
   2   2  13
Direct configuration=    13
   0.56026336  0.39529858  0.80315796
   0.86333538  0.89529721  0.73148863
   0.29847485  0.65191536  0.27212038
   0.29846024  0.13841033  0.27187780
   0.09307984  0.59135547  0.95366604
   0.09276572  0.19915738  0.95370518
   0.46308081  0.39541806  0.19674082
   0.62179256  0.66905560  0.10304608
   0.13949171  0.39528612  0.40098105
   0.30688267  0.10428205  0.59673500
   0.68878934  0.17664221  0.43421267
   0.51918643  0.89508088  0.35996872
   0.62107433  0.12120043  0.10229630
   0.04342672  0.89554559  0.33538948
   0.30632995  0.68630087  0.59657986
   0.68842345  0.61352130  0.43497938
   0.26155362  0.89541255  0.07664763
unknown system                          
           1
     4.244629   -0.280317   -0.673811
     0.347434    6.580113   -0.540194
     0.000286    0.472892    5.740651
   Sr   Nb   H 
   2   2  13
Direct configuration=    14
   0.55925281  0.39529153  0.80402029
   0.86754292  0.89529804  0.72995728
   0.29943506  0.65238477  0.27236084
   0.29941586  0.13799003  0.27204967
   0.09143626  0.59107178  0.95303846
   0.09119328  0.19942420  0.95308790
   0.46375682  0.39540072  0.19632988
   0.61941211  0.66918557  0.10314077
   0.13884589  0.39526082  0.39960104
   0.30852504  0.10406073  0.59744194
   0.68785432  0.17712941  0.43527557
   0.51965391  0.89511362  0.36078993
   0.61876596  0.12110631  0.10250405
   0.04400776  0.89552443  0.33488718
   0.30797407  0.68647904  0.59727916
   0.68747410  0.61305675  0.43594907
   0.26186482  0.89540225  0.07587998
unknown system                          
           1
     4.276259   -0.283349   -0.693560
     0.348924    6.601096   -0.542071
    -0.023828    0.475462    5.758036
   Sr   Nb   H 
   2   2  13
Direct configuration=    15
   0.55811701  0.39528360  0.80499548
   0.87228365  0.89529877  0.72823169
   0.30052025  0.65291659  0.27263597
   0.30049557  0.13751378  0.27224698
   0.08957746  0.59075041  0.95232263
   0.08941481  0.19972657  0.95238396
   0.46451757  0.39538103  0.19586566
   0.61672563  0.66933294  0.10324204
   0.13810906  0.39523216  0.39803462
   0.31038295  0.10380990  0.59824773
   0.68680487  0.17768149  0.43647839
   0.52018625  0.89515071  0.36172228
   0.61616149  0.12099977  0.10273369
   0.04466077  0.89550042  0.33431911
   0.30983389  0.68668086  0.59807629
   0.68640804  0.61253046  0.43704613
   0.26221175  0.89539055  0.07501036
unknown system                          
           1
     4.293004   -0.285498   -0.712507
     0.349087    6.596607   -0.542013
    -0.051517    0.475710    5.746563
   Sr   Nb   H 
   2   2  13
Direct configuration=    16
   0.55702991  0.39528746  0.80617323
   0.87749825  0.89530302  0.72594153
   0.29766754  0.65191189  0.27126486
   0.29775191  0.13850619  0.27134558
   0.08825555  0.59061266  0.95237917
   0.08812900  0.19988318  0.95238625
   0.46489502  0.39535525  0.19596714
   0.61423051  0.66964894  0.10344469
   0.13777970  0.39522021  0.39612302
   0.31270921  0.10346469  0.59848258
   0.68708827  0.17845368  0.43840369
   0.52128080  0.89520966  0.36284815
   0.61381139  0.12072347  0.10296159
   0.04577601  0.89545332  0.33347652
   0.31217982  0.68700332  0.59843115
   0.68676745  0.61177998  0.43894978
   0.26356066  0.89536304  0.07501406
unknown system                          
           1
     4.302912   -0.286770   -0.723718
     0.349183    6.593950   -0.541979
    -0.067901    0.475857    5.739774
   Sr   Nb   H 
   2   2  13
Direct configuration=    17
   0.55639367  0.39528980  0.80687025
   0.88056301  0.89530535  0.72459133
   0.29598093  0.65131706  0.27044653
   0.29613125  0.13909384  0.27080618
   0.08747663  0.59053114  0.95241051
   0.08737113  0.19997595  0.95238548
   0.46511789  0.39533998  0.19602799
   0.61276063  0.66983611  0.10356079
   0.13757825  0.39521311  0.39498820
   0.31408125  0.10326024  0.59862579
   0.68726266  0.17891092  0.43954657
   0.52193025  0.89524457  0.36351802
   0.61242710  0.12055994  0.10309289
   0.04643012  0.89542538  0.33297842
   0.31356388  0.68719420  0.59864563
   0.68698662  0.61133567  0.44007990
   0.26435574  0.89534672  0.07501851
unknown system                          
           1
     4.303317   -0.287707   -0.736565
     0.348625    6.579969   -0.541030
    -0.087229    0.475692    5.727467
   Sr   Nb   H 
   2   2  13
Direct configuration=    18
   0.55581680  0.39529113  0.80761145
   0.88430448  0.89530562  0.72276364
   0.29629056  0.65110944  0.27046478
   0.29644401  0.13933147  0.27080912
   0.08626790  0.59039089  0.95223632
   0.08619580  0.20012307  0.95221416
   0.46498413  0.39531133  0.19635660
   0.61052310  0.67003885  0.10384822
   0.13715746  0.39521227  0.39352282
   0.31559435  0.10302397  0.59856133
   0.68681277  0.17952217  0.44072790
   0.52177268  0.89526687  0.36389300
   0.61024022  0.12038126  0.10343247
   0.04701839  0.89539326  0.33215031
   0.31508197  0.68741120  0.59859148
   0.68653558  0.61074345  0.44120587
   0.26537083  0.89532375  0.07520352
unknown system                          
           1
     4.304531   -0.290520   -0.775107
     0.346952    6.538025   -0.538181
    -0.145214    0.475198    5.690547
   Sr   Nb   H 
   2   2  13
Direct configuration=    19
   0.55409636  0.39529522  0.80983725
   0.89550342  0.89530605  0.71729066
   0.29721968  0.65048523  0.27052175
   0.29738224  0.14004583  0.27082006
   0.08263952  0.58996932  0.95170421
   0.08266764  0.20056544  0.95169094
   0.46458737  0.39522522  0.19734423
   0.60381473  0.67064851  0.10469789
   0.13587517  0.39520968  0.38911182
   0.32013258  0.10231353  0.59837755
   0.68547919  0.18135991  0.44427861
   0.52130508  0.89533395  0.36501995
   0.60368453  0.11984425  0.10443931
   0.04877184  0.89529661  0.32966312
   0.31963524  0.68806348  0.59843881
   0.68519793  0.60896314  0.44458995
   0.26841846  0.89525465  0.07576689
unknown system                          
           1
     4.309843   -0.292606   -0.797152
     0.346428    6.528361   -0.537558
    -0.171980    0.477668    5.705102
   Sr   Nb   H 
   2   2  13
Direct configuration=    20
   0.55425738  0.39529538  0.81110045
   0.90166563  0.89530117  0.71427659
   0.29770093  0.65113272  0.27148991
   0.29778751  0.13945202  0.27139924
   0.07998882  0.58954633  0.95044937
   0.08007667  0.20099272  0.95049122
   0.46430450  0.39517681  0.19821611
   0.60104336  0.67097306  0.10504187
   0.13455017  0.39522542  0.38692369
   0.32257346  0.10186238  0.59870250
   0.68520694  0.18263362  0.44632976
   0.52039055  0.89533077  0.36525375
   0.60093383  0.11954918  0.10489899
   0.04896132  0.89525841  0.32774387
   0.32208019  0.68849709  0.59868114
   0.68487905  0.60772911  0.44651842
   0.27001069  0.89522381  0.07607611
unknown system                          
           1
     4.322398   -0.297536   -0.849258
     0.345190    6.505519   -0.536086
    -0.235242    0.483506    5.739506
   Sr   Nb   H 
   2   2  13
Direct configuration=    21
   0.55465589  0.39529584  0.81408252
   0.91617106  0.89528948  0.70721864
   0.29885124  0.65266543  0.27377866
   0.29875277  0.13804643  0.27276940
   0.07371221  0.58854503  0.94746514
   0.07394188  0.20200410  0.94763765
   0.46364929  0.39506227  0.20027092
   0.59450506  0.67174132  0.10582924
   0.13139003  0.39526257  0.38174894
   0.32834117  0.10079446  0.59949064
   0.68459392  0.18564871  0.45116737
   0.51823470  0.89532324  0.36579742
   0.59444599  0.11885077  0.10595949
   0.04938081  0.89516790  0.32321686
   0.32785634  0.68952350  0.59927445
   0.68415416  0.60480813  0.45106593
   0.27377448  0.89515082  0.07681971
unknown system                          
           1
     4.330619   -0.299379   -0.865936
     0.345200    6.506919   -0.536278
    -0.254045    0.486040    5.758954
   Sr   Nb   H 
   2   2  13
Direct configuration=    22
   0.55509095  0.39529706  0.81525350
   0.92045427  0.89528826  0.70521881
   0.29829218  0.65222580  0.27326539
   0.29822126  0.13846716  0.27243892
   0.07196252  0.58834946  0.94679170
   0.07220489  0.20221395  0.94694630
   0.46331049  0.39505107  0.20096804
   0.59287390  0.67198113  0.10628379
   0.13029092  0.39527351  0.38030142
   0.33014239  0.10042703  0.59978762
   0.68469555  0.18658854  0.45263936
   0.51811563  0.89532723  0.36626123
   0.59289779  0.11862493  0.10642621
   0.04911259  0.89514355  0.32171126
   0.32968434  0.68990010  0.59960704
   0.68430906  0.60389145  0.45251812
   0.27475229  0.89512977  0.07717429
unknown system                          
           1
     4.355281   -0.304905   -0.915969
     0.345232    6.511117   -0.536857
    -0.310456    0.493641    5.817297
   Sr   Nb   H 
   2   2  13
Direct configuration=    23
   0.55640852  0.39530076  0.81876021
   0.93325641  0.89528463  0.69926965
   0.29661144  0.65090718  0.27172538
   0.29662540  0.13972904  0.27144600
   0.06671416  0.58776282  0.94476310
   0.06699433  0.20284331  0.94486423
   0.46230458  0.39501750  0.20305097
   0.58799466  0.67270041  0.10763079
   0.12698118  0.39530628  0.37596210
   0.33554033  0.09932500  0.60069035
   0.68501842  0.18940746  0.45704406
   0.51776486  0.89533922  0.36764789
   0.58826715  0.11794754  0.10781029
   0.04829046  0.89507048  0.31720473
   0.33516295  0.69102967  0.60061653
   0.68479111  0.60114202  0.45686390
   0.27768504  0.89506667  0.07824283
unknown system                          
           1
     4.358631   -0.305486   -0.920054
     0.345414    6.516042   -0.537163
    -0.315552    0.494247    5.820256
   Sr   Nb   H 
   2   2  13
Direct configuration=    24
   0.55668424  0.39529846  0.81927586
   0.93350643  0.89528479  0.69912687
   0.29686508  0.65046125  0.27130495
   0.29692626  0.14013349  0.27121168
   0.06696332  0.58803761  0.94527315
   0.06722393  0.20257085  0.94534625
   0.46198650  0.39504569  0.20300774
   0.58801367  0.67257459  0.10822575
   0.12674012  0.39530165  0.37579598
   0.33569808  0.09940966  0.60004822
   0.68463533  0.18946953  0.45676348
   0.51805663  0.89533362  0.36796944
   0.58830830  0.11806376  0.10837608
   0.04774290  0.89507922  0.31667557
   0.33534699  0.69096231  0.60001203
   0.68446373  0.60107814  0.45662019
   0.27724949  0.89507538  0.07855973
unknown system                          
           1
     4.368678   -0.307228   -0.932310
     0.345958    6.530816   -0.538081
    -0.330842    0.496063    5.829132
   Sr   Nb   H 
   2   2  13
Direct configuration=    25
   0.55751257  0.39529156  0.82082281
   0.93425544  0.89528530  0.69869911
   0.29762399  0.64912448  0.27004455
   0.29782741  0.14134595  0.27050948
   0.06771202  0.58886134  0.94680323
   0.06791386  0.20175408  0.94679224
   0.46103282  0.39513019  0.20287753
   0.58807269  0.67219739  0.11001009
   0.12601690  0.39528776  0.37529738
   0.33616878  0.09966346  0.59812276
   0.68348594  0.18965557  0.45592134
   0.51893242  0.89531682  0.36893431
   0.58843360  0.11841214  0.11007299
   0.04609960  0.89510540  0.31508764
   0.33589664  0.69076042  0.59819944
   0.68348146  0.60088664  0.45588874
   0.27594486  0.89510150  0.07950937
unknown system                          
           1
     4.376634   -0.308198   -0.937292
     0.345827    6.531529   -0.537965
    -0.336764    0.497069    5.835540
   Sr   Nb   H 
   2   2  13
Direct configuration=    26
   0.55788484  0.39528509  0.82124428
   0.93455523  0.89528156  0.69842561
   0.29705788  0.65036082  0.27096010
   0.29712935  0.14016696  0.27092742
   0.06784872  0.58911475  0.94694335
   0.06807356  0.20147781  0.94699688
   0.46090663  0.39512947  0.20264341
   0.58857260  0.67190764  0.11051917
   0.12598065  0.39528057  0.37492296
   0.33638467  0.09991882  0.59739114
   0.68360226  0.18980088  0.45579031
   0.51864665  0.89528357  0.36895725
   0.58884542  0.11868860  0.11064677
   0.04591726  0.89512379  0.31431612
   0.33611633  0.69049998  0.59737606
   0.68352122  0.60074249  0.45570052
   0.27536773  0.89511721  0.07983165
unknown system                          
           1
     4.379697   -0.308571   -0.939210
     0.345776    6.531804   -0.537920
    -0.339043    0.497457    5.838007
   Sr   Nb   H 
   2   2  13
Direct configuration=    27
   0.55802812  0.39528260  0.82140648
   0.93467030  0.89528012  0.69832047
   0.29684078  0.65083674  0.27131213
   0.29686127  0.13971309  0.27108804
   0.06790132  0.58921230  0.94699728
   0.06813503  0.20137147  0.94707563
   0.46085802  0.39512920  0.20255332
   0.58876497  0.67179610  0.11071509
   0.12596653  0.39527781  0.37477893
   0.33646729  0.10001713  0.59710977
   0.68364690  0.18985682  0.45573993
   0.51853684  0.89527076  0.36896602
   0.58900398  0.11879502  0.11086757
   0.04584681  0.89513087  0.31401932
   0.33620035  0.69039973  0.59705940
   0.68353641  0.60068700  0.45562813
   0.27514610  0.89512325  0.07995550
unknown system                          
           1
     4.386807   -0.309515   -0.944102
     0.345394    6.528336   -0.537419
    -0.344431    0.498602    5.845981
   Sr   Nb   H 
   2   2  13
Direct configuration=    28
   0.55854363  0.39527525  0.82219511
   0.93535908  0.89527781  0.69788295
   0.29726542  0.65084046  0.27113315
   0.29730616  0.13971793  0.27091104
   0.06805529  0.58971500  0.94740333
   0.06828001  0.20085359  0.94748441
   0.46005504  0.39515048  0.20239327
   0.58891388  0.67140913  0.11192966
   0.12589473  0.39526152  0.37419404
   0.33673675  0.10032781  0.59627456
   0.68334491  0.18998723  0.45547583
   0.51828637  0.89525047  0.36926294
   0.58911544  0.11916223  0.11208556
   0.04536524  0.89515388  0.31292341
   0.33650703  0.69010019  0.59621513
   0.68324307  0.60055107  0.45537270
   0.27413895  0.89514596  0.08045591
unknown system                          
           1
     4.408137   -0.312345   -0.958776
     0.344249    6.517931   -0.535915
    -0.360592    0.502039    5.869900
   Sr   Nb   H 
   2   2  13
Direct configuration=    29
   0.56009042  0.39525318  0.82455912
   0.93742066  0.89527098  0.69657317
   0.29853672  0.65085168  0.27059759
   0.29863813  0.13973251  0.27038147
   0.06851793  0.59122387  0.94862026
   0.06871558  0.19929910  0.94870957
   0.45764936  0.39521429  0.20191225
   0.58936398  0.67024750  0.11556933
   0.12567766  0.39521269  0.37244134
   0.33754106  0.10126043  0.59377233
   0.68243952  0.19037865  0.45468395
   0.51753715  0.89518950  0.37015224
   0.58945350  0.12026434  0.11573538
   0.04391909  0.89522303  0.30963871
   0.33742270  0.68920119  0.59368586
   0.68236355  0.60014304  0.45460682
   0.27112400  0.89521400  0.08195362
unknown system                          
           1
     4.412329   -0.312751   -0.963489
     0.344263    6.512747   -0.535539
    -0.365774    0.502792    5.876479
   Sr   Nb   H 
   2   2  13
Direct configuration=    30
   0.56057493  0.39525034  0.82497029
   0.93880623  0.89527404  0.69552975
   0.29736657  0.64947961  0.27075988
   0.29740195  0.14094748  0.27102123
   0.06828526  0.59151140  0.94844240
   0.06844550  0.19903147  0.94845757
   0.45703272  0.39525843  0.20159058
   0.58975129  0.67013497  0.11616174
   0.12582560  0.39520673  0.37166837
   0.33784680  0.10140398  0.59388205
   0.68244663  0.19047757  0.45483412
   0.51795018  0.89523460  0.37074623
   0.58994491  0.12039103  0.11624261
   0.04393987  0.89522539  0.30909872
   0.33774944  0.68907706  0.59389832
   0.68239412  0.60005094  0.45480190
   0.27064902  0.89522497  0.08148724
unknown system                          
           1
     4.412289   -0.312747   -0.963444
     0.344263    6.512797   -0.535543
    -0.365724    0.502784    5.876415
   Sr   Nb   H 
   2   2  13
Direct configuration=    31
   0.56057027  0.39525037  0.82496634
   0.93879295  0.89527401  0.69553975
   0.29737779  0.64949279  0.27075833
   0.29741380  0.14093581  0.27101510
   0.06828750  0.59150864  0.94844411
   0.06844809  0.19903404  0.94845999
   0.45703864  0.39525801  0.20159367
   0.58974757  0.67013605  0.11615605
   0.12582419  0.39520679  0.37167578
   0.33784387  0.10140260  0.59388099
   0.68244656  0.19047662  0.45483268
   0.51794621  0.89523416  0.37074054
   0.58994019  0.12038981  0.11623774
   0.04393968  0.89522536  0.30910389
   0.33774630  0.68907825  0.59389629
   0.68239382  0.60005183  0.45480003
   0.27065358  0.89522486  0.08149172
