unknown system                          
           1
     3.696093    0.113075   -0.329680
    -0.037623    6.081221    0.388698
    -2.360622   -0.080634    6.580835
   H    Sr   H    Nb   H    Nb
   2   1   8   1   6   1
Direct configuration=     1
   0.01897716  0.17902419  0.79956830
   0.46705910  0.80476535  0.93163395
   0.71742476  0.85148481  0.64719526
   0.63164823  0.22451833  0.49447129
   0.18091120  0.47941577  0.86183186
   0.16559537  0.63985052  0.57849625
   0.47906020  0.15429731  0.80256609
   0.58291873  0.55859088  0.35770345
   0.52594273  0.25925007  0.23957492
   0.39281959  0.25079943  0.11547923
   0.06111872  0.67064414  0.07915171
   0.59898462  0.55817531  0.11014056
   0.67935907  0.30250248  0.93452943
   0.88360548  0.33177910  0.05421154
   0.04300312  0.40507938  0.31490316
   0.69455127  0.46087382  0.65476161
   0.71900261  0.81358295  0.23883874
   0.10296398  0.07444128  0.49579214
   0.11556606  0.34364088  0.61276550
unknown system                          
           1
     3.697391    0.114044   -0.330114
    -0.036054    6.084145    0.390089
    -2.362120   -0.079891    6.582485
   H    Sr   H    Nb   H    Nb
   2   1   8   1   6   1
Direct configuration=     2
   0.01899078  0.17879207  0.79966778
   0.46713935  0.80486981  0.93165103
   0.71732908  0.85147216  0.64708375
   0.63182895  0.22451978  0.49440502
   0.18102802  0.47939324  0.86179572
   0.16555429  0.63969905  0.57847826
   0.47926266  0.15407908  0.80262560
   0.58285267  0.55866670  0.35772577
   0.52586005  0.25924001  0.23970003
   0.39268996  0.25079753  0.11544415
   0.06120730  0.67064830  0.07912595
   0.59911196  0.55809079  0.11034676
   0.67919130  0.30253916  0.93459500
   0.88326374  0.33177944  0.05417712
   0.04287265  0.40516784  0.31491983
   0.69465446  0.46070703  0.65475490
   0.71912329  0.81350796  0.23886307
   0.10316544  0.07449097  0.49572720
   0.11538606  0.34425507  0.61252806
unknown system                          
           1
     3.697174    0.113881   -0.330041
    -0.036317    6.083656    0.389856
    -2.361869   -0.080015    6.582209
   H    Sr   H    Nb   H    Nb
   2   1   8   1   6   1
Direct configuration=     3
   0.01898847  0.17883090  0.79965113
   0.46712593  0.80485234  0.93164818
   0.71734509  0.85147427  0.64710240
   0.63179872  0.22451954  0.49441610
   0.18100848  0.47939701  0.86180176
   0.16556115  0.63972438  0.57848127
   0.47922877  0.15411559  0.80261563
   0.58286373  0.55865402  0.35772204
   0.52587387  0.25924170  0.23967910
   0.39271164  0.25079784  0.11545002
   0.06119248  0.67064761  0.07913026
   0.59909064  0.55810493  0.11031225
   0.67921936  0.30253302  0.93458403
   0.88332091  0.33177938  0.05418288
   0.04289448  0.40515304  0.31491705
   0.69463718  0.46073493  0.65475601
   0.71910309  0.81352050  0.23885899
   0.10313175  0.07448266  0.49573806
   0.11541624  0.34415234  0.61256781
