       N       E                     dE             d eps       ncg     rms          rms(c)
DAV:   1     0.112776308279E+03    0.11278E+03   -0.11743E+04 13768   0.663E+02
DAV:   2    -0.549338180839E+02   -0.16771E+03   -0.16277E+03 15900   0.254E+02
DAV:   3    -0.653244018576E+02   -0.10391E+02   -0.10337E+02 20600   0.510E+01
DAV:   4    -0.657601635686E+02   -0.43576E+00   -0.43457E+00 20448   0.885E+00
DAV:   5    -0.657677157986E+02   -0.75522E-02   -0.74764E-02 19328   0.918E-01    0.396E+01
DAV:   6    -0.630490139182E+02    0.27187E+01   -0.39737E+00 18776   0.133E+01    0.178E+01
DAV:   7    -0.621262038585E+02    0.92281E+00   -0.17575E+00 18080   0.616E+00    0.667E+00
DAV:   8    -0.621032262707E+02    0.22978E-01   -0.35042E-01 18580   0.328E+00    0.209E+00
DAV:   9    -0.621091700979E+02   -0.59438E-02   -0.20388E-02 16136   0.828E-01    0.946E-01
DAV:  10    -0.621137581908E+02   -0.45881E-02   -0.10084E-02 17952   0.556E-01    0.165E-01
DAV:  11    -0.621145075289E+02   -0.74934E-03   -0.12773E-03 16336   0.232E-01    0.713E-02
DAV:  12    -0.621147628205E+02   -0.25529E-03   -0.33487E-04 14572   0.985E-02    0.417E-02
DAV:  13    -0.621147769146E+02   -0.14094E-04   -0.29647E-05 10460   0.387E-02
   1 F= -.62114777E+02 E0= -.62114814E+02  d E =-.621148E+02
       N       E                     dE             d eps       ncg     rms          rms(c)
DAV:   1    -0.621300971953E+02   -0.15334E-01   -0.39262E+00 12968   0.130E+01    0.124E+00
DAV:   2    -0.621467750468E+02   -0.16678E-01   -0.32586E-01 17280   0.337E+00    0.658E-01
DAV:   3    -0.621433491933E+02    0.34259E-02   -0.97864E-03 17736   0.630E-01    0.363E-01
DAV:   4    -0.621425596404E+02    0.78955E-03   -0.55919E-03 16888   0.439E-01    0.195E-01
DAV:   5    -0.621426963776E+02   -0.13674E-03   -0.12739E-03 16308   0.194E-01    0.946E-02
DAV:   6    -0.621427135866E+02   -0.17209E-04   -0.81089E-05 10028   0.516E-02
   2 F= -.62142714E+02 E0= -.62142748E+02  d E =-.279367E-01
       N       E                     dE             d eps       ncg     rms          rms(c)
DAV:   1    -0.621584005819E+02   -0.15704E-01   -0.61660E-01 12992   0.516E+00    0.523E-01
DAV:   2    -0.621613434264E+02   -0.29428E-02   -0.53312E-02 17160   0.136E+00    0.258E-01
DAV:   3    -0.621608626238E+02    0.48080E-03   -0.14521E-03 17616   0.246E-01    0.140E-01
DAV:   4    -0.621606598155E+02    0.20281E-03   -0.88384E-04 17280   0.176E-01    0.764E-02
DAV:   5    -0.621607516885E+02   -0.91873E-04   -0.19858E-04 12632   0.772E-02
   3 F= -.62160752E+02 E0= -.62160752E+02  d E =-.459748E-01
       N       E                     dE             d eps       ncg     rms          rms(c)
DAV:   1    -0.621835091591E+02   -0.22849E-01   -0.94165E-01 12664   0.652E+00    0.474E-01
DAV:   2    -0.621863389541E+02   -0.28298E-02   -0.63204E-02 16520   0.147E+00    0.279E-01
DAV:   3    -0.621855712397E+02    0.76771E-03   -0.18101E-03 16896   0.275E-01    0.153E-01
DAV:   4    -0.621853761271E+02    0.19511E-03   -0.76432E-04 16768   0.180E-01    0.485E-02
DAV:   5    -0.621853864704E+02   -0.10343E-04   -0.10785E-04  9748   0.640E-02
   4 F= -.62185386E+02 E0= -.62185420E+02  d E =-.246348E-01
       N       E                     dE             d eps       ncg     rms          rms(c)
DAV:   1    -0.621871041136E+02   -0.17280E-02   -0.14848E-01 12720   0.259E+00    0.189E-01
DAV:   2    -0.621875743790E+02   -0.47027E-03   -0.10162E-02 16480   0.586E-01    0.113E-01
DAV:   3    -0.621874508832E+02    0.12350E-03   -0.27199E-04 14936   0.109E-01    0.630E-02
DAV:   4    -0.621874207020E+02    0.30181E-04   -0.13514E-04 10224   0.806E-02
   5 F= -.62187421E+02 E0= -.62187454E+02  d E =-.266690E-01
       N       E                     dE             d eps       ncg     rms          rms(c)
DAV:   1    -0.622047180421E+02   -0.17267E-01   -0.34198E-01 12664   0.377E+00    0.311E-01
DAV:   2    -0.622046441561E+02    0.73886E-04   -0.17540E-02 16784   0.802E-01    0.178E-01
DAV:   3    -0.622041927843E+02    0.45137E-03   -0.93424E-04 16832   0.195E-01    0.814E-02
DAV:   4    -0.622041461234E+02    0.46661E-04   -0.33363E-04 15076   0.112E-01
   6 F= -.62204146E+02 E0= -.62204179E+02  d E =-.167254E-01
       N       E                     dE             d eps       ncg     rms          rms(c)
DAV:   1    -0.622380266136E+02   -0.33834E-01   -0.30737E+00 12656   0.113E+01    0.943E-01
DAV:   2    -0.622372101527E+02    0.81646E-03   -0.15802E-01 16768   0.242E+00    0.539E-01
DAV:   3    -0.622332332946E+02    0.39769E-02   -0.82328E-03 16868   0.585E-01    0.244E-01
DAV:   4    -0.622327160810E+02    0.51721E-03   -0.29581E-03 17396   0.334E-01    0.111E-01
DAV:   5    -0.622327500747E+02   -0.33994E-04   -0.33589E-04 13660   0.107E-01
   7 F= -.62232750E+02 E0= -.62232783E+02  d E =-.453294E-01
       N       E                     dE             d eps       ncg     rms          rms(c)
DAV:   1    -0.622357895884E+02   -0.30735E-02   -0.46312E-01 12672   0.438E+00    0.366E-01
DAV:   2    -0.622357082298E+02    0.81359E-04   -0.23831E-02 16736   0.937E-01    0.208E-01
DAV:   3    -0.622351042373E+02    0.60399E-03   -0.12700E-03 16880   0.227E-01    0.929E-02
DAV:   4    -0.622350466924E+02    0.57545E-04   -0.44066E-04 15872   0.127E-01
   8 F= -.62235047E+02 E0= -.62235079E+02  d E =-.476260E-01
       N       E                     dE             d eps       ncg     rms          rms(c)
DAV:   1    -0.622594622233E+02   -0.24358E-01   -0.10757E+00 12656   0.634E+00    0.513E-01
DAV:   2    -0.622594822281E+02   -0.20005E-04   -0.48090E-02 17496   0.139E+00    0.281E-01
DAV:   3    -0.622581722095E+02    0.13100E-02   -0.26687E-03 16836   0.323E-01    0.127E-01
DAV:   4    -0.622580968983E+02    0.75311E-04   -0.90221E-04 17064   0.169E-01
   9 F= -.62258097E+02 E0= -.62258131E+02  d E =-.230502E-01
       N       E                     dE             d eps       ncg     rms          rms(c)
DAV:   1    -0.622729002988E+02   -0.14728E-01   -0.21728E+00 12656   0.901E+00    0.731E-01
DAV:   2    -0.622730662308E+02   -0.16593E-03   -0.97987E-02 17520   0.198E+00    0.404E-01
DAV:   3    -0.622704234925E+02    0.26427E-02   -0.53074E-03 16812   0.457E-01    0.183E-01
DAV:   4    -0.622702603646E+02    0.16313E-03   -0.18338E-03 17120   0.242E-01    0.737E-02
DAV:   5    -0.622702740891E+02   -0.13724E-04   -0.15115E-04 10812   0.760E-02
  10 F= -.62270274E+02 E0= -.62270311E+02  d E =-.352274E-01
       N       E                     dE             d eps       ncg     rms          rms(c)
DAV:   1    -0.622894339032E+02   -0.19174E-01   -0.81149E-01 12656   0.594E+00    0.418E-01
DAV:   2    -0.622912954383E+02   -0.18615E-02   -0.47108E-02 14880   0.131E+00    0.226E-01
DAV:   3    -0.622907573870E+02    0.53805E-03   -0.13556E-03 17824   0.229E-01    0.119E-01
DAV:   4    -0.622906540178E+02    0.10337E-03   -0.45950E-04 15824   0.141E-01    0.308E-02
DAV:   5    -0.622906611521E+02   -0.71343E-05   -0.55780E-05  8792   0.474E-02
  11 F= -.62290661E+02 E0= -.62290693E+02  d E =-.203871E-01
       N       E                     dE             d eps       ncg     rms          rms(c)
DAV:   1    -0.623179017526E+02   -0.27248E-01   -0.73181E+00 12656   0.178E+01    0.126E+00
DAV:   2    -0.623349793993E+02   -0.17078E-01   -0.42550E-01 14952   0.392E+00    0.682E-01
DAV:   3    -0.623300393293E+02    0.49401E-02   -0.11908E-02 17848   0.678E-01    0.358E-01
DAV:   4    -0.623290571110E+02    0.98222E-03   -0.41448E-03 16688   0.427E-01    0.904E-02
DAV:   5    -0.623291248258E+02   -0.67715E-04   -0.56749E-04 14460   0.144E-01
  12 F= -.62329125E+02 E0= -.62329132E+02  d E =-.588507E-01
       N       E                     dE             d eps       ncg     rms          rms(c)
DAV:   1    -0.622521247884E+02    0.76932E-01   -0.29276E+01 12656   0.356E+01    0.261E+00
DAV:   2    -0.623216788200E+02   -0.69554E-01   -0.17214E+00 15040   0.790E+00    0.138E+00
DAV:   3    -0.623012824625E+02    0.20396E-01   -0.48814E-02 18148   0.136E+00    0.724E-01
DAV:   4    -0.622971855837E+02    0.40969E-02   -0.16883E-02 16656   0.836E-01    0.182E-01
DAV:   5    -0.622974586350E+02   -0.27305E-03   -0.22503E-03 15008   0.288E-01    0.945E-02
DAV:   6    -0.622974828071E+02   -0.24172E-04   -0.14208E-04 11048   0.826E-02
  13 F= -.62297483E+02 E0= -.62297594E+02  d E =-.272087E-01
       N       E                     dE             d eps       ncg     rms          rms(c)
DAV:   1    -0.623146708912E+02   -0.17212E-01   -0.15048E+01 12856   0.255E+01    0.185E+00
DAV:   2    -0.623468906748E+02   -0.32220E-01   -0.86017E-01 15112   0.566E+00    0.988E-01
DAV:   3    -0.623363187485E+02    0.10572E-01   -0.25405E-02 17712   0.100E+00    0.531E-01
DAV:   4    -0.623344176877E+02    0.19011E-02   -0.91134E-03 16728   0.619E-01    0.132E-01
DAV:   5    -0.623345533980E+02   -0.13571E-03   -0.12659E-03 15628   0.220E-01    0.676E-02
DAV:   6    -0.623345646798E+02   -0.11282E-04   -0.78583E-05  9048   0.635E-02
  14 F= -.62334565E+02 E0= -.62334557E+02  d E =-.642906E-01
       N       E                     dE             d eps       ncg     rms          rms(c)
DAV:   1    -0.623485394003E+02   -0.13986E-01   -0.17202E+00 12656   0.863E+00    0.531E-01
DAV:   2    -0.623543620250E+02   -0.58226E-02   -0.90859E-02 15824   0.185E+00    0.284E-01
DAV:   3    -0.623540084984E+02    0.35353E-03   -0.18262E-03 17184   0.262E-01    0.166E-01
DAV:   4    -0.623538854385E+02    0.12306E-03   -0.63752E-04 16432   0.174E-01    0.441E-02
DAV:   5    -0.623538990442E+02   -0.13606E-04   -0.12885E-04 12508   0.660E-02
  15 F= -.62353899E+02 E0= -.62353907E+02  d E =-.193344E-01
       N       E                     dE             d eps       ncg     rms          rms(c)
DAV:   1    -0.623548001559E+02   -0.91472E-03   -0.26412E-01 12664   0.339E+00    0.210E-01
DAV:   2    -0.623557290656E+02   -0.92891E-03   -0.14140E-02 15880   0.728E-01    0.113E-01
DAV:   3    -0.623556744022E+02    0.54663E-04   -0.26979E-04 15056   0.102E-01
  16 F= -.62355674E+02 E0= -.62355693E+02  d E =-.211097E-01
       N       E                     dE             d eps       ncg     rms          rms(c)
DAV:   1    -0.623758354255E+02   -0.20106E-01   -0.17048E+00 12656   0.795E+00    0.526E-01
DAV:   2    -0.623794578439E+02   -0.36224E-02   -0.59976E-02 16144   0.162E+00    0.275E-01
DAV:   3    -0.623791185973E+02    0.33925E-03   -0.16689E-03 19768   0.224E-01    0.138E-01
DAV:   4    -0.623790606795E+02    0.57918E-04   -0.43073E-04 15832   0.125E-01
  17 F= -.62379061E+02 E0= -.62379123E+02  d E =-.233863E-01
       N       E                     dE             d eps       ncg     rms          rms(c)
DAV:   1    -0.623850173253E+02   -0.58987E-02   -0.50451E+00 12656   0.137E+01    0.895E-01
DAV:   2    -0.623959664128E+02   -0.10949E-01   -0.17896E-01 16056   0.280E+00    0.457E-01
DAV:   3    -0.623949265307E+02    0.10399E-02   -0.47945E-03 19504   0.384E-01    0.234E-01
DAV:   4    -0.623947493479E+02    0.17718E-03   -0.13376E-03 16736   0.221E-01    0.492E-02
DAV:   5    -0.623947628346E+02   -0.13487E-04   -0.14096E-04 10372   0.802E-02
  18 F= -.62394763E+02 E0= -.62394924E+02  d E =-.390884E-01
       N       E                     dE             d eps       ncg     rms          rms(c)
DAV:   1    -0.624097693523E+02   -0.15020E-01   -0.10851E+00 12656   0.643E+00    0.412E-01
DAV:   2    -0.624122759301E+02   -0.25066E-02   -0.41822E-02 16096   0.133E+00    0.220E-01
DAV:   3    -0.624120165560E+02    0.25937E-03   -0.11032E-03 18996   0.189E-01    0.115E-01
DAV:   4    -0.624119682739E+02    0.48282E-04   -0.35873E-04 15120   0.113E-01
  19 F= -.62411968E+02 E0= -.62412171E+02  d E =-.172054E-01
       N       E                     dE             d eps       ncg     rms          rms(c)
DAV:   1    -0.624151780307E+02   -0.31615E-02   -0.82573E+00 12656   0.177E+01    0.115E+00
DAV:   2    -0.624347077690E+02   -0.19530E-01   -0.32256E-01 16136   0.370E+00    0.598E-01
DAV:   3    -0.624327611717E+02    0.19466E-02   -0.83122E-03 19128   0.520E-01    0.313E-01
DAV:   4    -0.624323801810E+02    0.38099E-03   -0.26967E-03 16440   0.311E-01    0.606E-02
DAV:   5    -0.624324175280E+02   -0.37347E-04   -0.42728E-04 14348   0.120E-01
  20 F= -.62432418E+02 E0= -.62432684E+02  d E =-.376547E-01
       N       E                     dE             d eps       ncg     rms          rms(c)
DAV:   1    -0.624406068755E+02   -0.82267E-02   -0.50113E-01 12680   0.464E+00    0.297E-01
DAV:   2    -0.624420993948E+02   -0.14925E-02   -0.25252E-02 16172   0.100E+00    0.183E-01
DAV:   3    -0.624419395021E+02    0.15989E-03   -0.64238E-04 17012   0.156E-01    0.104E-01
DAV:   4    -0.624418844600E+02    0.55042E-04   -0.28244E-04 14848   0.114E-01
  21 F= -.62441884E+02 E0= -.62442141E+02  d E =-.946693E-02
       N       E                     dE             d eps       ncg     rms          rms(c)
DAV:   1    -0.624440425811E+02   -0.21031E-02   -0.14352E+00 12656   0.785E+00    0.508E-01
DAV:   2    -0.624482481752E+02   -0.42056E-02   -0.72019E-02 16140   0.169E+00    0.310E-01
DAV:   3    -0.624477888879E+02    0.45929E-03   -0.18534E-03 18264   0.262E-01    0.179E-01
DAV:   4    -0.624476255710E+02    0.16332E-03   -0.79488E-04 16736   0.188E-01    0.488E-02
DAV:   5    -0.624476464405E+02   -0.20870E-04   -0.22167E-04 12528   0.838E-02
  22 F= -.62447646E+02 E0= -.62447887E+02  d E =-.152289E-01
       N       E                     dE             d eps       ncg     rms          rms(c)
DAV:   1    -0.624551372762E+02   -0.75117E-02   -0.29424E-01 12668   0.322E+00    0.223E-01
DAV:   2    -0.624554407602E+02   -0.30348E-03   -0.80555E-03 16360   0.603E-01    0.128E-01
DAV:   3    -0.624553492117E+02    0.91549E-04   -0.24785E-04 13432   0.955E-02
  23 F= -.62455349E+02 E0= -.62455591E+02  d E =-.770277E-02
       N       E                     dE             d eps       ncg     rms          rms(c)
DAV:   1    -0.624696997836E+02   -0.14259E-01   -0.26302E+00 12656   0.962E+00    0.671E-01
DAV:   2    -0.624727250418E+02   -0.30253E-02   -0.71640E-02 16480   0.179E+00    0.380E-01
DAV:   3    -0.624719677155E+02    0.75733E-03   -0.25613E-03 19676   0.283E-01    0.204E-01
DAV:   4    -0.624717796075E+02    0.18811E-03   -0.78736E-04 16984   0.178E-01    0.419E-02
DAV:   5    -0.624717891822E+02   -0.95747E-05   -0.79911E-05  9024   0.597E-02
  24 F= -.62471789E+02 E0= -.62471789E+02  d E =-.241427E-01
       N       E                     dE             d eps       ncg     rms          rms(c)
DAV:   1    -0.624634662138E+02    0.83134E-02   -0.10528E+01 12656   0.193E+01    0.136E+00
DAV:   2    -0.624744776298E+02   -0.11011E-01   -0.29331E-01 16512   0.361E+00    0.752E-01
DAV:   3    -0.624713739071E+02    0.31037E-02   -0.99748E-03 19328   0.560E-01    0.404E-01
DAV:   4    -0.624705998400E+02    0.77407E-03   -0.31929E-03 17104   0.362E-01    0.847E-02
DAV:   5    -0.624706401735E+02   -0.40333E-04   -0.37945E-04 14420   0.122E-01
  25 F= -.62470640E+02 E0= -.62470907E+02  d E =-.229937E-01
       N       E                     dE             d eps       ncg     rms          rms(c)
DAV:   1    -0.624747295310E+02   -0.41297E-02   -0.29963E+00 12656   0.103E+01    0.724E-01
DAV:   2    -0.624778013916E+02   -0.30719E-02   -0.81984E-02 16464   0.194E+00    0.401E-01
DAV:   3    -0.624769234837E+02    0.87791E-03   -0.28319E-03 19596   0.304E-01    0.216E-01
DAV:   4    -0.624766824528E+02    0.24103E-03   -0.89842E-04 16984   0.190E-01    0.442E-02
DAV:   5    -0.624766912201E+02   -0.87673E-05   -0.89199E-05  9032   0.630E-02
  26 F= -.62476691E+02 E0= -.62476948E+02  d E =-.290448E-01
       N       E                     dE             d eps       ncg     rms          rms(c)
DAV:   1    -0.624841274302E+02   -0.74450E-02   -0.38064E-01 12664   0.401E+00    0.337E-01
DAV:   2    -0.624852236106E+02   -0.10962E-02   -0.19651E-02 15984   0.852E-01    0.164E-01
DAV:   3    -0.624850492642E+02    0.17435E-03   -0.55537E-04 17400   0.145E-01    0.840E-02
DAV:   4    -0.624850107048E+02    0.38559E-04   -0.14812E-04 10060   0.859E-02
  27 F= -.62485011E+02 E0= -.62485286E+02  d E =-.831948E-02
       N       E                     dE             d eps       ncg     rms          rms(c)
DAV:   1    -0.624875385845E+02   -0.24893E-02   -0.83774E-01 12664   0.597E+00    0.498E-01
DAV:   2    -0.624899358612E+02   -0.23973E-02   -0.43150E-02 15984   0.126E+00    0.242E-01
DAV:   3    -0.624895612793E+02    0.37458E-03   -0.12593E-03 18428   0.216E-01    0.127E-01
DAV:   4    -0.624894962346E+02    0.65045E-04   -0.42810E-04 17920   0.127E-01
  28 F= -.62489496E+02 E0= -.62489799E+02  d E =-.128050E-01
       N       E                     dE             d eps       ncg     rms          rms(c)
DAV:   1    -0.624963934219E+02   -0.68321E-02   -0.21842E-01 12664   0.274E+00    0.228E-01
DAV:   2    -0.624965612900E+02   -0.16787E-03   -0.57220E-03 16640   0.501E-01    0.119E-01
DAV:   3    -0.624964689191E+02    0.92371E-04   -0.21050E-04 12128   0.918E-02
  29 F= -.62496469E+02 E0= -.62496773E+02  d E =-.697268E-02
       N       E                     dE             d eps       ncg     rms          rms(c)
DAV:   1    -0.625108139251E+02   -0.14253E-01   -0.19486E+00 12656   0.820E+00    0.668E-01
DAV:   2    -0.625125151516E+02   -0.17012E-02   -0.51525E-02 16680   0.149E+00    0.348E-01
DAV:   3    -0.625117560819E+02    0.75907E-03   -0.20960E-03 18136   0.269E-01    0.161E-01
DAV:   4    -0.625116533178E+02    0.10276E-03   -0.62409E-04 18976   0.159E-01    0.649E-02
DAV:   5    -0.625116639535E+02   -0.10636E-04   -0.57121E-05  8996   0.481E-02
  30 F= -.62511664E+02 E0= -.62511966E+02  d E =-.221677E-01
       N       E                     dE             d eps       ncg     rms          rms(c)
DAV:   1    -0.625122427959E+02   -0.58948E-03   -0.77838E+00 12656   0.164E+01    0.134E+00
DAV:   2    -0.625193623848E+02   -0.71196E-02   -0.21049E-01 16744   0.303E+00    0.690E-01
DAV:   3    -0.625162338555E+02    0.31285E-02   -0.82475E-03 17808   0.537E-01    0.317E-01
DAV:   4    -0.625158085468E+02    0.42531E-03   -0.26060E-03 20032   0.324E-01    0.132E-01
DAV:   5    -0.625158477986E+02   -0.39252E-04   -0.27045E-04 13796   0.971E-02
  31 F= -.62515848E+02 E0= -.62516106E+02  d E =-.263516E-01
       N       E                     dE             d eps       ncg     rms          rms(c)
DAV:   1    -0.625179413364E+02   -0.21328E-02   -0.11556E+00 12656   0.631E+00    0.512E-01
DAV:   2    -0.625189970007E+02   -0.10557E-02   -0.30974E-02 16720   0.117E+00    0.269E-01
DAV:   3    -0.625185466392E+02    0.45036E-03   -0.12108E-03 18192   0.208E-01    0.132E-01
DAV:   4    -0.625184601398E+02    0.86499E-04   -0.38651E-04 16472   0.127E-01
  32 F= -.62518460E+02 E0= -.62518744E+02  d E =-.289639E-01
       N       E                     dE             d eps       ncg     rms          rms(c)
DAV:   1    -0.625284756640E+02   -0.99290E-02   -0.57684E-01 12656   0.440E+00    0.315E-01
DAV:   2    -0.625291808438E+02   -0.70518E-03   -0.15827E-02 17704   0.852E-01    0.172E-01
DAV:   3    -0.625289793413E+02    0.20150E-03   -0.60736E-04 17200   0.144E-01    0.847E-02
DAV:   4    -0.625289415263E+02    0.37815E-04   -0.20093E-04 14032   0.911E-02
  33 F= -.62528942E+02 E0= -.62529198E+02  d E =-.104814E-01
       N       E                     dE             d eps       ncg     rms          rms(c)
DAV:   1    -0.625382217727E+02   -0.92424E-02   -0.45920E+00 12656   0.124E+01    0.890E-01
DAV:   2    -0.625438049283E+02   -0.55832E-02   -0.12719E-01 17656   0.242E+00    0.483E-01
DAV:   3    -0.625422114953E+02    0.15934E-02   -0.48775E-03 19064   0.398E-01    0.248E-01
DAV:   4    -0.625419247788E+02    0.28672E-03   -0.15969E-03 17208   0.254E-01    0.683E-02
DAV:   5    -0.625419583278E+02   -0.33549E-04   -0.25775E-04 12900   0.919E-02
  34 F= -.62541958E+02 E0= -.62542092E+02  d E =-.234982E-01
       N       E                     dE             d eps       ncg     rms          rms(c)
DAV:   1    -0.625508650118E+02   -0.89402E-02   -0.66037E-01 12688   0.495E+00    0.360E-01
DAV:   2    -0.625520209293E+02   -0.11559E-02   -0.22015E-02 17048   0.998E-01    0.210E-01
DAV:   3    -0.625518123093E+02    0.20862E-03   -0.76878E-04 19640   0.161E-01    0.113E-01
DAV:   4    -0.625517813182E+02    0.30991E-04   -0.21189E-04 12600   0.975E-02
  35 F= -.62551781E+02 E0= -.62551893E+02  d E =-.982299E-02
       N       E                     dE             d eps       ncg     rms          rms(c)
DAV:   1    -0.625560506318E+02   -0.42383E-02   -0.22125E+00 12656   0.907E+00    0.648E-01
DAV:   2    -0.625599539762E+02   -0.39033E-02   -0.73718E-02 17112   0.183E+00    0.385E-01
DAV:   3    -0.625592840123E+02    0.66996E-03   -0.25511E-03 20432   0.291E-01    0.210E-01
DAV:   4    -0.625591854957E+02    0.98517E-04   -0.70285E-04 16888   0.175E-01
  36 F= -.62559185E+02 E0= -.62559272E+02  d E =-.172272E-01
       N       E                     dE             d eps       ncg     rms          rms(c)
DAV:   1    -0.625689560253E+02   -0.96720E-02   -0.12716E+00 12656   0.686E+00    0.451E-01
DAV:   2    -0.625713109312E+02   -0.23549E-02   -0.40271E-02 16928   0.136E+00    0.288E-01
DAV:   3    -0.625710504072E+02    0.26052E-03   -0.12472E-03 20040   0.193E-01    0.156E-01
DAV:   4    -0.625709968907E+02    0.53516E-04   -0.32499E-04 14536   0.117E-01
  37 F= -.62570997E+02 E0= -.62571064E+02  d E =-.118114E-01
       N       E                     dE             d eps       ncg     rms          rms(c)
DAV:   1    -0.625727151276E+02   -0.16647E-02   -0.25954E+00 12656   0.981E+00    0.636E-01
DAV:   2    -0.625775863278E+02   -0.48712E-02   -0.82701E-02 16944   0.196E+00    0.412E-01
DAV:   3    -0.625770689305E+02    0.51740E-03   -0.24924E-03 20024   0.272E-01    0.224E-01
DAV:   4    -0.625770411085E+02    0.27822E-04   -0.66290E-04 16920   0.167E-01
  38 F= -.62577041E+02 E0= -.62577041E+02  d E =-.178556E-01
       N       E                     dE             d eps       ncg     rms          rms(c)
DAV:   1    -0.625866019633E+02   -0.95330E-02   -0.14689E+00 12672   0.681E+00    0.598E-01
DAV:   2    -0.625880023337E+02   -0.14004E-02   -0.37788E-02 17264   0.143E+00    0.269E-01
DAV:   3    -0.625877470218E+02    0.25531E-03   -0.15900E-03 20068   0.217E-01    0.158E-01
DAV:   4    -0.625876748638E+02    0.72158E-04   -0.44255E-04 16536   0.133E-01
  39 F= -.62587675E+02 E0= -.62587675E+02  d E =-.106338E-01
       N       E                     dE             d eps       ncg     rms          rms(c)
DAV:   1    -0.625905671311E+02   -0.28201E-02   -0.22238E+00 12656   0.839E+00    0.736E-01
DAV:   2    -0.625925794533E+02   -0.20123E-02   -0.57625E-02 17224   0.177E+00    0.339E-01
DAV:   3    -0.625922073926E+02    0.37206E-03   -0.24263E-03 20032   0.266E-01    0.201E-01
DAV:   4    -0.625921059880E+02    0.10140E-03   -0.69661E-04 19240   0.164E-01    0.712E-02
DAV:   5    -0.625921238308E+02   -0.17843E-04   -0.10269E-04  9816   0.581E-02
  40 F= -.62592124E+02 E0= -.62592184E+02  d E =-.150827E-01
       N       E                     dE             d eps       ncg     rms          rms(c)
DAV:   1    -0.626025770987E+02   -0.10471E-01   -0.20756E+00 12656   0.919E+00    0.866E-01
DAV:   2    -0.626058732229E+02   -0.32961E-02   -0.88372E-02 16960   0.205E+00    0.327E-01
DAV:   3    -0.626052528859E+02    0.62034E-03   -0.33175E-03 19440   0.335E-01    0.185E-01
DAV:   4    -0.626051092265E+02    0.14366E-03   -0.94297E-04 21720   0.185E-01    0.113E-01
DAV:   5    -0.626051310382E+02   -0.21812E-04   -0.91279E-05  9832   0.570E-02
  41 F= -.62605131E+02 E0= -.62605199E+02  d E =-.130072E-01
       N       E                     dE             d eps       ncg     rms          rms(c)
DAV:   1    -0.626069490635E+02   -0.18398E-02   -0.28440E+00 12656   0.108E+01    0.102E+00
DAV:   2    -0.626113436332E+02   -0.43946E-02   -0.12200E-01 17016   0.241E+00    0.382E-01
DAV:   3    -0.626104766949E+02    0.86694E-03   -0.45958E-03 19416   0.396E-01    0.215E-01
DAV:   4    -0.626102740920E+02    0.20260E-03   -0.13414E-03 22240   0.218E-01    0.134E-01
DAV:   5    -0.626103048934E+02   -0.30801E-04   -0.13726E-04 12252   0.663E-02
  42 F= -.62610305E+02 E0= -.62610383E+02  d E =-.181811E-01
       N       E                     dE             d eps       ncg     rms          rms(c)
DAV:   1    -0.626207370951E+02   -0.10463E-01   -0.21756E+00 12656   0.929E+00    0.626E-01
DAV:   2    -0.626248819462E+02   -0.41449E-02   -0.79330E-02 16904   0.187E+00    0.328E-01
DAV:   3    -0.626240759028E+02    0.80604E-03   -0.26258E-03 18776   0.296E-01    0.167E-01
DAV:   4    -0.626239326871E+02    0.14322E-03   -0.83870E-04 17432   0.187E-01    0.629E-02
DAV:   5    -0.626239456178E+02   -0.12931E-04   -0.13247E-04 11288   0.704E-02
  43 F= -.62623946E+02 E0= -.62624035E+02  d E =-.136407E-01
       N       E                     dE             d eps       ncg     rms          rms(c)
DAV:   1    -0.626250803697E+02   -0.11477E-02   -0.38989E+00 12656   0.124E+01    0.831E-01
DAV:   2    -0.626325467725E+02   -0.74664E-02   -0.14313E-01 16896   0.252E+00    0.424E-01
DAV:   3    -0.626311143587E+02    0.14324E-02   -0.47555E-03 18708   0.400E-01    0.219E-01
DAV:   4    -0.626308510877E+02    0.26327E-03   -0.15298E-03 17744   0.253E-01    0.850E-02
DAV:   5    -0.626308736316E+02   -0.22544E-04   -0.25129E-04 12916   0.948E-02
  44 F= -.62630874E+02 E0= -.62630975E+02  d E =-.205687E-01
       N       E                     dE             d eps       ncg     rms          rms(c)
DAV:   1    -0.626379284346E+02   -0.70773E-02   -0.92722E-01 12688   0.590E+00    0.398E-01
DAV:   2    -0.626394740835E+02   -0.15456E-02   -0.31883E-02 16976   0.115E+00    0.214E-01
DAV:   3    -0.626390809868E+02    0.39310E-03   -0.11496E-03 16792   0.207E-01    0.102E-01
DAV:   4    -0.626390360710E+02    0.44916E-04   -0.37179E-04 15112   0.117E-01
  45 F= -.62639036E+02 E0= -.62639146E+02  d E =-.816244E-02
       N       E                     dE             d eps       ncg     rms          rms(c)
DAV:   1    -0.626403958131E+02   -0.13148E-02   -0.51393E-01 12688   0.439E+00    0.291E-01
DAV:   2    -0.626412859660E+02   -0.89015E-03   -0.17751E-02 17080   0.858E-01    0.160E-01
DAV:   3    -0.626410758930E+02    0.21007E-03   -0.62351E-04 16736   0.152E-01    0.771E-02
DAV:   4    -0.626410505480E+02    0.25345E-04   -0.19606E-04 12824   0.873E-02
  46 F= -.62641051E+02 E0= -.62641167E+02  d E =-.101769E-01
       N       E                     dE             d eps       ncg     rms          rms(c)
DAV:   1    -0.626474779657E+02   -0.64021E-02   -0.49220E-01 12672   0.414E+00    0.345E-01
DAV:   2    -0.626481527426E+02   -0.67478E-03   -0.15149E-02 17696   0.808E-01    0.165E-01
DAV:   3    -0.626481045829E+02    0.48160E-04   -0.52834E-04 17056   0.143E-01
  47 F= -.62648105E+02 E0= -.62648105E+02  d E =-.705403E-02
       N       E                     dE             d eps       ncg     rms          rms(c)
DAV:   1    -0.626522535883E+02   -0.41008E-02   -0.43971E+00 12656   0.124E+01    0.102E+00
DAV:   2    -0.626581950487E+02   -0.59415E-02   -0.13407E-01 17768   0.240E+00    0.512E-01
DAV:   3    -0.626563419252E+02    0.18531E-02   -0.48014E-03 18020   0.426E-01    0.260E-01
DAV:   4    -0.626561262682E+02    0.21566E-03   -0.17748E-03 17216   0.261E-01    0.968E-02
DAV:   5    -0.626561409690E+02   -0.14701E-04   -0.26906E-04 12992   0.961E-02
  48 F= -.62656141E+02 E0= -.62656266E+02  d E =-.150904E-01
       N       E                     dE             d eps       ncg     rms          rms(c)
DAV:   1    -0.626616177962E+02   -0.54915E-02   -0.56268E-01 12696   0.446E+00    0.273E-01
DAV:   2    -0.626624565221E+02   -0.83873E-03   -0.17333E-02 17456   0.880E-01    0.167E-01
DAV:   3    -0.626622639285E+02    0.19259E-03   -0.59315E-04 16496   0.146E-01    0.887E-02
DAV:   4    -0.626622281396E+02    0.35789E-04   -0.20696E-04 13104   0.938E-02
  49 F= -.62662228E+02 E0= -.62662356E+02  d E =-.608717E-02
       N       E                     dE             d eps       ncg     rms          rms(c)
DAV:   1    -0.626661378397E+02   -0.38739E-02   -0.50717E+00 12656   0.134E+01    0.820E-01
DAV:   2    -0.626737516299E+02   -0.76138E-02   -0.15677E-01 17568   0.262E+00    0.512E-01
DAV:   3    -0.626721213149E+02    0.16303E-02   -0.52736E-03 17488   0.432E-01    0.270E-01
DAV:   4    -0.626717779238E+02    0.34339E-03   -0.18265E-03 17128   0.274E-01    0.609E-02
DAV:   5    -0.626717993741E+02   -0.21450E-04   -0.27976E-04 13364   0.102E-01
  50 F= -.62671799E+02 E0= -.62671933E+02  d E =-.156584E-01
       N       E                     dE             d eps       ncg     rms          rms(c)
DAV:   1    -0.626841711826E+02   -0.12393E-01   -0.78166E-01 12664   0.503E+00    0.472E-01
DAV:   2    -0.626843505905E+02   -0.17941E-03   -0.23905E-02 17864   0.107E+00    0.213E-01
DAV:   3    -0.626839879572E+02    0.36263E-03   -0.12677E-03 18520   0.218E-01    0.126E-01
DAV:   4    -0.626839169181E+02    0.71039E-04   -0.44435E-04 17680   0.125E-01
  51 F= -.62683917E+02 E0= -.62684054E+02  d E =-.121175E-01
       N       E                     dE             d eps       ncg     rms          rms(c)
DAV:   1    -0.627032961048E+02   -0.19308E-01   -0.70654E+00 12656   0.151E+01    0.147E+00
DAV:   2    -0.627049223492E+02   -0.16262E-02   -0.22643E-01 17960   0.327E+00    0.634E-01
DAV:   3    -0.627016377201E+02    0.32846E-02   -0.11621E-02 18896   0.662E-01    0.378E-01
DAV:   4    -0.627009153087E+02    0.72241E-03   -0.42694E-03 20984   0.382E-01    0.198E-01
DAV:   5    -0.627009804895E+02   -0.65181E-04   -0.44320E-04 16788   0.115E-01
  52 F= -.62700980E+02 E0= -.62701111E+02  d E =-.291811E-01
       N       E                     dE             d eps       ncg     rms          rms(c)
DAV:   1    -0.627129615060E+02   -0.12046E-01   -0.11024E+00 12736   0.657E+00    0.520E-01
DAV:   2    -0.627150167150E+02   -0.20552E-02   -0.48928E-02 17072   0.143E+00    0.249E-01
DAV:   3    -0.627144917998E+02    0.52492E-03   -0.17242E-03 17144   0.254E-01    0.128E-01
DAV:   4    -0.627143789686E+02    0.11283E-03   -0.72791E-04 19628   0.163E-01    0.598E-02
DAV:   5    -0.627143853186E+02   -0.63500E-05   -0.74585E-05  8996   0.562E-02
  53 F= -.62714385E+02 E0= -.62714510E+02  d E =-.134048E-01
       N       E                     dE             d eps       ncg     rms          rms(c)
DAV:   1    -0.627168562014E+02   -0.24772E-02   -0.57213E+00 12704   0.150E+01    0.123E+00
DAV:   2    -0.627280095390E+02   -0.11153E-01   -0.25860E-01 17136   0.329E+00    0.574E-01
DAV:   3    -0.627254196789E+02    0.25899E-02   -0.87989E-03 17060   0.574E-01    0.303E-01
DAV:   4    -0.627247877374E+02    0.63194E-03   -0.38852E-03 20452   0.378E-01    0.138E-01
DAV:   5    -0.627248214823E+02   -0.33745E-04   -0.46414E-04 15436   0.129E-01
  54 F= -.62724821E+02 E0= -.62724921E+02  d E =-.238410E-01
       N       E                     dE             d eps       ncg     rms          rms(c)
DAV:   1    -0.627464375916E+02   -0.21650E-01   -0.19846E+00 12656   0.731E+00    0.593E-01
DAV:   2    -0.627480096744E+02   -0.15721E-02   -0.43642E-02 17920   0.148E+00    0.400E-01
DAV:   3    -0.627475057427E+02    0.50393E-03   -0.16967E-03 17964   0.236E-01    0.213E-01
DAV:   4    -0.627473441820E+02    0.16156E-03   -0.69107E-04 16088   0.154E-01    0.428E-02
DAV:   5    -0.627473503741E+02   -0.61921E-05   -0.91412E-05  9092   0.645E-02
  55 F= -.62747350E+02 E0= -.62747422E+02  d E =-.225289E-01
       N       E                     dE             d eps       ncg     rms          rms(c)
DAV:   1    -0.627592683496E+02   -0.11924E-01   -0.56933E+00 12656   0.123E+01    0.109E+00
DAV:   2    -0.627635570773E+02   -0.42887E-02   -0.12622E-01 17856   0.252E+00    0.720E-01
DAV:   3    -0.627621394918E+02    0.14176E-02   -0.48615E-03 18148   0.400E-01    0.390E-01
DAV:   4    -0.627616457872E+02    0.49370E-03   -0.19895E-03 16368   0.262E-01    0.739E-02
DAV:   5    -0.627616659411E+02   -0.20154E-04   -0.29325E-04 14412   0.108E-01
  56 F= -.62761666E+02 E0= -.62761695E+02  d E =-.368445E-01
       N       E                     dE             d eps       ncg     rms          rms(c)
DAV:   1    -0.627770355298E+02   -0.15390E-01   -0.17472E+00 14472   0.908E+00    0.789E-01
DAV:   2    -0.627832379621E+02   -0.62024E-02   -0.96050E-02 15784   0.178E+00    0.399E-01
DAV:   3    -0.627827062608E+02    0.53170E-03   -0.28621E-03 19280   0.315E-01    0.192E-01
DAV:   4    -0.627826303820E+02    0.75879E-04   -0.63847E-04 20032   0.159E-01
  57 F= -.62782630E+02 E0= -.62782642E+02  d E =-.209644E-01
       N       E                     dE             d eps       ncg     rms          rms(c)
DAV:   1    -0.627828669236E+02   -0.16066E-03   -0.31518E-02 15396   0.123E+00    0.124E-01
DAV:   2    -0.627829749189E+02   -0.10800E-03   -0.17462E-03 15524   0.243E-01    0.603E-02
DAV:   3    -0.627829618278E+02    0.13091E-04   -0.54483E-05 10668   0.457E-02
  58 F= -.62782962E+02 E0= -.62782972E+02  d E =-.212959E-01
       N       E                     dE             d eps       ncg     rms          rms(c)
DAV:   1    -0.627981039712E+02   -0.15129E-01   -0.82955E-01 12656   0.575E+00    0.526E-01
DAV:   2    -0.627997423793E+02   -0.16384E-02   -0.37856E-02 17504   0.131E+00    0.229E-01
DAV:   3    -0.627994959752E+02    0.24640E-03   -0.14211E-03 19444   0.222E-01    0.140E-01
DAV:   4    -0.627994672642E+02    0.28711E-04   -0.37806E-04 15672   0.124E-01
  59 F= -.62799467E+02 E0= -.62799467E+02  d E =-.165054E-01
       N       E                     dE             d eps       ncg     rms          rms(c)
DAV:   1    -0.628072351213E+02   -0.77391E-02   -0.28048E+00 12656   0.106E+01    0.953E-01
DAV:   2    -0.628126661317E+02   -0.54310E-02   -0.12715E-01 17392   0.241E+00    0.429E-01
DAV:   3    -0.628118661020E+02    0.80003E-03   -0.47764E-03 19456   0.406E-01    0.260E-01
DAV:   4    -0.628116359126E+02    0.23019E-03   -0.13717E-03 20696   0.231E-01    0.117E-01
DAV:   5    -0.628116587405E+02   -0.22828E-04   -0.14451E-04 11256   0.661E-02
  60 F= -.62811659E+02 E0= -.62811659E+02  d E =-.286969E-01
