Automatically generated mesh
      19
Reciprocal lattice
    0.00000000000000    0.00000000000000    0.00000000000000             1
    0.25000000000000    0.00000000000000    0.00000000000000             2
    0.50000000000000    0.00000000000000    0.00000000000000             1
    0.00000000000000    0.33333333333333    0.00000000000000             2
    0.25000000000000    0.33333333333333    0.00000000000000             2
    0.50000000000000    0.33333333333333    0.00000000000000             2
   -0.25000000000000    0.33333333333333    0.00000000000000             2
    0.00000000000000    0.00000000000000    0.33333333333333             2
    0.25000000000000    0.00000000000000    0.33333333333333             2
    0.50000000000000    0.00000000000000    0.33333333333333             2
   -0.25000000000000    0.00000000000000    0.33333333333333             2
    0.00000000000000    0.33333333333333    0.33333333333333             2
    0.25000000000000    0.33333333333333    0.33333333333333             2
    0.50000000000000    0.33333333333333    0.33333333333333             2
   -0.25000000000000    0.33333333333333    0.33333333333333             2
    0.00000000000000   -0.33333333333333    0.33333333333333             2
    0.25000000000000   -0.33333333333333    0.33333333333333             2
    0.50000000000000   -0.33333333333333    0.33333333333333             2
   -0.25000000000000   -0.33333333333333    0.33333333333333             2
Tetrahedra
       106    0.00462962962963
         2         1         4         5        13
         2         1         2         5        13
         2         1         2         9        13
         2         1         4        12        13
         2         1         8        12        13
         2         1         8         9        13
         2         2         5         6        14
         2         2         3         6        14
         2         2         3        10        14
         2         2         5        13        14
         2         2         9        13        14
         2         2         9        10        14
         2         3         6         7        15
         2         2         3         7        15
         2         2         3        11        15
         2         3         6        14        15
         2         3        10        14        15
         2         3        10        11        15
         2         2         4         7        12
         2         1         2         4        12
         2         1         2         8        12
         2         2         7        12        15
         2         2        11        12        15
         2         2         8        11        12
         2         4         4         7        17
         2         4         5         7        17
         2         4         5        13        17
         2         4         4        16        17
         2         4        12        16        17
         2         4        12        13        17
         2         5         6         7        18
         2         5         6         6        18
         2         5         6        14        18
         2         5         7        17        18
         2         5        13        17        18
         2         5        13        14        18
         2         5         6         6        19
         2         5         6         7        19
         2         6         7        15        19
         2         6         6        18        19
         2         6        14        18        19
         2         6        14        15        19
         2         4         5         7        16
         2         4         4         7        16
         2         4         7        12        16
         2         5         7        16        19
         2         7        15        16        19
         2         7        12        15        16
         2         1         2         4         9
         2         2         4         7         9
         2         4         7         9        17
         2         1         4         8         9
         2         4         8         9        16
         2         4         9        16        17
         2         2         3         7        10
         2         3         6         7        10
         2         6         7        10        18
         2         2         7         9        10
         2         7         9        10        17
         2         7        10        17        18
         2         2         3         6        11
         2         2         5         6        11
         2         5         6        11        19
         2         3         6        10        11
         2         6        10        11        18
         2         6        11        18        19
         2         1         2         5         8
         2         1         4         5         8
         2         4         5         8        16
         2         2         5         8        11
         2         5         8        11        19
         2         5         8        16        19
         2         8        12        13        19
         2         8         9        13        19
         2         8         9        11        19
         2         8        12        16        19
         2         8         8        16        19
         2         8         8        11        19
         2         9        13        14        18
         2         9        10        14        18
         2         9        10        10        18
         2         9        13        18        19
         2         9        11        18        19
         2         9        10        11        18
         2        10        14        15        17
         2        10        11        15        17
         2         9        10        11        17
         2        10        14        17        18
         2        10        10        17        18
         2         9        10        10        17
         2        11        12        15        16
         2         8        11        12        16
         2         8         8        11        16
         2        11        15        16        17
         2         9        11        16        17
         2         8         9        11        16
         2        12        15        16        17
         2        12        13        15        17
         2        12        13        15        19
         4        12        12        15        16
         2        12        15        16        19
         2        13        14        17        18
         4        13        14        14        18
         2        13        14        15        17
         2        13        14        15        19
         2        13        14        18        19
