unknown system                          
           1
     4.191163    0.076783    0.083074
     1.011504    4.556748   -0.092466
     0.537313   -0.099960    6.648943
   H 
  20
Direct configuration=     1
   0.71657952  0.28522707  0.30046285
   0.85714587  0.27441174  0.36101499
   0.19878238  0.45523173  0.19176192
   0.28149214  0.05124510  0.46251580
   0.37404698  0.05866183  0.36248983
   0.75327819  0.69897777  0.16479892
   0.59006407  0.75885940  0.12800733
   0.02255913  0.73425492  0.47560481
   0.84421735  0.74970626  0.46538003
   0.41024459  0.94107538  0.74035582
   0.29241143  0.84471822  0.75774508
   0.17149276  0.02410752  0.05733806
   0.12386310  0.90950097  0.12197142
   0.65458140  0.20514606  0.87432573
   0.75483845  0.08483498  0.93019692
   0.54203999  0.42115022  0.62321320
   0.37542229  0.39017189  0.63048166
   0.96382791  0.53160748  0.86072258
   0.88524907  0.61119701  0.77568716
   0.33804139  0.41750345  0.11024586
unknown system                          
           1
     4.195726    0.076856    0.081754
     1.012830    4.551150   -0.093139
     0.535744   -0.100250    6.652168
   H 
  20
Direct configuration=     2
   0.71548694  0.28551069  0.29983480
   0.85828148  0.27396099  0.36130889
   0.19765253  0.45530995  0.19224031
   0.28142784  0.05099470  0.46288134
   0.37425454  0.05843654  0.36232788
   0.75355176  0.69896718  0.16488075
   0.59090346  0.75892981  0.12790258
   0.02373452  0.73414679  0.47584447
   0.84261080  0.75013584  0.46543531
   0.40988546  0.94133205  0.74030399
   0.29191024  0.84506569  0.75761269
   0.17137980  0.02379093  0.05733762
   0.12340213  0.90970967  0.12193268
   0.65560923  0.20441804  0.87452225
   0.75424767  0.08534806  0.93011531
   0.54242283  0.42137343  0.62314498
   0.37505713  0.39010547  0.63065304
   0.96397272  0.53135947  0.86067691
   0.88555861  0.61115761  0.77573011
   0.33882831  0.41753608  0.10963407
unknown system                          
           1
     4.193045    0.076813    0.082529
     1.012051    4.554439   -0.092744
     0.536666   -0.100080    6.650273
   H 
  20
Direct configuration=     3
   0.71612838  0.28534388  0.30020372
   0.85761481  0.27422612  0.36113620
   0.19831549  0.45526393  0.19195953
   0.28146539  0.05114199  0.46266672
   0.37413269  0.05856907  0.36242297
   0.75339119  0.69897340  0.16483267
   0.59041092  0.75888839  0.12796398
   0.02304464  0.73421039  0.47570360
   0.84355374  0.74988315  0.46540302
   0.41009633  0.94118107  0.74033445
   0.29220452  0.84486131  0.75769047
   0.17144597  0.02397716  0.05733792
   0.12367274  0.90958691  0.12195547
   0.65500573  0.20484627  0.87440678
   0.75459458  0.08504625  0.93016327
   0.54219826  0.42124213  0.62318498
   0.37527135  0.39014453  0.63055246
   0.96388766  0.53150536  0.86070373
   0.88537693  0.61118078  0.77570486
   0.33836667  0.41751690  0.10999322
unknown system                          
           1
     4.196301    0.076858    0.080967
     1.013070    4.547814   -0.094172
     0.534568   -0.101372    6.653271
   H 
  20
Direct configuration=     4
   0.71611368  0.28560885  0.29999447
   0.85767789  0.27373769  0.36091112
   0.19808301  0.45502142  0.19185358
   0.28170492  0.05083437  0.46279760
   0.37408542  0.05824312  0.36255575
   0.75391909  0.69890106  0.16497536
   0.59133591  0.75905320  0.12777668
   0.02276567  0.73422673  0.47591752
   0.84325897  0.75029605  0.46558388
   0.40959176  0.94150617  0.74027872
   0.29156834  0.84534988  0.75752117
   0.17138301  0.02373151  0.05723420
   0.12300733  0.90968567  0.12199533
   0.65565975  0.20472041  0.87427822
   0.75450366  0.08488697  0.93044363
   0.54208664  0.42141605  0.62312239
   0.37541403  0.39016790  0.63075829
   0.96411760  0.53113543  0.86068390
   0.88574969  0.61116558  0.77572102
   0.33815163  0.41790093  0.10991716
unknown system                          
           1
     4.206068    0.076995    0.076279
     1.016128    4.527939   -0.098457
     0.528274   -0.105250    6.662265
   H 
  20
Direct configuration=     5
   0.71606882  0.28640477  0.29936721
   0.85786759  0.27227006  0.36023589
   0.19738643  0.45429275  0.19153555
   0.28242370  0.04991029  0.46319003
   0.37394455  0.05726393  0.36295365
   0.75550186  0.69868383  0.16540358
   0.59410806  0.75954824  0.12721581
   0.02192970  0.73427598  0.47655881
   0.84237483  0.75153669  0.46612632
   0.40807861  0.94248285  0.74011146
   0.28966016  0.84681762  0.75701340
   0.17119458  0.02299339  0.05692296
   0.12101260  0.90998239  0.12211444
   0.65762026  0.20434219  0.87389311
   0.75423185  0.08440864  0.93128413
   0.54175163  0.42193854  0.62293478
   0.37584197  0.39023826  0.63137562
   0.96480752  0.53002401  0.86062434
   0.88686710  0.61111991  0.77576973
   0.33750618  0.41905465  0.10968920
unknown system                          
           1
     4.225601    0.077268    0.066903
     1.022244    4.488189   -0.107027
     0.515685   -0.113006    6.680253
   H 
  20
Direct configuration=     6
   0.71597444  0.28800267  0.29811548
   0.85824962  0.26932071  0.35888537
   0.19599846  0.45282837  0.19089826
   0.28386244  0.04805459  0.46397354
   0.37366835  0.05529749  0.36374672
   0.75866181  0.69824822  0.16626085
   0.59963540  0.76054196  0.12610037
   0.02026353  0.73437591  0.47783850
   0.84060775  0.75402982  0.46721025
   0.40505544  0.94444452  0.73977661
   0.28584599  0.84976520  0.75599858
   0.17082051  0.02151007  0.05629996
   0.11703203  0.91057854  0.12234983
   0.66153208  0.20358188  0.87312624
   0.75369384  0.08344906  0.93296177
   0.54108071  0.42298785  0.62256032
   0.37669735  0.39038061  0.63260934
   0.96618805  0.52779125  0.86050477
   0.88909684  0.61102832  0.77586859
   0.33621337  0.42137193  0.10923464
unknown system                          
           1
     4.264669    0.077815    0.048152
     1.034475    4.408689   -0.124166
     0.490509   -0.128518    6.716230
   H 
  20
Direct configuration=     7
   0.71576716  0.29122307  0.29562318
   0.85902450  0.26336485  0.35618410
   0.19324328  0.44987118  0.18961880
   0.28674472  0.04431262  0.46553506
   0.37313817  0.05133191  0.36532202
   0.76495960  0.69737233  0.16797868
   0.61062282  0.76254427  0.12389448
   0.01695393  0.73458148  0.48038644
   0.83707801  0.75906403  0.46937442
   0.39902137  0.94840158  0.73910568
   0.27822608  0.85570947  0.75397197
   0.17008359  0.01851482  0.05505189
   0.10910606  0.91178181  0.12280954
   0.66931935  0.20204563  0.87160578
   0.75264005  0.08151805  0.93630363
   0.53973517  0.42510397  0.62181455
   0.37840597  0.39067195  0.63507304
   0.96895206  0.52328550  0.86026374
   0.89353611  0.61084408  0.77607199
   0.33361997  0.42604640  0.10833100
unknown system                          
           1
     4.238695    0.077451    0.060619
     1.026343    4.461545   -0.112771
     0.507248   -0.118205    6.692311
   H 
  20
Direct configuration=     8
   0.71592949  0.28904831  0.29726545
   0.85849428  0.26740272  0.35798066
   0.19504750  0.45187619  0.19047595
   0.28482173  0.04684228  0.46450425
   0.37346119  0.05401321  0.36428903
   0.76080135  0.69796104  0.16683239
   0.60340587  0.76119257  0.12532843
   0.01912473  0.73443707  0.47870737
   0.83941975  0.75565151  0.46794010
   0.40301761  0.94572464  0.73955311
   0.28328188  0.85169029  0.75531505
   0.17055842  0.02054536  0.05588452
   0.11432988  0.91096688  0.12251826
   0.66418921  0.20308830  0.87259946
   0.75331147  0.08281817  0.93409942
   0.54063482  0.42367310  0.62230615
   0.37727289  0.39046923  0.63343995
   0.96710993  0.52633615  0.86042669
   0.89061102  0.61096799  0.77592939
   0.33535496  0.42288400  0.10892437
unknown system                          
           1
     4.239997    0.077564    0.059908
     1.026860    4.458547   -0.113454
     0.506272   -0.118837    6.693466
   H 
  20
Direct configuration=     9
   0.71598484  0.28917513  0.29720575
   0.85843301  0.26716306  0.35784161
   0.19513654  0.45170045  0.19031975
   0.28497179  0.04668330  0.46452521
   0.37340658  0.05384105  0.36437966
   0.76107558  0.69791905  0.16690954
   0.60380508  0.76129606  0.12522445
   0.01880486  0.73446488  0.47880373
   0.83944633  0.75584532  0.46804622
   0.40277883  0.94591553  0.73953459
   0.28293639  0.85194656  0.75524525
   0.17051930  0.02033469  0.05586926
   0.11406926  0.91108332  0.12249029
   0.66449543  0.20303582  0.87252896
   0.75326177  0.08273476  0.93424257
   0.54062110  0.42376038  0.62226334
   0.37732875  0.39047004  0.63353966
   0.96719895  0.52617837  0.86038203
   0.89083081  0.61092407  0.77597004
   0.33507279  0.42311715  0.10899809
unknown system                          
           1
     4.243904    0.077900    0.057773
     1.028411    4.449554   -0.115503
     0.503345   -0.120735    6.696931
   H 
  20
Direct configuration=    10
   0.71615068  0.28955584  0.29702675
   0.85824940  0.26644356  0.35742444
   0.19540360  0.45117282  0.18985118
   0.28542200  0.04620605  0.46458809
   0.37324303  0.05332427  0.36465143
   0.76189808  0.69779301  0.16714103
   0.60500220  0.76160666  0.12491273
   0.01784558  0.73454843  0.47909267
   0.83952593  0.75642720  0.46836461
   0.40206256  0.94648857  0.73947901
   0.28189995  0.85271590  0.75503584
   0.17040216  0.01970227  0.05582342
   0.11328752  0.91143290  0.12240634
   0.66541379  0.20287821  0.87231758
   0.75311288  0.08248442  0.93467192
   0.54057983  0.42402238  0.62213496
   0.37749635  0.39047250  0.63383876
   0.96746606  0.52570470  0.86024802
   0.89149001  0.61079220  0.77609202
   0.33422638  0.42381711  0.10921920
unknown system                          
           1
     4.243281    0.077987    0.058011
     1.028321    4.450746   -0.115348
     0.503649   -0.120629    6.696398
   H 
  20
Direct configuration=    11
   0.71614475  0.28952517  0.29707230
   0.85821071  0.26650377  0.35745876
   0.19550505  0.45117347  0.18984409
   0.28539351  0.04623680  0.46455608
   0.37324523  0.05335826  0.36462243
   0.76180142  0.69781364  0.16711911
   0.60484876  0.76159794  0.12492725
   0.01784172  0.73454671  0.47906781
   0.83958974  0.75637488  0.46835377
   0.40212152  0.94646922  0.73950298
   0.28195700  0.85268307  0.75507525
   0.17044176  0.01969246  0.05583839
   0.11342622  0.91143484  0.12238458
   0.66532558  0.20288819  0.87233394
   0.75309436  0.08252673  0.93463126
   0.54062658  0.42399283  0.62212830
   0.37748643  0.39045849  0.63380876
   0.96743557  0.52575474  0.86024105
   0.89145729  0.61078263  0.77609372
   0.33422483  0.42377518  0.10926018
unknown system                          
           1
     4.241413    0.078248    0.058723
     1.028050    4.454323   -0.114883
     0.504560   -0.120308    6.694800
   H 
  20
Direct configuration=    12
   0.71612694  0.28943317  0.29720896
   0.85809463  0.26668434  0.35756170
   0.19580943  0.45117542  0.18982280
   0.28530801  0.04632903  0.46446005
   0.37325183  0.05346021  0.36453541
   0.76151139  0.69787551  0.16705336
   0.60438835  0.76157179  0.12497082
   0.01783014  0.73454157  0.47899323
   0.83978116  0.75621795  0.46832126
   0.40229841  0.94641117  0.73957487
   0.28212816  0.85258461  0.75519347
   0.17056057  0.01966303  0.05588328
   0.11384238  0.91144065  0.12231929
   0.66506089  0.20291813  0.87238303
   0.75303882  0.08265361  0.93450927
   0.54076683  0.42390422  0.62210831
   0.37745668  0.39041645  0.63371877
   0.96734412  0.52590481  0.86022014
   0.89135910  0.61075391  0.77609884
   0.33422014  0.42364943  0.10938314
