   18   18   99    2
  0.7386556E+01  0.4425085E-09  0.6811043E-09  0.5260664E-09  0.5000000E-15
  1.000000000000000E-004
  CAR 
 unknown system                          
     37     46     48
 
  0.3742002E-15  0.3742002E-15  0.1262379E-14  0.1111111E-01
    1      -35.197641    -35.197640   1.000000   1.000000
    2      -30.616704    -30.616703   1.000000   1.000000
    3      -30.516899    -30.516899   1.000000   1.000000
    4      -30.377966    -30.377966   1.000000   1.000000
    5      -17.238451    -17.238451   1.000000   1.000000
    6      -17.214087    -17.214087   1.000000   1.000000
    7      -17.183355    -17.183355   1.000000   1.000000
    8       -9.364888     -9.364888   1.000000   1.000000
    9       -7.541404     -7.541404   1.000000   1.000000
   10       -7.335126     -7.335126   1.000000   1.000000
   11       -6.722980     -6.722980   1.000000   1.000000
   12       -5.943883     -5.943883   1.000000   1.000000
   13       -4.388630     -4.388630   1.000000   1.000000
   14       -3.114670     -3.114670   1.000000   1.000000
   15       -2.696166     -2.696166   1.000000   1.000000
   16       -2.496878     -2.496878   1.000000   1.000000
   17       -2.395116     -2.395116   1.000000   1.000000
   18       -2.007731     -2.007731   1.000000   1.000000
   19       -0.204130     -0.204130   1.000000   1.000000
   20        2.593267      2.593267   0.000000   0.000000
   21        3.035338      3.035338   0.000000   0.000000
   22        3.699713      3.699713   0.000000   0.000000
   23        3.951219      3.951219   0.000000   0.000000
   24        4.148376      4.148376   0.000000   0.000000
   25        4.732742      4.732742   0.000000   0.000000
   26        4.918080      4.918080   0.000000   0.000000
   27        5.320471      5.320471   0.000000   0.000000
   28        5.491962      5.491962   0.000000   0.000000
   29        5.977721      5.977721   0.000000   0.000000
   30        6.514631      6.514631   0.000000   0.000000
   31        6.600370      6.600370   0.000000   0.000000
   32        7.011324      7.011325   0.000000   0.000000
   33        7.347301      7.347301   0.000000   0.000000
   34        7.755201      7.755201   0.000000   0.000000
   35        8.354298      8.354298   0.000000   0.000000
   36        8.816637      8.816638   0.000000   0.000000
   37        9.234949      9.234949   0.000000   0.000000
   38        9.541684      9.541684   0.000000   0.000000
   39        9.812241      9.812241   0.000000   0.000000
   40       10.481703     10.481703   0.000000   0.000000
   41       10.956298     10.956298   0.000000   0.000000
   42       12.005470     12.005470   0.000000   0.000000
   43       12.379002     12.379002   0.000000   0.000000
   44       12.839935     12.839935   0.000000   0.000000
   45       13.278174     13.278174   0.000000   0.000000
   46       13.839697     13.839697   0.000000   0.000000
   47       14.247102     14.247102   0.000000   0.000000
   48       15.305469     15.305515   0.000000   0.000000
 
  0.1666667E+00  0.1264549E-14  0.1257820E-14  0.2222222E-01
    1      -35.197289    -35.197289   1.000000   1.000000
    2      -30.617175    -30.617174   1.000000   1.000000
    3      -30.517021    -30.517021   1.000000   1.000000
    4      -30.378299    -30.378299   1.000000   1.000000
    5      -17.253256    -17.253256   1.000000   1.000000
    6      -17.213151    -17.213151   1.000000   1.000000
    7      -17.182287    -17.182287   1.000000   1.000000
    8       -9.231265     -9.231265   1.000000   1.000000
    9       -7.527256     -7.527256   1.000000   1.000000
   10       -7.347818     -7.347818   1.000000   1.000000
   11       -6.726717     -6.726717   1.000000   1.000000
   12       -6.074112     -6.074112   1.000000   1.000000
   13       -4.396480     -4.396480   1.000000   1.000000
   14       -3.074103     -3.074103   1.000000   1.000000
   15       -2.814610     -2.814610   1.000000   1.000000
   16       -2.549857     -2.549857   1.000000   1.000000
   17       -2.425930     -2.425930   1.000000   1.000000
   18       -2.137551     -2.137551   1.000000   1.000000
   19        0.146394      0.146394   0.996647   0.996648
   20        2.687196      2.687196   0.000000   0.000000
   21        3.122066      3.122066   0.000000   0.000000
   22        3.462946      3.462946   0.000000   0.000000
   23        3.887885      3.887885   0.000000   0.000000
   24        4.182934      4.182934   0.000000   0.000000
   25        4.605176      4.605176   0.000000   0.000000
   26        4.957444      4.957444   0.000000   0.000000
   27        5.357472      5.357472   0.000000   0.000000
   28        5.599410      5.599410   0.000000   0.000000
   29        5.910824      5.910824   0.000000   0.000000
   30        6.311922      6.311922   0.000000   0.000000
   31        6.671241      6.671241   0.000000   0.000000
   32        7.198023      7.198023   0.000000   0.000000
   33        7.536280      7.536280   0.000000   0.000000
   34        7.805090      7.805090   0.000000   0.000000
   35        8.247661      8.247661   0.000000   0.000000
   36        9.073143      9.073143   0.000000   0.000000
   37        9.303865      9.303865   0.000000   0.000000
   38        9.590787      9.590787   0.000000   0.000000
   39       10.083864     10.083864   0.000000   0.000000
   40       10.407066     10.407066   0.000000   0.000000
   41       10.932534     10.932534   0.000000   0.000000
   42       11.488708     11.488708   0.000000   0.000000
   43       12.072982     12.072982   0.000000   0.000000
   44       12.822424     12.822424   0.000000   0.000000
   45       13.469079     13.469079   0.000000   0.000000
   46       13.861937     13.861937   0.000000   0.000000
   47       14.428530     14.428530   0.000000   0.000000
   48       15.221277     15.221278   0.000000   0.000000
 
  0.3333333E+00  0.3653786E-15  0.1248471E-14  0.2222222E-01
    1      -35.196587    -35.196586   1.000000   1.000000
    2      -30.618126    -30.618126   1.000000   1.000000
    3      -30.517261    -30.517262   1.000000   1.000000
    4      -30.378951    -30.378950   1.000000   1.000000
    5      -17.283468    -17.283468   1.000000   1.000000
    6      -17.210780    -17.210780   1.000000   1.000000
    7      -17.179644    -17.179644   1.000000   1.000000
    8       -8.897651     -8.897651   1.000000   1.000000
    9       -7.553398     -7.553398   1.000000   1.000000
   10       -7.385865     -7.385865   1.000000   1.000000
   11       -6.737958     -6.737958   1.000000   1.000000
   12       -6.343263     -6.343263   1.000000   1.000000
   13       -4.400157     -4.400157   1.000000   1.000000
   14       -3.059596     -3.059596   1.000000   1.000000
   15       -2.912607     -2.912607   1.000000   1.000000
   16       -2.667327     -2.667327   1.000000   1.000000
   17       -2.489169     -2.489169   1.000000   1.000000
   18       -2.301679     -2.301679   1.000000   1.000000
   19        0.700858      0.700858   0.041059   0.041059
   20        2.815885      2.815885   0.000000   0.000000
   21        3.142473      3.142473   0.000000   0.000000
   22        3.298732      3.298732   0.000000   0.000000
   23        3.776451      3.776451   0.000000   0.000000
   24        4.177062      4.177062   0.000000   0.000000
   25        4.582339      4.582339   0.000000   0.000000
   26        4.926332      4.926332   0.000000   0.000000
   27        5.361355      5.361355   0.000000   0.000000
   28        5.628060      5.628061   0.000000   0.000000
   29        6.031430      6.031430   0.000000   0.000000
   30        6.281462      6.281462   0.000000   0.000000
   31        6.671904      6.671905   0.000000   0.000000
   32        7.193488      7.193488   0.000000   0.000000
   33        7.592201      7.592201   0.000000   0.000000
   34        7.832631      7.832630   0.000000   0.000000
   35        8.279214      8.279214   0.000000   0.000000
   36        8.938122      8.938122   0.000000   0.000000
   37        9.382375      9.382376   0.000000   0.000000
   38        9.894523      9.894523   0.000000   0.000000
   39       10.368918     10.368918   0.000000   0.000000
   40       10.699923     10.699923   0.000000   0.000000
   41       11.095745     11.095745   0.000000   0.000000
   42       11.734046     11.734046   0.000000   0.000000
   43       12.557497     12.557497   0.000000   0.000000
   44       12.957035     12.957035   0.000000   0.000000
   45       13.357544     13.357544   0.000000   0.000000
   46       13.575687     13.575687   0.000000   0.000000
   47       14.133535     14.133535   0.000000   0.000000
   48       14.841909     14.841914   0.000000   0.000000
 
  0.5000000E+00  0.1262806E-14  0.1275370E-14  0.1111111E-01
    1      -35.196235    -35.196235   1.000000   1.000000
    2      -30.618607    -30.618606   1.000000   1.000000
    3      -30.517382    -30.517383   1.000000   1.000000
    4      -30.379271    -30.379271   1.000000   1.000000
    5      -17.298558    -17.298558   1.000000   1.000000
    6      -17.209568    -17.209568   1.000000   1.000000
    7      -17.178176    -17.178176   1.000000   1.000000
    8       -8.660318     -8.660318   1.000000   1.000000
    9       -7.648783     -7.648783   1.000000   1.000000
   10       -7.410745     -7.410745   1.000000   1.000000
   11       -6.740895     -6.740895   1.000000   1.000000
   12       -6.465020     -6.465020   1.000000   1.000000
   13       -4.404792     -4.404792   1.000000   1.000000
   14       -3.069602     -3.069602   1.000000   1.000000
   15       -2.920858     -2.920858   1.000000   1.000000
   16       -2.711341     -2.711341   1.000000   1.000000
   17       -2.529642     -2.529642   1.000000   1.000000
   18       -2.364280     -2.364280   1.000000   1.000000
   19        0.935872      0.935872   0.000000   0.000000
   20        2.772100      2.772100   0.000000   0.000000
   21        3.105013      3.105013   0.000000   0.000000
   22        3.378397      3.378397   0.000000   0.000000
   23        3.693246      3.693246   0.000000   0.000000
   24        4.224982      4.224982   0.000000   0.000000
   25        4.908941      4.908941   0.000000   0.000000
   26        5.107591      5.107591   0.000000   0.000000
   27        5.173185      5.173185   0.000000   0.000000
   28        5.349314      5.349314   0.000000   0.000000
   29        5.584455      5.584455   0.000000   0.000000
   30        6.363438      6.363438   0.000000   0.000000
   31        7.018785      7.018785   0.000000   0.000000
   32        7.177175      7.177175   0.000000   0.000000
   33        7.542945      7.542945   0.000000   0.000000
   34        7.906361      7.906361   0.000000   0.000000
   35        8.326158      8.326158   0.000000   0.000000
   36        8.829624      8.829624   0.000000   0.000000
   37        9.288916      9.288916   0.000000   0.000000
   38        9.897093      9.897093   0.000000   0.000000
   39       10.640268     10.640268   0.000000   0.000000
   40       10.993397     10.993397   0.000000   0.000000
   41       11.861688     11.861688   0.000000   0.000000
   42       12.077929     12.077929   0.000000   0.000000
   43       12.504509     12.504509   0.000000   0.000000
   44       12.731513     12.731513   0.000000   0.000000
   45       13.439306     13.439306   0.000000   0.000000
   46       13.548077     13.548077   0.000000   0.000000
   47       14.189237     14.189237   0.000000   0.000000
   48       14.323534     14.323534   0.000000   0.000000
 
  0.3672386E-15  0.3333333E+00  0.1235331E-14  0.2222222E-01
    1      -35.197648    -35.197648   1.000000   1.000000
    2      -30.616695    -30.616694   1.000000   1.000000
    3      -30.516897    -30.516898   1.000000   1.000000
    4      -30.377953    -30.377952   1.000000   1.000000
    5      -17.238473    -17.238473   1.000000   1.000000
    6      -17.215719    -17.215719   1.000000   1.000000
    7      -17.183721    -17.183721   1.000000   1.000000
    8       -9.162515     -9.162515   1.000000   1.000000
    9       -7.927870     -7.927870   1.000000   1.000000
   10       -7.342635     -7.342635   1.000000   1.000000
   11       -6.697844     -6.697844   1.000000   1.000000
   12       -5.957146     -5.957146   1.000000   1.000000
   13       -4.190046     -4.190046   1.000000   1.000000
   14       -3.045743     -3.045743   1.000000   1.000000
   15       -2.766627     -2.766627   1.000000   1.000000
   16       -2.516053     -2.516053   1.000000   1.000000
   17       -2.341452     -2.341452   1.000000   1.000000
   18       -1.798217     -1.798217   1.000000   1.000000
   19       -0.242025     -0.242025   1.000000   1.000000
   20        2.373862      2.373862   0.000000   0.000000
   21        3.138346      3.138346   0.000000   0.000000
   22        3.425481      3.425481   0.000000   0.000000
   23        3.820351      3.820351   0.000000   0.000000
   24        3.945287      3.945287   0.000000   0.000000
   25        4.611157      4.611157   0.000000   0.000000
   26        4.948633      4.948633   0.000000   0.000000
   27        5.194098      5.194098   0.000000   0.000000
   28        5.641843      5.641843   0.000000   0.000000
   29        6.123565      6.123565   0.000000   0.000000
   30        6.436307      6.436307   0.000000   0.000000
   31        6.836814      6.836814   0.000000   0.000000
   32        7.028196      7.028196   0.000000   0.000000
   33        7.340838      7.340838   0.000000   0.000000
   34        7.624513      7.624513   0.000000   0.000000
   35        8.372591      8.372591   0.000000   0.000000
   36        8.698881      8.698881   0.000000   0.000000
   37        9.171691      9.171691   0.000000   0.000000
   38        9.394423      9.394423   0.000000   0.000000
   39       10.163762     10.163762   0.000000   0.000000
   40       10.924461     10.924461   0.000000   0.000000
   41       11.634405     11.634405   0.000000   0.000000
   42       12.057957     12.057957   0.000000   0.000000
   43       12.575018     12.575018   0.000000   0.000000
   44       13.318029     13.318029   0.000000   0.000000
   45       13.852581     13.852581   0.000000   0.000000
   46       14.152554     14.152554   0.000000   0.000000
   47       14.424199     14.424199   0.000000   0.000000
   48       14.558160     14.558160   0.000000   0.000000
 
  0.1666667E+00  0.3333333E+00  0.1240852E-14  0.2222222E-01
    1      -35.197295    -35.197295   1.000000   1.000000
    2      -30.617162    -30.617162   1.000000   1.000000
    3      -30.517021    -30.517022   1.000000   1.000000
    4      -30.378293    -30.378293   1.000000   1.000000
    5      -17.253054    -17.253053   1.000000   1.000000
    6      -17.214742    -17.214742   1.000000   1.000000
    7      -17.182528    -17.182528   1.000000   1.000000
    8       -9.049153     -9.049153   1.000000   1.000000
    9       -7.858814     -7.858814   1.000000   1.000000
   10       -7.350153     -7.350153   1.000000   1.000000
   11       -6.735417     -6.735417   1.000000   1.000000
   12       -6.078445     -6.078445   1.000000   1.000000
   13       -4.194490     -4.194490   1.000000   1.000000
   14       -3.006831     -3.006831   1.000000   1.000000
   15       -2.728079     -2.728079   1.000000   1.000000
   16       -2.603758     -2.603758   1.000000   1.000000
   17       -2.430827     -2.430827   1.000000   1.000000
   18       -2.111577     -2.111577   1.000000   1.000000
   19        0.153562      0.153562   0.991435   0.991435
   20        2.505669      2.505669   0.000000   0.000000
   21        3.017526      3.017526   0.000000   0.000000
   22        3.313687      3.313687   0.000000   0.000000
   23        3.809157      3.809157   0.000000   0.000000
   24        4.181565      4.181565   0.000000   0.000000
   25        4.553210      4.553210   0.000000   0.000000
   26        4.946908      4.946908   0.000000   0.000000
   27        5.328386      5.328386   0.000000   0.000000
   28        5.568968      5.568968   0.000000   0.000000
   29        6.091966      6.091966   0.000000   0.000000
   30        6.316575      6.316575   0.000000   0.000000
   31        7.066016      7.066016   0.000000   0.000000
   32        7.188280      7.188280   0.000000   0.000000
   33        7.450559      7.450559   0.000000   0.000000
   34        7.837247      7.837247   0.000000   0.000000
   35        8.206265      8.206265   0.000000   0.000000
   36        8.551819      8.551819   0.000000   0.000000
   37        9.025566      9.025566   0.000000   0.000000
   38        9.377037      9.377037   0.000000   0.000000
   39       10.085419     10.085419   0.000000   0.000000
   40       10.802289     10.802289   0.000000   0.000000
   41       11.778122     11.778122   0.000000   0.000000
   42       12.206217     12.206217   0.000000   0.000000
   43       12.494167     12.494167   0.000000   0.000000
   44       13.395592     13.395592   0.000000   0.000000
   45       13.711924     13.711924   0.000000   0.000000
   46       13.804915     13.804915   0.000000   0.000000
   47       14.351334     14.351334   0.000000   0.000000
   48       14.762002     14.762002   0.000000   0.000000
 
  0.3333333E+00  0.3333333E+00  0.3995581E-15  0.2222222E-01
    1      -35.196591    -35.196590   1.000000   1.000000
    2      -30.618111    -30.618110   1.000000   1.000000
    3      -30.517265    -30.517265   1.000000   1.000000
    4      -30.378959    -30.378958   1.000000   1.000000
    5      -17.283149    -17.283149   1.000000   1.000000
    6      -17.212070    -17.212070   1.000000   1.000000
    7      -17.179741    -17.179741   1.000000   1.000000
    8       -8.772327     -8.772327   1.000000   1.000000
    9       -7.740164     -7.740164   1.000000   1.000000
   10       -7.377811     -7.377811   1.000000   1.000000
   11       -6.795204     -6.795204   1.000000   1.000000
   12       -6.324007     -6.324007   1.000000   1.000000
   13       -4.330612     -4.330612   1.000000   1.000000
   14       -2.964262     -2.964262   1.000000   1.000000
   15       -2.794682     -2.794682   1.000000   1.000000
   16       -2.728811     -2.728811   1.000000   1.000000
   17       -2.499727     -2.499727   1.000000   1.000000
   18       -2.307611     -2.307611   1.000000   1.000000
   19        0.689855      0.689855   0.047203   0.047203
   20        2.615176      2.615176   0.000000   0.000000
   21        2.904050      2.904050   0.000000   0.000000
   22        3.097560      3.097560   0.000000   0.000000
   23        3.647231      3.647231   0.000000   0.000000
   24        4.322452      4.322452   0.000000   0.000000
   25        4.695421      4.695421   0.000000   0.000000
   26        5.067544      5.067544   0.000000   0.000000
   27        5.719405      5.719405   0.000000   0.000000
   28        5.818467      5.818467   0.000000   0.000000
   29        6.110580      6.110580   0.000000   0.000000
   30        6.335619      6.335619   0.000000   0.000000
   31        6.750986      6.750986   0.000000   0.000000
   32        7.251805      7.251805   0.000000   0.000000
   33        7.361008      7.361008   0.000000   0.000000
   34        7.807579      7.807579   0.000000   0.000000
   35        8.023390      8.023390   0.000000   0.000000
   36        8.355807      8.355807   0.000000   0.000000
   37        9.293617      9.293617   0.000000   0.000000
   38        9.656207      9.656207   0.000000   0.000000
   39       10.418879     10.418879   0.000000   0.000000
   40       11.017158     11.017158   0.000000   0.000000
   41       11.329214     11.329214   0.000000   0.000000
   42       12.153020     12.153020   0.000000   0.000000
   43       12.706868     12.706868   0.000000   0.000000
   44       13.226701     13.226701   0.000000   0.000000
   45       13.452090     13.452090   0.000000   0.000000
   46       14.065944     14.065944   0.000000   0.000000
   47       14.352044     14.352044   0.000000   0.000000
   48       14.914537     14.914537   0.000000   0.000000
 
  0.5000000E+00  0.3333333E+00  0.3413156E-15  0.2222222E-01
    1      -35.196239    -35.196239   1.000000   1.000000
    2      -30.618589    -30.618588   1.000000   1.000000
    3      -30.517385    -30.517385   1.000000   1.000000
    4      -30.379281    -30.379281   1.000000   1.000000
    5      -17.298198    -17.298198   1.000000   1.000000
    6      -17.210687    -17.210688   1.000000   1.000000
    7      -17.178268    -17.178268   1.000000   1.000000
    8       -8.596838     -8.596838   1.000000   1.000000
    9       -7.690705     -7.690705   1.000000   1.000000
   10       -7.402987     -7.402987   1.000000   1.000000
   11       -6.816142     -6.816142   1.000000   1.000000
   12       -6.459954     -6.459954   1.000000   1.000000
   13       -4.453045     -4.453045   1.000000   1.000000
   14       -3.018272     -3.018272   1.000000   1.000000
   15       -2.786849     -2.786849   1.000000   1.000000
   16       -2.713672     -2.713672   1.000000   1.000000
   17       -2.506529     -2.506529   1.000000   1.000000
   18       -2.373136     -2.373136   1.000000   1.000000
   19        0.930305      0.930305   0.000000   0.000000
   20        2.499867      2.499867   0.000000   0.000000
   21        2.884203      2.884203   0.000000   0.000000
   22        3.086523      3.086523   0.000000   0.000000
   23        3.674882      3.674882   0.000000   0.000000
   24        4.637154      4.637154   0.000000   0.000000
   25        4.788778      4.788778   0.000000   0.000000
   26        5.065818      5.065818   0.000000   0.000000
   27        5.405361      5.405361   0.000000   0.000000
   28        5.699155      5.699155   0.000000   0.000000
   29        6.173043      6.173043   0.000000   0.000000
   30        6.405499      6.405499   0.000000   0.000000
   31        6.738296      6.738296   0.000000   0.000000
   32        7.123810      7.123810   0.000000   0.000000
   33        7.298908      7.298909   0.000000   0.000000
   34        7.731212      7.731212   0.000000   0.000000
   35        8.227316      8.227316   0.000000   0.000000
   36        8.730787      8.730787   0.000000   0.000000
   37        9.062932      9.062932   0.000000   0.000000
   38        9.670666      9.670666   0.000000   0.000000
   39       10.637999     10.637999   0.000000   0.000000
   40       11.575155     11.575155   0.000000   0.000000
   41       11.898085     11.898085   0.000000   0.000000
   42       12.202524     12.202524   0.000000   0.000000
   43       12.433496     12.433496   0.000000   0.000000
   44       12.947064     12.947064   0.000000   0.000000
   45       13.289512     13.289512   0.000000   0.000000
   46       13.755795     13.755795   0.000000   0.000000
   47       14.234588     14.234588   0.000000   0.000000
   48       14.764983     14.764983   0.000000   0.000000
 
 -0.3333333E+00  0.3333333E+00  0.3310348E-15  0.2222222E-01
    1      -35.196592    -35.196592   1.000000   1.000000
    2      -30.618110    -30.618109   1.000000   1.000000
    3      -30.517262    -30.517263   1.000000   1.000000
    4      -30.378946    -30.378946   1.000000   1.000000
    5      -17.283184    -17.283184   1.000000   1.000000
    6      -17.212010    -17.212010   1.000000   1.000000
    7      -17.179888    -17.179888   1.000000   1.000000
    8       -8.785936     -8.785936   1.000000   1.000000
    9       -7.683627     -7.683627   1.000000   1.000000
   10       -7.404129     -7.404129   1.000000   1.000000
   11       -6.772230     -6.772230   1.000000   1.000000
   12       -6.360978     -6.360978   1.000000   1.000000
   13       -4.370719     -4.370719   1.000000   1.000000
   14       -2.992850     -2.992849   1.000000   1.000000
   15       -2.873472     -2.873472   1.000000   1.000000
   16       -2.658995     -2.658995   1.000000   1.000000
   17       -2.454292     -2.454292   1.000000   1.000000
   18       -2.255832     -2.255832   1.000000   1.000000
   19        0.716364      0.716364   0.030225   0.030225
   20        2.550768      2.550768   0.000000   0.000000
   21        2.937255      2.937256   0.000000   0.000000
   22        3.128340      3.128340   0.000000   0.000000
   23        3.664850      3.664850   0.000000   0.000000
   24        4.403101      4.403101   0.000000   0.000000
   25        4.621760      4.621760   0.000000   0.000000
   26        4.911384      4.911384   0.000000   0.000000
   27        5.412819      5.412819   0.000000   0.000000
   28        5.962025      5.962025   0.000000   0.000000
   29        6.190271      6.190271   0.000000   0.000000
   30        6.420811      6.420811   0.000000   0.000000
   31        6.919616      6.919616   0.000000   0.000000
   32        7.090518      7.090518   0.000000   0.000000
   33        7.323146      7.323146   0.000000   0.000000
   34        7.651179      7.651179   0.000000   0.000000
   35        7.986996      7.986996   0.000000   0.000000
   36        8.643439      8.643439   0.000000   0.000000
   37        9.067552      9.067553   0.000000   0.000000
   38        9.794011      9.794011   0.000000   0.000000
   39       10.855308     10.855308   0.000000   0.000000
   40       11.404895     11.404895   0.000000   0.000000
   41       11.688850     11.688850   0.000000   0.000000
   42       11.858035     11.858035   0.000000   0.000000
   43       12.368086     12.368086   0.000000   0.000000
   44       12.886807     12.886807   0.000000   0.000000
   45       13.252531     13.252531   0.000000   0.000000
   46       14.065245     14.065245   0.000000   0.000000
   47       14.375566     14.375566   0.000000   0.000000
   48       14.677083     14.677083   0.000000   0.000000
 
 -0.1666667E+00  0.3333333E+00  0.3489723E-15  0.2222222E-01
    1      -35.197297    -35.197297   1.000000   1.000000
    2      -30.617163    -30.617163   1.000000   1.000000
    3      -30.517020    -30.517020   1.000000   1.000000
    4      -30.378284    -30.378284   1.000000   1.000000
    5      -17.253157    -17.253157   1.000000   1.000000
    6      -17.214648    -17.214648   1.000000   1.000000
    7      -17.182658    -17.182658   1.000000   1.000000
    8       -9.053101     -9.053101   1.000000   1.000000
    9       -7.838716     -7.838716   1.000000   1.000000
   10       -7.366722     -7.366722   1.000000   1.000000
   11       -6.710373     -6.710373   1.000000   1.000000
   12       -6.092912     -6.092912   1.000000   1.000000
   13       -4.249382     -4.249382   1.000000   1.000000
   14       -2.996222     -2.996222   1.000000   1.000000
   15       -2.872634     -2.872634   1.000000   1.000000
   16       -2.562823     -2.562823   1.000000   1.000000
   17       -2.368693     -2.368693   1.000000   1.000000
   18       -1.981427     -1.981427   1.000000   1.000000
   19        0.151769      0.151769   0.988813   0.988813
   20        2.494974      2.494974   0.000000   0.000000
   21        2.919000      2.919000   0.000000   0.000000
   22        3.325437      3.325437   0.000000   0.000000
   23        3.716388      3.716388   0.000000   0.000000
   24        4.131479      4.131479   0.000000   0.000000
   25        4.735231      4.735231   0.000000   0.000000
   26        4.960305      4.960305   0.000000   0.000000
   27        5.242232      5.242232   0.000000   0.000000
   28        5.758722      5.758722   0.000000   0.000000
   29        5.992216      5.992216   0.000000   0.000000
   30        6.353822      6.353822   0.000000   0.000000
   31        6.791716      6.791716   0.000000   0.000000
   32        7.252478      7.252478   0.000000   0.000000
   33        7.512915      7.512915   0.000000   0.000000
   34        7.889759      7.889759   0.000000   0.000000
   35        8.139179      8.139178   0.000000   0.000000
   36        8.320041      8.320041   0.000000   0.000000
   37        9.233061      9.233061   0.000000   0.000000
   38        9.786562      9.786562   0.000000   0.000000
   39       10.356578     10.356578   0.000000   0.000000
   40       10.857951     10.857951   0.000000   0.000000
   41       11.481271     11.481271   0.000000   0.000000
   42       11.882408     11.882408   0.000000   0.000000
   43       12.309985     12.309985   0.000000   0.000000
   44       12.993161     12.993161   0.000000   0.000000
   45       13.494472     13.494472   0.000000   0.000000
   46       14.375790     14.375790   0.000000   0.000000
   47       14.667320     14.667320   0.000000   0.000000
   48       14.993769     14.993770   0.000000   0.000000
 
  0.3742584E-15  0.1258992E-14  0.2000000E+00  0.2222222E-01
    1      -35.197606    -35.197606   1.000000   1.000000
    2      -30.616793    -30.616793   1.000000   1.000000
    3      -30.516993    -30.516993   1.000000   1.000000
    4      -30.377992    -30.377992   1.000000   1.000000
    5      -17.238854    -17.238854   1.000000   1.000000
    6      -17.215164    -17.215164   1.000000   1.000000
    7      -17.187223    -17.187223   1.000000   1.000000
    8       -9.180511     -9.180511   1.000000   1.000000
    9       -7.647172     -7.647172   1.000000   1.000000
   10       -7.440075     -7.440075   1.000000   1.000000
   11       -6.858117     -6.858117   1.000000   1.000000
   12       -5.862837     -5.862837   1.000000   1.000000
   13       -4.265001     -4.265001   1.000000   1.000000
   14       -3.145837     -3.145837   1.000000   1.000000
   15       -2.779440     -2.779440   1.000000   1.000000
   16       -2.654462     -2.654462   1.000000   1.000000
   17       -2.228228     -2.228228   1.000000   1.000000
   18       -1.978763     -1.978763   1.000000   1.000000
   19       -0.151154     -0.151154   1.000000   1.000000
   20        2.665495      2.665495   0.000000   0.000000
   21        3.077736      3.077736   0.000000   0.000000