 running on   32 total cores
 distrk:  each k-point on   32 cores,    1 groups
 distr:  one band on    8 cores,    4 groups
 using from now: INCAR     
 vasp.5.4.4.18Apr17-6-g9f103f2a35 (build Nov 01 2019 12:17:22) complex          
  
 POSCAR found type information on POSCAR  H  Sr H  Nb H 
 POSCAR found :  5 types and      13 ions
 LDA part: xc-table for Pade appr. of Perdew
 generate k-points for:   12    8    6
 POSCAR, INCAR and KPOINTS ok, starting setup
 FFT: planning ...
 WAVECAR not read
 entering main loop
       N       E                     dE             d eps       ncg     rms          rms(c)
DAV:   1     0.173677034589E+03    0.17368E+03   -0.13733E+04 17440   0.776E+02
DAV:   2    -0.386182792719E+02   -0.21230E+03   -0.20795E+03 20776   0.302E+02
DAV:   3    -0.531082855845E+02   -0.14490E+02   -0.14437E+02 26768   0.609E+01
DAV:   4    -0.539235898335E+02   -0.81530E+00   -0.81383E+00 26680   0.122E+01
DAV:   5    -0.539419481991E+02   -0.18358E-01   -0.18356E-01 26492   0.169E+00    0.393E+01
DAV:   6    -0.506908390421E+02    0.32511E+01   -0.90699E+00 24256   0.169E+01    0.174E+01
DAV:   7    -0.499739486284E+02    0.71689E+00   -0.20641E+00 24080   0.638E+00    0.908E+00
DAV:   8    -0.499411475538E+02    0.32801E-01   -0.68650E-01 25712   0.418E+00    0.223E+00
DAV:   9    -0.499329042756E+02    0.82433E-02   -0.77175E-02 21092   0.146E+00    0.362E-01
DAV:  10    -0.499333794423E+02   -0.47517E-03   -0.79345E-03 23920   0.421E-01    0.210E-01
DAV:  11    -0.499338632212E+02   -0.48378E-03   -0.67708E-04 19456   0.153E-01    0.853E-02
DAV:  12    -0.499341760342E+02   -0.31281E-03   -0.41152E-04 16440   0.101E-01    0.273E-02
DAV:  13    -0.499341988078E+02   -0.22774E-04   -0.44970E-05 14944   0.433E-02
   1 F= -.49934199E+02 E0= -.49933383E+02  d E =-.499342E+02
 curvature:   0.00 expect dE= 0.000E+00 dE for cont linesearch  0.000E+00
 trial: gam= 0.00000 g(F)=  0.180E-02 g(S)=  0.546E-03 ort = 0.000E+00 (trialstep = 0.100E+01)
 search vector abs. value=  0.235E-02
 bond charge predicted
       N       E                     dE             d eps       ncg     rms          rms(c)
DAV:   1    -0.499351221023E+02   -0.94607E-03   -0.79437E-02 18388   0.180E+00    0.172E-01
DAV:   2    -0.499351039990E+02    0.18103E-04   -0.39704E-03 20896   0.396E-01    0.911E-02
DAV:   3    -0.499349753936E+02    0.12861E-03   -0.26231E-04 18856   0.989E-02    0.417E-02
DAV:   4    -0.499349606165E+02    0.14777E-04   -0.66785E-05 11408   0.616E-02
   2 F= -.49934961E+02 E0= -.49934146E+02  d E =-.761809E-03
 trial-energy change:   -0.000762  1 .order   -0.000769   -0.002347    0.000810
 step:   0.7434(harm=  0.7434)  dis= 0.00385  next Energy=   -49.935071 (dE=-0.873E-03)
 bond charge predicted
       N       E                     dE             d eps       ncg     rms          rms(c)
DAV:   1    -0.499350819140E+02   -0.10652E-03   -0.53554E-03 17932   0.462E-01    0.469E-02
DAV:   2    -0.499350866907E+02   -0.47768E-05   -0.26662E-04 17780   0.109E-01
   3 F= -.49935087E+02 E0= -.49934272E+02  d E =-.887883E-03
 curvature:  -0.37 expect dE=-0.874E-03 dE for cont linesearch -0.227E-05
 trial: gam= 1.05247 g(F)=  0.192E-02 g(S)=  0.427E-03 ort =-0.120E-03 (trialstep = 0.474E+00)
 search vector abs. value=  0.470E-02
 reached required accuracy - stopping structural energy minimisation
