Automatically generated mesh
      62
Reciprocal lattice
    0.00000000000000    0.00000000000000    0.00000000000000             1
    0.25000000000000    0.00000000000000    0.00000000000000             2
    0.50000000000000    0.00000000000000    0.00000000000000             1
    0.00000000000000    0.20000000000000    0.00000000000000             2
    0.25000000000000    0.20000000000000    0.00000000000000             2
    0.50000000000000    0.20000000000000    0.00000000000000             2
   -0.25000000000000    0.20000000000000    0.00000000000000             2
    0.00000000000000    0.40000000000000    0.00000000000000             2
    0.25000000000000    0.40000000000000    0.00000000000000             2
    0.50000000000000    0.40000000000000    0.00000000000000             2
   -0.25000000000000    0.40000000000000    0.00000000000000             2
    0.00000000000000    0.00000000000000    0.16666666666667             2
    0.25000000000000    0.00000000000000    0.16666666666667             2
    0.50000000000000    0.00000000000000    0.16666666666667             2
   -0.25000000000000    0.00000000000000    0.16666666666667             2
    0.00000000000000    0.20000000000000    0.16666666666667             2
    0.25000000000000    0.20000000000000    0.16666666666667             2
    0.50000000000000    0.20000000000000    0.16666666666667             2
   -0.25000000000000    0.20000000000000    0.16666666666667             2
    0.00000000000000    0.40000000000000    0.16666666666667             2
    0.25000000000000    0.40000000000000    0.16666666666667             2
    0.50000000000000    0.40000000000000    0.16666666666667             2
   -0.25000000000000    0.40000000000000    0.16666666666667             2
    0.00000000000000   -0.40000000000000    0.16666666666667             2
    0.25000000000000   -0.40000000000000    0.16666666666667             2
    0.50000000000000   -0.40000000000000    0.16666666666667             2
   -0.25000000000000   -0.40000000000000    0.16666666666667             2
    0.00000000000000   -0.20000000000000    0.16666666666667             2
    0.25000000000000   -0.20000000000000    0.16666666666667             2
    0.50000000000000   -0.20000000000000    0.16666666666667             2
   -0.25000000000000   -0.20000000000000    0.16666666666667             2
    0.00000000000000    0.00000000000000    0.33333333333333             2
    0.25000000000000    0.00000000000000    0.33333333333333             2
    0.50000000000000    0.00000000000000    0.33333333333333             2
   -0.25000000000000    0.00000000000000    0.33333333333333             2
    0.00000000000000    0.20000000000000    0.33333333333333             2
    0.25000000000000    0.20000000000000    0.33333333333333             2
    0.50000000000000    0.20000000000000    0.33333333333333             2
   -0.25000000000000    0.20000000000000    0.33333333333333             2
    0.00000000000000    0.40000000000000    0.33333333333333             2
    0.25000000000000    0.40000000000000    0.33333333333333             2
    0.50000000000000    0.40000000000000    0.33333333333333             2
   -0.25000000000000    0.40000000000000    0.33333333333333             2
    0.00000000000000   -0.40000000000000    0.33333333333333             2
    0.25000000000000   -0.40000000000000    0.33333333333333             2
    0.50000000000000   -0.40000000000000    0.33333333333333             2
   -0.25000000000000   -0.40000000000000    0.33333333333333             2
    0.00000000000000   -0.20000000000000    0.33333333333333             2
    0.25000000000000   -0.20000000000000    0.33333333333333             2
    0.50000000000000   -0.20000000000000    0.33333333333333             2
   -0.25000000000000   -0.20000000000000    0.33333333333333             2
    0.00000000000000    0.00000000000000    0.50000000000000             1
    0.25000000000000    0.00000000000000    0.50000000000000             2
    0.50000000000000    0.00000000000000    0.50000000000000             1
    0.00000000000000    0.20000000000000    0.50000000000000             2
    0.25000000000000    0.20000000000000    0.50000000000000             2
    0.50000000000000    0.20000000000000    0.50000000000000             2
   -0.25000000000000    0.20000000000000    0.50000000000000             2
    0.00000000000000    0.40000000000000    0.50000000000000             2
    0.25000000000000    0.40000000000000    0.50000000000000             2
    0.50000000000000    0.40000000000000    0.50000000000000             2
   -0.25000000000000    0.40000000000000    0.50000000000000             2
Tetrahedra
       360    0.00138888888889
         2         1         4         5        17
         2         1         2         5        17
         2         1         2        13        17
         2         1         4        16        17
         2         1        12        16        17
         2         1        12        13        17
         2         2         5         6        18
         2         2         3         6        18
         2         2         3        14        18
         2         2         5        17        18
         2         2        13        17        18
         2         2        13        14        18
         2         3         6         7        19
         2         2         3         7        19
         2         2         3        15        19
         2         3         6        18        19
         2         3        14        18        19
         2         3        14        15        19
         2         2         4         7        16
         2         1         2         4        16
         2         1         2        12        16
         2         2         7        16        19
         2         2        15        16        19
         2         2        12        15        16
         2         4         8         9        21
         2         4         5         9        21
         2         4         5        17        21
         2         4         8        20        21
         2         4        16        20        21
         2         4        16        17        21
         2         5         9        10        22
         2         5         6        10        22
         2         5         6        18        22
         2         5         9        21        22
         2         5        17        21        22
         2         5        17        18        22
         2         6        10        11        23
         2         6         7        11        23
         2         6         7        19        23
         2         6        10        22        23
         2         6        18        22        23
         2         6        18        19        23
         2         7         8        11        20
         2         4         7         8        20
         2         4         7        16        20
         2         7        11        20        23
         2         7        19        20        23
         2         7        16        19        20
         2         8         8        11        25
         2         8         9        11        25
         2         8         9        21        25
         2         8         8        24        25
         2         8        20        24        25
         2         8        20        21        25
         2         9        10        11        26
         2         9        10        10        26
         2         9        10        22        26
         2         9        11        25        26
         2         9        21        25        26
         2         9        21        22        26
         2         9        10        10        27
         2         9        10        11        27
         2        10        11        23        27
         2        10        10        26        27
         2        10        22        26        27
         2        10        22        23        27
         2         8         9        11        24
         2         8         8        11        24
         2         8        11        20        24
         2         9        11        24        27
         2        11        23        24        27
         2        11        20        23        24
         2         4         7         8        29
         2         7         8        11        29
         2         8        11        25        29
         2         4         8        28        29
         2         8        24        28        29
         2         8        24        25        29
         2         6         7        11        30
         2         6        10        11        30
         2        10        11        26        30
         2         7        11        29        30
         2        11        25        29        30
         2        11        25        26        30
         2         5         6        10        31
         2         5         9        10        31
         2         9        10        27        31
         2         6        10        30        31
         2        10        26        30        31
         2        10        26        27        31
         2         4         5         9        28
         2         4         8         9        28
         2         8         9        24        28
         2         5         9        28        31
         2         9        27        28        31
         2         9        24        27        28
         2         1         2         4        13
         2         2         4         7        13
         2         4         7        13        29
         2         1         4        12        13
         2         4        12        13        28
         2         4        13        28        29
         2         2         3         7        14
         2         3         6         7        14
         2         6         7        14        30
         2         2         7        13        14
         2         7        13        14        29
         2         7        14        29        30
         2         2         3         6        15
         2         2         5         6        15
         2         5         6        15        31
         2         3         6        14        15
         2         6        14        15        30
         2         6        15        30        31
         2         1         2         5        12
         2         1         4         5        12
         2         4         5        12        28
         2         2         5        12        15
         2         5        12        15        31
         2         5        12        28        31
         2        12        16        17        37
         2        12        13        17        37
         2        12        13        33        37
         2        12        16        36        37
         2        12        32        36        37
         2        12        32        33        37
         2        13        17        18        38
         2        13        14        18        38
         2        13        14        34        38
         2        13        17        37        38
         2        13        33        37        38
         2        13        33        34        38
         2        14        18        19        39
         2        14        15        19        39
         2        14        15        35        39
         2        14        18        38        39
         2        14        34        38        39
         2        14        34        35        39
         2        15        16        19        36
         2        12        15        16        36
         2        12        15        32        36
         2        15        19        36        39
         2        15        35        36        39
         2        15        32        35        36
         2        16        20        21        41
         2        16        17        21        41
         2        16        17        37        41
         2        16        20        40        41
         2        16        36        40        41
         2        16        36        37        41
         2        17        21        22        42
         2        17        18        22        42
         2        17        18        38        42
         2        17        21        41        42
         2        17        37        41        42
         2        17        37        38        42
         2        18        22        23        43
         2        18        19        23        43
         2        18        19        39        43
         2        18        22        42        43
         2        18        38        42        43
         2        18        38        39        43
         2        19        20        23        40
         2        16        19        20        40
         2        16        19        36        40
         2        19        23        40        43
         2        19        39        40        43
         2        19        36        39        40
         2        20        24        25        45
         2        20        21        25        45
         2        20        21        41        45
         2        20        24        44        45
         2        20        40        44        45
         2        20        40        41        45
         2        21        25        26        46
         2        21        22        26        46
         2        21        22        42        46
         2        21        25        45        46
         2        21        41        45        46
         2        21        41        42        46
         2        22        26        27        47
         2        22        23        27        47
         2        22        23        43        47
         2        22        26        46        47
         2        22        42        46        47
         2        22        42        43        47
         2        23        24        27        44
         2        20        23        24        44
         2        20        23        40        44
         2        23        27        44        47
         2        23        43        44        47
         2        23        40        43        44
         2        24        28        29        49
         2        24        25        29        49
         2        24        25        45        49
         2        24        28        48        49
         2        24        44        48        49
         2        24        44        45        49
         2        25        29        30        50
         2        25        26        30        50
         2        25        26        46        50
         2        25        29        49        50
         2        25        45        49        50
         2        25        45        46        50
         2        26        30        31        51
         2        26        27        31        51
         2        26        27        47        51
         2        26        30        50        51
         2        26        46        50        51
         2        26        46        47        51
         2        27        28        31        48
         2        24        27        28        48
         2        24        27        44        48
         2        27        31        48        51
         2        27        47        48        51
         2        27        44        47        48
         2        12        13        28        33
         2        13        28        29        33
         2        28        29        33        49
         2        12        28        32        33
         2        28        32        33        48
         2        28        33        48        49
         2        13        14        29        34
         2        14        29        30        34
         2        29        30        34        50
         2        13        29        33        34
         2        29        33        34        49
         2        29        34        49        50
         2        14        15        30        35
         2        15        30        31        35
         2        30        31        35        51
         2        14        30        34        35
         2        30        34        35        50
         2        30        35        50        51
         2        12        15        31        32
         2        12        28        31        32
         2        28        31        32        48
         2        15        31        32        35
         2        31        32        35        51
         2        31        32        48        51
         2        32        36        37        56
         2        32        33        37        56
         2        32        33        53        56
         2        32        36        55        56
         2        32        52        55        56
         2        32        52        53        56
         2        33        37        38        57
         2        33        34        38        57
         2        33        34        54        57
         2        33        37        56        57
         2        33        53        56        57
         2        33        53        54        57
         2        34        38        39        58
         2        34        35        39        58
         2        34        35        53        58
         2        34        38        57        58
         2        34        54        57        58
         2        34        53        54        58
         2        35        36        39        55
         2        32        35        36        55
         2        32        35        52        55
         2        35        39        55        58
         2        35        53        55        58
         2        35        52        53        55
         2        36        40        41        60
         2        36        37        41        60
         2        36        37        56        60
         2        36        40        59        60
         2        36        55        59        60
         2        36        55        56        60
         2        37        41        42        61
         2        37        38        42        61
         2        37        38        57        61
         2        37        41        60        61
         2        37        56        60        61
         2        37        56        57        61
         2        38        42        43        62
         2        38        39        43        62
         2        38        39        58        62
         2        38        42        61        62
         2        38        57        61        62
         2        38        57        58        62
         2        39        40        43        59
         2        36        39        40        59
         2        36        39        55        59
         2        39        43        59        62
         2        39        58        59        62
         2        39        55        58        59
         2        40        44        45        62
         2        40        41        45        62
         2        40        41        60        62
         2        40        44        59        62
         2        40        59        59        62
         2        40        59        60        62
         2        41        45        46        61
         2        41        42        46        61
         2        41        42        61        61
         2        41        45        61        62
         2        41        60        61        62
         2        41        60        61        61
         2        42        46        47        60
         2        42        43        47        60
         2        42        43        60        62
         2        42        46        60        61
         2        42        60        61        61
         2        42        60        61        62
         2        43        44        47        59
         2        40        43        44        59
         2        40        43        59        59
         2        43        47        59        60
         2        43        59        60        62
         2        43        59        59        62
         2        44        48        49        58
         2        44        45        49        58
         2        44        45        58        62
         2        44        48        55        58
         2        44        55        58        59
         2        44        58        59        62
         2        45        49        50        57
         2        45        46        50        57
         2        45        46        57        61
         2        45        49        57        58
         2        45        57        58        62
         2        45        57        61        62
         2        46        50        51        56
         2        46        47        51        56
         2        46        47        56        60
         2        46        50        56        57
         2        46        56        57        61
         2        46        56        60        61
         2        47        48        51        55
         2        44        47        48        55
         2        44        47        55        59
         2        47        51        55        56
         2        47        55        56        60
         2        47        55        59        60
         2        32        33        48        53
         2        33        48        49        53
         2        48        49        53        58
         2        32        48        52        53
         2        48        52        53        55
         2        48        53        55        58
         2        33        34        49        54
         2        34        49        50        54
         2        49        50        54        57
         2        33        49        53        54
         2        49        53        54        58
         2        49        54        57        58
         2        34        35        50        53
         2        35        50        51        53
         2        50        51        53        56
         2        34        50        53        54
         2        50        53        54        57
         2        50        53        56        57
         2        32        35        51        52
         2        32        48        51        52
         2        48        51        52        55
         2        35        51        52        53
         2        51        52        53        56
         2        51        52        55        56
