   22   22   60    1
  0.7383173E+01  0.3784689E-09  0.6218964E-09  0.7221025E-09  0.5000000E-15
  1.000000000000000E-004
  CAR 
 unknown system                          
     41    232     32
 
  0.3742002E-15  0.3742002E-15  0.3742002E-15  0.2164502E-02
    1      -34.751619   1.000000
    2      -30.273837   1.000000
    3      -30.144932   1.000000
    4      -30.095996   1.000000
    5      -16.951674   1.000000
    6      -16.768876   1.000000
    7      -16.626034   1.000000
    8       -9.711718   1.000000
    9       -7.982428   1.000000
   10       -7.502856   1.000000
   11       -6.575235   1.000000
   12       -6.325660   1.000000
   13       -5.831866   1.000000
   14       -5.242383   1.000000
   15       -4.578334   1.000000
   16       -3.711140   1.000000
   17       -2.962061   1.000000
   18       -2.437309   1.000000
   19       -1.979524   1.000000
   20       -0.356579   1.000000
   21        1.488758   0.000000
   22        2.756037   0.000000
   23        2.884017   0.000000
   24        3.684155   0.000000
   25        3.955180   0.000000
   26        4.491729   0.000000
   27        5.168274   0.000000
   28        5.469000   0.000000
   29        5.724461   0.000000
   30        6.046023   0.000000
   31        6.529170   0.000000
   32        7.161924   0.000000
 
  0.9090909E-01  0.3584372E-15  0.3625572E-15  0.4329004E-02
    1      -34.748566   1.000000
    2      -30.273145   1.000000
    3      -30.144082   1.000000
    4      -30.105199   1.000000
    5      -16.943834   1.000000
    6      -16.763587   1.000000
    7      -16.673277   1.000000
    8       -9.642260   1.000000
    9       -7.956827   1.000000
   10       -7.463420   1.000000
   11       -6.543915   1.000000
   12       -6.277476   1.000000
   13       -5.836400   1.000000
   14       -5.269754   1.000000
   15       -4.542288   1.000000
   16       -3.709950   1.000000
   17       -2.975667   1.000000
   18       -2.452951   1.000000
   19       -2.020430   1.000000
   20       -0.549401   1.000000
   21        1.348351   0.000000
   22        2.802523   0.000000
   23        2.974165   0.000000
   24        3.630319   0.000000
   25        4.065377   0.000000
   26        4.369723   0.000000
   27        5.044557   0.000000
   28        5.492984   0.000000
   29        5.689050   0.000000
   30        5.887582   0.000000
   31        6.645841   0.000000
   32        6.984584   0.000000
 
  0.1818182E+00  0.3582204E-15  0.3781697E-15  0.4329004E-02
    1      -34.740342   1.000000
    2      -30.271301   1.000000
    3      -30.142144   1.000000
    4      -30.129302   1.000000
    5      -16.922878   1.000000
    6      -16.800783   1.000000
    7      -16.745235   1.000000
    8       -9.438869   1.000000
    9       -7.885267   1.000000
   10       -7.365040   1.000000
   11       -6.457372   1.000000
   12       -6.172391   1.000000
   13       -5.836151   1.000000
   14       -5.354966   1.000000
   15       -4.452661   1.000000
   16       -3.673865   1.000000
   17       -3.008283   1.000000
   18       -2.493633   1.000000
   19       -2.133511   1.000000
   20       -0.968322   1.000000
   21        1.014443   0.000001
   22        2.879622   0.000000
   23        3.091391   0.000000
   24        3.556143   0.000000
   25        3.970224   0.000000
   26        4.531181   0.000000
   27        4.861897   0.000000
   28        5.236502   0.000000
   29        5.602879   0.000000
   30        5.765075   0.000000
   31        6.513782   0.000000
   32        6.840943   0.000000
 
  0.2727273E+00  0.3677614E-15  0.3955170E-15  0.4329004E-02
    1      -34.729522   1.000000
    2      -30.269065   1.000000
    3      -30.162734   1.000000
    4      -30.137216   1.000000
    5      -16.959202   1.000000
    6      -16.892370   1.000000
    7      -16.725935   1.000000
    8       -9.123526   1.000000
    9       -7.788097   1.000000
   10       -7.255031   1.000000
   11       -6.351716   1.000000
   12       -6.169671   1.000000
   13       -5.754749   1.000000
   14       -5.493346   1.000000
   15       -4.329443   1.000000
   16       -3.544585   1.000000
   17       -3.063653   1.000000
   18       -2.571090   1.000000
   19       -2.263472   1.000000
   20       -1.395873   1.000000
   21        0.648922   0.171813
   22        2.903824   0.000000
   23        3.064629   0.000000
   24        3.395374   0.000000
   25        4.204424   0.000000
   26        4.334350   0.000000
   27        4.790683   0.000000
   28        5.056824   0.000000
   29        5.372235   0.000000
   30        5.725273   0.000000
   31        6.335849   0.000000
   32        6.671705   0.000000
 
  0.3636364E+00  0.3512815E-15  0.3677614E-15  0.4329004E-02
    1      -34.719544   1.000000
    2      -30.267541   1.000000
    3      -30.191067   1.000000
    4      -30.134228   1.000000
    5      -17.096952   1.000000
    6      -16.867291   1.000000
    7      -16.706756   1.000000
    8       -8.739319   1.000000
    9       -7.696283   1.000000
   10       -7.229059   1.000000
   11       -6.369881   1.000000
   12       -6.165790   1.000000
   13       -5.697468   1.000000
   14       -5.584763   1.000000
   15       -4.140382   1.000000
   16       -3.361018   1.000000
   17       -3.152701   1.000000
   18       -2.676485   1.000000
   19       -2.328883   1.000000
   20       -1.755310   1.000000
   21        0.367254   0.997784
   22        2.866283   0.000000
   23        3.038171   0.000000
   24        3.439175   0.000000
   25        3.857193   0.000000
   26        4.297241   0.000000
   27        4.530215   0.000000
   28        5.118330   0.000000
   29        5.318048   0.000000
   30        5.814781   0.000000
   31        6.131395   0.000000
   32        6.372131   0.000000
 
  0.4545455E+00  0.3478121E-15  0.3608225E-15  0.4329004E-02
    1      -34.713595   1.000000
    2      -30.267186   1.000000
    3      -30.207567   1.000000
    4      -30.132338   1.000000
    5      -17.177289   1.000000
    6      -16.851750   1.000000
    7      -16.695294   1.000000
    8       -8.399507   1.000000
    9       -7.652974   1.000000
   10       -7.352052   1.000000
   11       -6.414972   1.000000
   12       -6.097054   1.000000
   13       -5.825083   1.000000
   14       -5.522108   1.000000
   15       -3.947731   1.000000
   16       -3.292844   1.000000
   17       -3.172441   1.000000
   18       -2.754283   1.000000
   19       -2.348058   1.000000
   20       -1.990924   1.000000
   21        0.219015   0.999999
   22        2.924065   0.000000
   23        3.031343   0.000000
   24        3.426048   0.000000
   25        3.743857   0.000000
   26        4.109419   0.000000
   27        4.329819   0.000000
   28        4.900406   0.000000
   29        5.416639   0.000000
   30        5.755117   0.000000
   31        6.118268   0.000000
   32        6.503217   0.000000
 
  0.3743750E-15  0.1428571E+00  0.3608225E-15  0.4329004E-02
    1      -34.751805   1.000000
    2      -30.273781   1.000000
    3      -30.144605   1.000000
    4      -30.095972   1.000000
    5      -16.951629   1.000000
    6      -16.773258   1.000000
    7      -16.626373   1.000000
    8       -9.650500   1.000000
    9       -8.015935   1.000000
   10       -7.655326   1.000000
   11       -6.579732   1.000000
   12       -6.257628   1.000000
   13       -5.730710   1.000000
   14       -5.215719   1.000000
   15       -4.630356   1.000000
   16       -3.673242   1.000000
   17       -2.948650   1.000000
   18       -2.463465   1.000000
   19       -2.049525   1.000000
   20       -0.349969   1.000000
   21        1.497595   0.000000
   22        2.656954   0.000000
   23        3.029702   0.000000
   24        3.671226   0.000000
   25        3.955503   0.000000
   26        4.527830   0.000000
   27        5.175134   0.000000
   28        5.478091   0.000000
   29        5.758164   0.000000
   30        6.047330   0.000000
   31        6.604050   0.000000
   32        7.019573   0.000000
 
  0.9090909E-01  0.1428571E+00  0.3469447E-15  0.4329004E-02
    1      -34.748597   1.000000
    2      -30.273161   1.000000
    3      -30.144001   1.000000
    4      -30.105279   1.000000
    5      -16.943837   1.000000
    6      -16.765481   1.000000
    7      -16.672295   1.000000
    8       -9.598285   1.000000
    9       -7.980653   1.000000
   10       -7.575529   1.000000
   11       -6.549804   1.000000
   12       -6.223063   1.000000
   13       -5.779667   1.000000
   14       -5.239064   1.000000
   15       -4.555029   1.000000
   16       -3.702155   1.000000
   17       -2.963294   1.000000
   18       -2.487894   1.000000
   19       -2.073534   1.000000
   20       -0.544477   1.000000
   21        1.337505   0.000000
   22        2.808378   0.000000
   23        3.064053   0.000000
   24        3.629285   0.000000
   25        3.988562   0.000000
   26        4.432845   0.000000
   27        5.010163   0.000000
   28        5.451362   0.000000
   29        5.697717   0.000000
   30        5.954438   0.000000
   31        6.642815   0.000000
   32        6.888459   0.000000
 
  0.1818182E+00  0.1428571E+00  0.3608225E-15  0.4329004E-02
    1      -34.740221   1.000000
    2      -30.271309   1.000000
    3      -30.142434   1.000000
    4      -30.129414   1.000000
    5      -16.922917   1.000000
    6      -16.800501   1.000000
    7      -16.742711   1.000000
    8       -9.414472   1.000000
    9       -7.900479   1.000000
   10       -7.421664   1.000000
   11       -6.478643   1.000000
   12       -6.130977   1.000000
   13       -5.814805   1.000000
   14       -5.332525   1.000000
   15       -4.426126   1.000000
   16       -3.697043   1.000000
   17       -3.002994   1.000000
   18       -2.526330   1.000000
   19       -2.168773   1.000000
   20       -0.953521   1.000000
   21        0.983692   0.000007
   22        2.934460   0.000000
   23        3.108564   0.000000
   24        3.614988   0.000000
   25        3.828935   0.000000
   26        4.631051   0.000000
   27        4.845020   0.000000
   28        5.161123   0.000000
   29        5.538273   0.000000
   30        5.791106   0.000000
   31        6.540431   0.000000
   32        6.882117   0.000000
 
  0.2727273E+00  0.1428571E+00  0.3608225E-15  0.4329004E-02
    1      -34.729317   1.000000
    2      -30.269092   1.000000
    3      -30.162955   1.000000
    4      -30.137729   1.000000
    5      -16.957585   1.000000
    6      -16.892384   1.000000
    7      -16.722592   1.000000
    8       -9.116878   1.000000
    9       -7.800318   1.000000
   10       -7.252283   1.000000
   11       -6.414816   1.000000
   12       -6.106981   1.000000
   13       -5.757839   1.000000
   14       -5.506276   1.000000
   15       -4.294228   1.000000
   16       -3.582275   1.000000
   17       -3.060036   1.000000
   18       -2.601527   1.000000
   19       -2.279827   1.000000
   20       -1.347782   1.000000
   21        0.589662   0.755620
   22        2.819568   0.000000
   23        3.226642   0.000000
   24        3.384955   0.000000
   25        4.037276   0.000000
   26        4.411984   0.000000
   27        4.714409   0.000000
   28        5.139890   0.000000
   29        5.190340   0.000000
   30        5.871016   0.000000
   31        6.356186   0.000000
   32        6.718676   0.000000
 
  0.3636364E+00  0.1428571E+00  0.3747003E-15  0.4329004E-02
    1      -34.719327   1.000000
    2      -30.267590   1.000000
    3      -30.191331   1.000000
    4      -30.134825   1.000000
    5      -17.095071   1.000000
    6      -16.867455   1.000000
    7      -16.703338   1.000000
    8       -8.745678   1.000000
    9       -7.710056   1.000000
   10       -7.182973   1.000000
   11       -6.399787   1.000000
   12       -6.116389   1.000000
   13       -5.851240   1.000000
   14       -5.515788   1.000000
   15       -4.144745   1.000000
   16       -3.400958   1.000000
   17       -3.143870   1.000000
   18       -2.693273   1.000000
   19       -2.325467   1.000000
   20       -1.668797   1.000000
   21        0.283401   0.999940
   22        2.740274   0.000000
   23        3.173303   0.000000
   24        3.444406   0.000000
   25        3.824214   0.000000
   26        4.229277   0.000000
   27        4.460714   0.000000
   28        5.129073   0.000000
   29        5.373486   0.000000
   30        5.815899   0.000000
   31        6.202881   0.000000
   32        6.539574   0.000000
 
  0.4545455E+00  0.1428571E+00  0.3608225E-15  0.4329004E-02
    1      -34.713449   1.000000
    2      -30.267163   1.000000
    3      -30.207661   1.000000
    4      -30.132743   1.000000
    5      -17.175465   1.000000
    6      -16.851805   1.000000
    7      -16.693154   1.000000
    8       -8.400933   1.000000
    9       -7.661728   1.000000
   10       -7.290927   1.000000
   11       -6.443463   1.000000
   12       -6.077106   1.000000
   13       -6.001719   1.000000
   14       -5.412350   1.000000
   15       -3.984035   1.000000
   16       -3.335905   1.000000
   17       -3.150596   1.000000
   18       -2.720975   1.000000
   19       -2.341710   1.000000
   20       -1.918539   1.000000
   21        0.137987   1.000000
   22        2.820035   0.000000
   23        3.067012   0.000000
   24        3.477265   0.000000
   25        3.743560   0.000000
   26        4.052221   0.000000
   27        4.336363   0.000000
   28        5.064558   0.000000
   29        5.393530   0.000000
   30        5.863330   0.000000
   31        6.025575   0.000000
   32        6.517087   0.000000
 
 -0.4545455E+00  0.1428571E+00  0.3816392E-15  0.4329004E-02
    1      -34.713597   1.000000
    2      -30.267221   1.000000
    3      -30.207689   1.000000
    4      -30.132431   1.000000
    5      -17.176138   1.000000
    6      -16.851771   1.000000
    7      -16.695845   1.000000
    8       -8.355514   1.000000
    9       -7.653548   1.000000
   10       -7.357848   1.000000
   11       -6.550795   1.000000
   12       -6.115923   1.000000
   13       -5.886961   1.000000
   14       -5.373924   1.000000
   15       -3.947036   1.000000
   16       -3.352688   1.000000
   17       -3.114528   1.000000
   18       -2.736276   1.000000
   19       -2.339772   1.000000
   20       -1.985949   1.000000
   21        0.165839   1.000000
   22        2.950808   0.000000
   23        2.983643   0.000000
   24        3.459361   0.000000
   25        3.734345   0.000000
   26        4.206115   0.000000
   27        4.416966   0.000000
   28        4.887851   0.000000
   29        5.478883   0.000000
   30        5.756733   0.000000
   31        6.060985   0.000000
   32        6.516440   0.000000
 
 -0.3636364E+00  0.1428571E+00  0.3764350E-15  0.4329004E-02
    1      -34.719702   1.000000
    2      -30.267609   1.000000
    3      -30.191143   1.000000
    4      -30.133943   1.000000
    5      -17.096430   1.000000
    6      -16.867131   1.000000
    7      -16.710448   1.000000
    8       -8.657819   1.000000
    9       -7.713798   1.000000
   10       -7.338434   1.000000
   11       -6.501804   1.000000
   12       -6.166369   1.000000
   13       -5.733992   1.000000
   14       -5.386019   1.000000
   15       -4.112515   1.000000
   16       -3.366679   1.000000
   17       -3.156995   1.000000
   18       -2.672961   1.000000
   19       -2.320997   1.000000
   20       -1.791720   1.000000
   21        0.345700   0.998922
   22        2.925139   0.000000
   23        3.035256   0.000000
   24        3.538448   0.000000
   25        3.790234   0.000000
   26        4.407902   0.000000
   27        4.700359   0.000000
   28        4.995195   0.000000
   29        5.496101   0.000000
   30        5.770320   0.000000
   31        5.979522   0.000000
   32        6.503424   0.000000
 
 -0.2727273E+00  0.1428571E+00  0.3994201E-15  0.4329004E-02
    1      -34.729782   1.000000
    2      -30.268961   1.000000
    3      -30.162552   1.000000
    4      -30.136642   1.000000
    5      -16.959191   1.000000
    6      -16.892061   1.000000
    7      -16.731967   1.000000
    8       -9.029431   1.000000
    9       -7.823101   1.000000
   10       -7.434283   1.000000
   11       -6.396256   1.000000
   12       -6.160381   1.000000
   13       -5.664373   1.000000
   14       -5.375830   1.000000
   15       -4.359101   1.000000
   16       -3.486090   1.000000
   17       -3.097848   1.000000
   18       -2.550275   1.000000
   19       -2.294073   1.000000
   20       -1.426975   1.000000
   21        0.647135   0.186369
   22        2.979153   0.000000
   23        3.067997   0.000000
   24        3.434387   0.000000
   25        4.222045   0.000000
   26        4.431213   0.000000
   27        4.890108   0.000000
   28        5.187206   0.000000
   29        5.466818   0.000000
   30        5.740533   0.000000
   31        6.033771   0.000000
   32        6.578887   0.000000
 
 -0.1818182E+00  0.1428571E+00  0.3642919E-15  0.4329004E-02
    1      -34.740655   1.000000
    2      -30.271147   1.000000
    3      -30.141357   1.000000
    4      -30.129216   1.000000
    5      -16.922614   1.000000
    6      -16.800626   1.000000
    7      -16.753019   1.000000
    8       -9.347757   1.000000
    9       -7.930026   1.000000
   10       -7.559150   1.000000
   11       -6.460414   1.000000
   12       -6.144865   1.000000
   13       -5.671019   1.000000
   14       -5.301716   1.000000
   15       -4.544907   1.000000
   16       -3.593803   1.000000
   17       -3.018010   1.000000
   18       -2.477462   1.000000
   19       -2.204502   1.000000
   20       -0.978442   1.000000
   21        1.022180   0.000000
   22        2.886815   0.000000
   23        3.083152   0.000000
   24        3.542736   0.000000
   25        4.248976   0.000000
   26        4.541707   0.000000
   27        4.904556   0.000000
   28        5.266885   0.000000
   29        5.633050   0.000000
   30        5.850945   0.000000
   31        6.241966   0.000000
   32        6.697579   0.000000
 
 -0.9090909E-01  0.1428571E+00  0.3677614E-15  0.4329004E-02
    1      -34.748849   1.000000
    2      -30.273064   1.000000
    3      -30.143425   1.000000
    4      -30.105112   1.000000
    5      -16.943660   1.000000
    6      -16.769443   1.000000
    7      -16.674534   1.000000
    8       -9.562241   1.000000
    9       -7.999299   1.000000
   10       -7.645547   1.000000
   11       -6.543464   1.000000
   12       -6.216944   1.000000
   13       -5.689476   1.000000
   14       -5.234817   1.000000
   15       -4.631438   1.000000
   16       -3.643998   1.000000
   17       -2.967133   1.000000
   18       -2.458642   1.000000
   19       -2.099631   1.000000
   20       -0.545319   1.000000
   21        1.363969   0.000000
   22        2.701321   0.000000
   23        3.059361   0.000000
   24        3.641595   0.000000
   25        4.134785   0.000000
   26        4.463315   0.000000
   27        5.131558   0.000000
   28        5.417987   0.000000
   29        5.731530   0.000000
   30        5.979227   0.000000
   31        6.484464   0.000000
   32        6.871246   0.000000
 
  0.3744834E-15  0.2857143E+00  0.3469447E-15  0.4329004E-02
    1      -34.752202   1.000000
    2      -30.273664   1.000000
    3      -30.143637   1.000000
    4      -30.095974   1.000000
    5      -16.951502   1.000000
    6      -16.782797   1.000000
    7      -16.627087   1.000000
    8       -9.473872   1.000000
    9       -8.261549   1.000000
   10       -7.786070   1.000000
   11       -6.558722   1.000000
   12       -6.226767   1.000000
   13       -5.448822   1.000000
   14       -5.154420   1.000000
   15       -4.767021   1.000000
   16       -3.603539   1.000000
   17       -2.907889   1.000000
   18       -2.527717   1.000000
   19       -2.201796   1.000000
   20       -0.333110   1.000000
   21        1.515589   0.000000
   22        2.568313   0.000000
   23        3.240528   0.000000
   24        3.686686   0.000000
   25        3.927891   0.000000
   26        4.543422   0.000000
   27        5.275101   0.000000
   28        5.473376   0.000000
   29        5.786408   0.000000
   30        6.093256   0.000000
   31        6.638819   0.000000
   32        6.894188   0.000000
 
  0.9090909E-01  0.2857143E+00  0.3330669E-15  0.4329004E-02
    1      -34.748921   1.000000
    2      -30.273027   1.000000
    3      -30.143288   1.000000
    4      -30.105281   1.000000
    5      -16.943666   1.000000
    6      -16.773581   1.000000
    7      -16.672467   1.000000
    8       -9.441510   1.000000
    9       -8.171195   1.000000
   10       -7.743428   1.000000
   11       -6.534959   1.000000
   12       -6.194649   1.000000
   13       -5.526549   1.000000
   14       -5.172264   1.000000
   15       -4.669767   1.000000
   16       -3.632715   1.000000
   17       -2.929017   1.000000
   18       -2.569458   1.000000
   19       -2.192985   1.000000
   20       -0.536051   1.000000
   21        1.335092   0.000000
   22        2.776241   0.000000
   23        3.236665   0.000000
   24        3.655525   0.000000
   25        3.940430   0.000000
   26        4.443660   0.000000
   27        5.135582   0.000000
   28        5.438776   0.000000
   29        5.807146   0.000000
   30        5.969298   0.000000
   31        6.585797   0.000000
   32        6.865308   0.000000
 
  0.1818182E+00  0.2857143E+00  0.3469447E-15  0.4329004E-02
    1      -34.740405   1.000000
    2      -30.271287   1.000000
    3      -30.141960   1.000000
    4      -30.129498   1.000000
    5      -16.922844   1.000000
    6      -16.799987   1.000000
    7      -16.747285   1.000000
    8       -9.279252   1.000000
    9       -8.024487   1.000000
   10       -7.615169   1.000000
   11       -6.485598   1.000000
   12       -6.121834   1.000000
   13       -5.603828   1.000000
   14       -5.261364   1.000000
   15       -4.491748   1.000000
   16       -3.642614   1.000000
   17       -2.992730   1.000000
   18       -2.601359   1.000000
   19       -2.234076   1.000000
   20       -0.960119   1.000000
   21        0.962258   0.000025
   22        2.970236   0.000000
   23        3.149563   0.000000
   24        3.674237   0.000000
   25        3.873022   0.000000
   26        4.649433   0.000000
   27        4.898808   0.000000
   28        5.266078   0.000000
   29        5.522767   0.000000
   30        5.920902   0.000000
   31        6.303709   0.000000
   32        6.786980   0.000000
 
  0.2727273E+00  0.2857143E+00  0.3608225E-15  0.4329004E-02
    1      -34.729328   1.000000
    2      -30.269123   1.000000
    3      -30.163069   1.000000
    4      -30.137622   1.000000
    5      -16.955634   1.000000
    6      -16.892111   1.000000
    7      -16.724124   1.000000
    8       -9.008614   1.000000
    9       -7.869050   1.000000
   10       -7.419467   1.000000
   11       -6.456408   1.000000
   12       -6.097441   1.000000
   13       -5.692219   1.000000
   14       -5.386171   1.000000
   15       -4.279729   1.000000
   16       -3.573352   1.000000
   17       -3.085664   1.000000
   18       -2.636488   1.000000
   19       -2.286159   1.000000
   20       -1.355706   1.000000
   21        0.537920   1.036664
   22        2.785594   0.000000
   23        3.282791   0.000000
   24        3.539241   0.000000
   25        3.991349   0.000000
   26        4.441460   0.000000
   27        4.788096   0.000000
   28        5.038077   0.000000
   29        5.410749   0.000000
   30        5.968343   0.000000
   31        6.232977   0.000000
   32        6.583234   0.000000
 
  0.3636364E+00  0.2857143E+00  0.3330669E-15  0.4329004E-02
    1      -34.719201   1.000000
    2      -30.267599   1.000000
    3      -30.191634   1.000000
    4      -30.135043   1.000000
    5      -17.092123   1.000000
    6      -16.867379   1.000000
    7      -16.702151   1.000000
    8       -8.669133   1.000000
    9       -7.743272   1.000000
   10       -7.233556   1.000000
   11       -6.485491   1.000000
   12       -6.163205   1.000000
   13       -5.916523   1.000000
   14       -5.341422   1.000000
   15       -4.124225   1.000000
   16       -3.426798   1.000000
   17       -3.146598   1.000000
   18       -2.700285   1.000000
   19       -2.288489   1.000000
   20       -1.642711   1.000000
   21        0.182018   1.000000
   22        2.674592   0.000000
   23        3.250212   0.000000
   24        3.584426   0.000000
   25        3.808287   0.000000
   26        4.168655   0.000000
   27        4.491238   0.000000
   28        5.080707   0.000000
   29        5.559819   0.000000
   30        5.883253   0.000000
   31        6.264213   0.000000
   32        6.689687   0.000000
 
  0.4545455E+00  0.2857143E+00  0.3608225E-15  0.4329004E-02
    1      -34.713268   1.000000
    2      -30.267228   1.000000
    3      -30.207964   1.000000
    4      -30.133163   1.000000
    5      -17.172052   1.000000
    6      -16.851895   1.000000
    7      -16.690722   1.000000
    8       -8.355809   1.000000
    9       -7.672899   1.000000
   10       -7.202875   1.000000
   11       -6.562901   1.000000
   12       -6.305543   1.000000
   13       -5.991973   1.000000
   14       -5.250301   1.000000
   15       -4.024236   1.000000
   16       -3.408770   1.000000
   17       -3.056129   1.000000
   18       -2.709538   1.000000
   19       -2.296505   1.000000
   20       -1.854778   1.000000
   21       -0.001848   1.000000
   22        2.728917   0.000000
   23        3.123375   0.000000
   24        3.496697   0.000000
   25        3.819093   0.000000
   26        4.056496   0.000000
   27        4.349558   0.000000
   28        5.095523   0.000000
   29        5.565321   0.000000
   30        5.818049   0.000000
   31        6.108847   0.000000
   32        6.771452   0.000000
 
 -0.4545455E+00  0.2857143E+00  0.3434752E-15  0.4329004E-02
    1      -34.713448   1.000000
    2      -30.267316   1.000000
    3      -30.207921   1.000000
    4      -30.132722   1.000000
    5      -17.172876   1.000000
    6      -16.851777   1.000000
    7      -16.693980   1.000000
    8       -8.290702   1.000000
    9       -7.670652   1.000000
   10       -7.291588   1.000000
   11       -6.714195   1.000000
   12       -6.224753   1.000000
   13       -5.943702   1.000000
   14       -5.208674   1.000000
   15       -3.984800   1.000000
   16       -3.424731   1.000000
   17       -3.033055   1.000000
   18       -2.685618   1.000000
   19       -2.314140   1.000000
   20       -1.938364   1.000000
   21        0.033545   1.000000
   22        2.824649   0.000000
   23        3.035541   0.000000
   24        3.505179   0.000000
   25        3.832393   0.000000
   26        4.213539   0.000000
   27        4.480721   0.000000
   28        5.005672   0.000000
   29        5.564577   0.000000
   30        5.871589   0.000000
   31        5.951579   0.000000
   32        6.546309   0.000000
 
 -0.3636364E+00  0.2857143E+00  0.3400058E-15  0.4329004E-02
    1      -34.719662   1.000000
    2      -30.267565   1.000000
    3      -30.191285   1.000000
    4      -30.133971   1.000000
    5      -17.093792   1.000000
    6      -16.866955   1.000000
    7      -16.711029   1.000000
    8       -8.523459   1.000000
    9       -7.807437   1.000000
   10       -7.410726   1.000000
   11       -6.581091   1.000000
   12       -6.197094   1.000000
   13       -5.786219   1.000000
   14       -5.202618   1.000000
   15       -4.086824   1.000000
   16       -3.423441   1.000000
   17       -3.142822   1.000000
   18       -2.624549   1.000000
   19       -2.348809   1.000000
   20       -1.759602   1.000000
   21        0.251083   0.999991
   22        2.852327   0.000000
   23        3.098172   0.000000
   24        3.707679   0.000000
   25        3.800975   0.000000
   26        4.479879   0.000000
   27        4.796206   0.000000
   28        4.966418   0.000000
   29        5.522727   0.000000
   30        5.908233   0.000000
   31        6.016413   0.000000
   32        6.339397   0.000000
 
 -0.2727273E+00  0.2857143E+00  0.3677614E-15  0.4329004E-02
    1      -34.729919   1.000000
    2      -30.268948   1.000000
    3      -30.162591   1.000000
    4      -30.136396   1.000000
    5      -16.957607   1.000000
    6      -16.891717   1.000000
    7      -16.736063   1.000000
    8       -8.856007   1.000000
    9       -8.013187   1.000000
   10       -7.543857   1.000000
   11       -6.443736   1.000000
   12       -6.159587   1.000000
   13       -5.608566   1.000000
   14       -5.204094   1.000000
   15       -4.378205   1.000000
   16       -3.471507   1.000000
   17       -3.111113   1.000000
   18       -2.534930   1.000000
   19       -2.384213   1.000000
   20       -1.407626   1.000000
   21        0.590738   0.745793
   22        2.938916   0.000000
   23        3.202621   0.000000
   24        3.591181   0.000000
   25        4.190343   0.000000
   26        4.482474   0.000000
   27        5.067372   0.000000
   28        5.192718   0.000000
   29        5.466950   0.000000
   30        5.764443   0.000000
   31        6.026790   0.000000
   32        6.352895   0.000000
 
 -0.1818182E+00  0.2857143E+00  0.3608225E-15  0.4329004E-02
    1      -34.740945   1.000000
    2      -30.271121   1.000000
    3      -30.140605   1.000000
    4      -30.129249   1.000000
    5      -16.922443   1.000000
    6      -16.800018   1.000000
    7      -16.760155   1.000000
    8       -9.159652   1.000000
    9       -8.180968   1.000000
   10       -7.664634   1.000000
   11       -6.480104   1.000000
   12       -6.128379   1.000000
   13       -5.456292   1.000000
   14       -5.184087   1.000000
   15       -4.664687   1.000000
   16       -3.527323   1.000000
   17       -3.011900   1.000000
   18       -2.494440   1.000000
   19       -2.340533   1.000000