   15   15   60    1
  0.1001542E+02  0.5086595E-09  0.4982341E-09  0.6355644E-09  0.5000000E-15
  1.000000000000000E-004
  CAR 
 unknown system                          
     43    226     32
 
  0.3742002E-15  0.3742002E-15  0.3742002E-15  0.2232143E-02
    1      -33.553661   1.000000
    2      -33.428237   1.000000
    3      -29.354209   1.000000
    4      -29.134042   1.000000
    5      -29.059730   1.000000
    6      -15.720486   1.000000
    7      -15.692034   1.000000
    8      -15.672389   1.000000
    9      -15.492247   1.000000
   10      -15.448334   1.000000
   11      -15.423866   1.000000
   12       -7.899463   1.000000
   13       -5.726409   1.000000
   14       -4.720305   1.000000
   15       -3.089996   1.000000
   16       -2.151609   1.000000
   17       -2.102267   1.000000
   18       -1.756312   1.000000
   19       -1.416074   1.000000
   20       -0.955575   1.000000
   21       -0.585605   1.000000
   22        2.370205   0.842104
   23        3.434947   0.000000
   24        3.705621   0.000000
   25        4.164905   0.000000
   26        4.818595   0.000000
   27        5.013883   0.000000
   28        5.568560   0.000000
   29        6.061386   0.000000
   30        6.148632   0.000000
   31        7.003042   0.000000
   32        7.103362   0.000000
 
  0.1250000E+00  0.3734534E-15  0.3677614E-15  0.4464286E-02
    1      -33.553570   1.000000
    2      -33.428256   1.000000
    3      -29.353994   1.000000
    4      -29.134059   1.000000
    5      -29.059839   1.000000
    6      -15.721190   1.000000
    7      -15.690308   1.000000
    8      -15.675080   1.000000
    9      -15.495341   1.000000
   10      -15.452800   1.000000
   11      -15.425918   1.000000
   12       -7.839481   1.000000
   13       -5.765786   1.000000
   14       -4.639420   1.000000
   15       -3.076721   1.000000
   16       -2.173031   1.000000
   17       -2.116743   1.000000
   18       -1.779321   1.000000
   19       -1.406068   1.000000
   20       -1.025247   1.000000
   21       -0.635900   1.000000
   22        2.402451   0.535729
   23        3.444741   0.000000
   24        3.670915   0.000000
   25        4.366595   0.000000
   26        4.844975   0.000000
   27        5.168408   0.000000
   28        5.255086   0.000000
   29        6.029199   0.000000
   30        6.199885   0.000000
   31        6.946784   0.000000
   32        7.120627   0.000000
 
  0.2500000E+00  0.3736161E-15  0.3608225E-15  0.4464286E-02
    1      -33.553364   1.000000
    2      -33.428317   1.000000
    3      -29.353720   1.000000
    4      -29.134185   1.000000
    5      -29.059972   1.000000
    6      -15.726260   1.000000
    7      -15.687452   1.000000
    8      -15.678383   1.000000
    9      -15.501638   1.000000
   10      -15.464707   1.000000
   11      -15.430078   1.000000
   12       -7.689470   1.000000
   13       -5.858724   1.000000
   14       -4.424841   1.000000
   15       -3.084962   1.000000
   16       -2.209019   1.000000
   17       -2.179468   1.000000
   18       -1.812834   1.000000
   19       -1.482562   1.000000
   20       -1.072134   1.000000
   21       -0.754075   1.000000
   22        2.414202   0.411929
   23        3.560775   0.000000
   24        3.724785   0.000000
   25        4.585255   0.000000
   26        4.658404   0.000000
   27        5.065906   0.000000
   28        5.427000   0.000000
   29        5.914440   0.000000
   30        6.318722   0.000000
   31        6.793085   0.000000
   32        7.130616   0.000000
 
  0.3750000E+00  0.3710140E-15  0.3330669E-15  0.4464286E-02
    1      -33.553157   1.000000
    2      -33.428381   1.000000
    3      -29.353493   1.000000
    4      -29.134252   1.000000
    5      -29.060164   1.000000
    6      -15.735314   1.000000
    7      -15.686154   1.000000
    8      -15.677536   1.000000
    9      -15.503429   1.000000
   10      -15.479671   1.000000
   11      -15.433614   1.000000
   12       -7.529550   1.000000
   13       -5.952135   1.000000
   14       -4.126862   1.000000
   15       -3.216324   1.000000
   16       -2.294887   1.000000
   17       -2.182815   1.000000
   18       -1.825338   1.000000
   19       -1.635206   1.000000
   20       -1.001657   1.000000
   21       -0.871872   1.000000
   22        2.365560   0.876712
   23        3.616432   0.000000
   24        3.980196   0.000000
   25        4.348532   0.000000
   26        4.698523   0.000000
   27        5.062165   0.000000
   28        5.678553   0.000000
   29        5.855386   0.000000
   30        6.220760   0.000000
   31        6.512139   0.000000
   32        7.014617   0.000000
 
  0.5000000E+00  0.3692793E-15  0.3330669E-15  0.2232143E-02
    1      -33.553064   1.000000
    2      -33.428403   1.000000
    3      -29.353374   1.000000
    4      -29.134190   1.000000
    5      -29.060164   1.000000
    6      -15.739921   1.000000
    7      -15.685551   1.000000
    8      -15.676704   1.000000
    9      -15.498886   1.000000
   10      -15.490263   1.000000
   11      -15.434975   1.000000
   12       -7.457753   1.000000
   13       -5.989570   1.000000
   14       -3.921582   1.000000
   15       -3.370057   1.000000
   16       -2.344436   1.000000
   17       -2.152116   1.000000
   18       -1.837856   1.000000
   19       -1.687911   1.000000
   20       -0.971876   1.000000
   21       -0.908676   1.000000
   22        2.335556   1.021692
   23        3.548947   0.000000
   24        4.175863   0.000000
   25        4.410772   0.000000
   26        4.666935   0.000000
   27        5.071944   0.000000
   28        5.482109   0.000000
   29        5.925374   0.000000
   30        6.224857   0.000000
   31        6.422849   0.000000
   32        6.898869   0.000000
 
  0.3740362E-15  0.1250000E+00  0.3741040E-15  0.4464286E-02
    1      -33.553433   1.000000
    2      -33.428294   1.000000
    3      -29.354207   1.000000
    4      -29.134122   1.000000
    5      -29.059843   1.000000
    6      -15.722621   1.000000
    7      -15.690679   1.000000
    8      -15.669561   1.000000
    9      -15.497404   1.000000
   10      -15.454181   1.000000
   11      -15.428518   1.000000
   12       -7.838681   1.000000
   13       -5.760620   1.000000
   14       -4.658921   1.000000
   15       -3.076050   1.000000
   16       -2.211725   1.000000
   17       -2.042743   1.000000
   18       -1.763283   1.000000
   19       -1.393029   1.000000
   20       -1.001226   1.000000
   21       -0.697889   1.000000
   22        2.444183   0.137218
   23        3.307887   0.000000
   24        3.764478   0.000000
   25        4.270823   0.000000
   26        4.859498   0.000000
   27        5.033701   0.000000
   28        5.526462   0.000000
   29        6.010309   0.000000
   30        6.250606   0.000000
   31        6.978099   0.000000
   32        7.140826   0.000000
 
  0.1250000E+00  0.1250000E+00  0.3677614E-15  0.4464286E-02
    1      -33.553351   1.000000
    2      -33.428263   1.000000
    3      -29.353936   1.000000
    4      -29.134328   1.000000
    5      -29.059841   1.000000
    6      -15.726954   1.000000
    7      -15.685671   1.000000
    8      -15.672502   1.000000
    9      -15.499980   1.000000
   10      -15.454236   1.000000
   11      -15.433215   1.000000
   12       -7.773473   1.000000
   13       -5.837280   1.000000
   14       -4.533650   1.000000
   15       -3.070134   1.000000
   16       -2.213391   1.000000
   17       -2.083390   1.000000
   18       -1.810148   1.000000
   19       -1.405042   1.000000
   20       -1.082902   1.000000
   21       -0.661292   1.000000
   22        2.462887   0.025381
   23        3.407342   0.000000
   24        3.721881   0.000000
   25        4.305582   0.000000
   26        4.897505   0.000000
   27        5.219110   0.000000
   28        5.366567   0.000000
   29        5.718879   0.000000
   30        6.358708   0.000000
   31        6.928124   0.000000
   32        7.181503   0.000000
 
  0.2500000E+00  0.1250000E+00  0.3469447E-15  0.4464286E-02
    1      -33.553161   1.000000
    2      -33.428258   1.000000
    3      -29.353788   1.000000
    4      -29.134667   1.000000
    5      -29.060035   1.000000
    6      -15.731741   1.000000
    7      -15.687731   1.000000
    8      -15.672470   1.000000
    9      -15.505668   1.000000
   10      -15.465333   1.000000
   11      -15.435288   1.000000
   12       -7.628633   1.000000
   13       -5.932953   1.000000
   14       -4.306121   1.000000
   15       -3.073103   1.000000
   16       -2.294048   1.000000
   17       -2.139099   1.000000
   18       -1.871760   1.000000
   19       -1.501685   1.000000
   20       -1.093869   1.000000
   21       -0.727985   1.000000
   22        2.474541  -0.017417
   23        3.575012   0.000000
   24        3.715230   0.000000
   25        4.570038   0.000000
   26        4.680568   0.000000
   27        5.129382   0.000000
   28        5.381618   0.000000
   29        5.709558   0.000000
   30        6.500278   0.000000
   31        6.812081   0.000000
   32        6.950857   0.000000
 
  0.3750000E+00  0.1250000E+00  0.3608225E-15  0.4464286E-02
    1      -33.552970   1.000000
    2      -33.428280   1.000000
    3      -29.353584   1.000000
    4      -29.134815   1.000000
    5      -29.060351   1.000000
    6      -15.737884   1.000000
    7      -15.692567   1.000000
    8      -15.669897   1.000000
    9      -15.508495   1.000000
   10      -15.479465   1.000000
   11      -15.435556   1.000000
   12       -7.485371   1.000000
   13       -5.992203   1.000000
   14       -4.030409   1.000000
   15       -3.196312   1.000000
   16       -2.399183   1.000000
   17       -2.149255   1.000000
   18       -1.937002   1.000000
   19       -1.584008   1.000000
   20       -1.061245   1.000000
   21       -0.807071   1.000000
   22        2.430302   0.252810
   23        3.614801   0.000000
   24        3.900199   0.000000
   25        4.385229   0.000000
   26        4.772333   0.000000
   27        5.037578   0.000000
   28        5.619606   0.000000
   29        5.874569   0.000000
   30        6.224658   0.000000
   31        6.559116   0.000000
   32        6.937893   0.000000
 
  0.5000000E+00  0.1250000E+00  0.3608225E-15  0.4464286E-02
    1      -33.552884   1.000000
    2      -33.428311   1.000000
    3      -29.353554   1.000000
    4      -29.134636   1.000000
    5      -29.060569   1.000000
    6      -15.740693   1.000000
    7      -15.694910   1.000000
    8      -15.668976   1.000000
    9      -15.505791   1.000000
   10      -15.490257   1.000000
   11      -15.434051   1.000000
   12       -7.439083   1.000000
   13       -5.974340   1.000000
   14       -3.904202   1.000000
   15       -3.326367   1.000000
   16       -2.417716   1.000000
   17       -2.115883   1.000000
   18       -1.947784   1.000000
   19       -1.636485   1.000000
   20       -1.052244   1.000000
   21       -0.856406   1.000000
   22        2.402463   0.535599
   23        3.488599   0.000000
   24        4.113467   0.000000
   25        4.325482   0.000000
   26        4.704114   0.000000
   27        5.242482   0.000000
   28        5.591212   0.000000
   29        6.053910   0.000000
   30        6.269163   0.000000
   31        6.350581   0.000000
   32        6.883497   0.000000
 
 -0.3750000E+00  0.1250000E+00  0.4163336E-15  0.4464286E-02
    1      -33.552959   1.000000
    2      -33.428331   1.000000
    3      -29.353606   1.000000
    4      -29.134349   1.000000
    5      -29.060500   1.000000
    6      -15.734902   1.000000
    7      -15.696533   1.000000
    8      -15.669398   1.000000
    9      -15.505590   1.000000
   10      -15.487480   1.000000
   11      -15.430498   1.000000
   12       -7.516672   1.000000
   13       -5.889873   1.000000
   14       -4.161315   1.000000
   15       -3.163550   1.000000
   16       -2.353691   1.000000
   17       -2.142457   1.000000
   18       -1.825704   1.000000
   19       -1.656968   1.000000
   20       -1.067528   1.000000
   21       -0.884118   1.000000
   22        2.431626   0.240756
   23        3.486205   0.000000
   24        3.998025   0.000000
   25        4.258132   0.000000
   26        4.736881   0.000000
   27        5.289138   0.000000
   28        5.704289   0.000000
   29        6.099025   0.000000
   30        6.303272   0.000000
   31        6.500578   0.000000
   32        6.934066   0.000000
 
 -0.2500000E+00  0.1250000E+00  0.4024558E-15  0.4464286E-02
    1      -33.553152   1.000000
    2      -33.428333   1.000000
    3      -29.353888   1.000000
    4      -29.134125   1.000000
    5      -29.060360   1.000000
    6      -15.724315   1.000000
    7      -15.697437   1.000000
    8      -15.670710   1.000000
    9      -15.504685   1.000000
   10      -15.475668   1.000000
   11      -15.427019   1.000000
   12       -7.663314   1.000000
   13       -5.796737   1.000000
   14       -4.458333   1.000000
   15       -3.042051   1.000000
   16       -2.304457   1.000000
   17       -2.097838   1.000000
   18       -1.782308   1.000000
   19       -1.491116   1.000000
   20       -1.144724   1.000000
   21       -0.832833   1.000000
   22        2.482172  -0.035226
   23        3.440904   0.000000
   24        3.748536   0.000000
   25        4.533027   0.000000
   26        4.741955   0.000000
   27        5.188548   0.000000
   28        5.405806   0.000000
   29        6.109158   0.000000
   30        6.372475   0.000000
   31        6.780558   0.000000
   32        7.135612   0.000000
 
 -0.1250000E+00  0.1250000E+00  0.3816392E-15  0.4464286E-02
    1      -33.553345   1.000000
    2      -33.428317   1.000000
    3      -29.354106   1.000000
    4      -29.133984   1.000000
    5      -29.060030   1.000000
    6      -15.719655   1.000000
    7      -15.695207   1.000000
    8      -15.670448   1.000000
    9      -15.499800   1.000000
   10      -15.463133   1.000000
   11      -15.425735   1.000000
   12       -7.792208   1.000000
   13       -5.741547   1.000000
   14       -4.637095   1.000000
   15       -3.046771   1.000000
   16       -2.255852   1.000000
   17       -2.041549   1.000000
   18       -1.757946   1.000000
   19       -1.392997   1.000000
   20       -1.065544   1.000000
   21       -0.776536   1.000000
   22        2.480441  -0.031838
   23        3.303796   0.000000
   24        3.745832   0.000000
   25        4.504150   0.000000
   26        4.838315   0.000000
   27        5.044927   0.000000
   28        5.338547   0.000000
   29        6.102485   0.000000
   30        6.333299   0.000000
   31        6.947291   0.000000
   32        7.107974   0.000000
 
  0.3743750E-15  0.2500000E+00  0.3737245E-15  0.4464286E-02
    1      -33.552880   1.000000
    2      -33.428425   1.000000
    3      -29.354208   1.000000
    4      -29.134338   1.000000
    5      -29.060104   1.000000
    6      -15.731039   1.000000
    7      -15.687549   1.000000
    8      -15.656245   1.000000
    9      -15.516054   1.000000
   10      -15.464427   1.000000
   11      -15.439856   1.000000
   12       -7.678148   1.000000
   13       -5.858457   1.000000
   14       -4.487349   1.000000
   15       -3.074789   1.000000
   16       -2.267903   1.000000
   17       -1.984409   1.000000
   18       -1.746410   1.000000
   19       -1.372143   1.000000
   20       -1.166393   1.000000
   21       -0.865949   1.000000
   22        2.646497   0.002707
   23        3.208527   0.000000
   24        3.679759   0.000000
   25        4.288064   0.000000
   26        4.952621   0.000000
   27        5.191604   0.000000
   28        5.567393   0.000000
   29        5.988680   0.000000
   30        6.414391   0.000000
   31        6.854259   0.000000
   32        7.150700   0.000000
 
  0.1250000E+00  0.2500000E+00  0.3538836E-15  0.4464286E-02
    1      -33.552817   1.000000
    2      -33.428335   1.000000
    3      -29.354061   1.000000
    4      -29.134690   1.000000
    5      -29.060121   1.000000
    6      -15.736159   1.000000
    7      -15.686519   1.000000
    8      -15.656526   1.000000
    9      -15.517164   1.000000
   10      -15.462903   1.000000
   11      -15.443306   1.000000
   12       -7.619664   1.000000
   13       -5.937657   1.000000
   14       -4.346189   1.000000
   15       -3.075351   1.000000
   16       -2.282033   1.000000
   17       -2.044728   1.000000
   18       -1.792597   1.000000
   19       -1.460225   1.000000
   20       -1.206209   1.000000
   21       -0.751793   1.000000
   22        2.627840   0.004083
   23        3.330886   0.000000
   24        3.716107   0.000000
   25        4.233552   0.000000
   26        4.980475   0.000000
   27        5.203091   0.000000
   28        5.603295   0.000000
   29        5.683997   0.000000
   30        6.443521   0.000000
   31        6.881841   0.000000
   32        7.079604   0.000000
 
  0.2500000E+00  0.2500000E+00  0.3469447E-15  0.4464286E-02
    1      -33.552664   1.000000
    2      -33.428196   1.000000
    3      -29.354007   1.000000
    4      -29.135206   1.000000
    5      -29.060452   1.000000
    6      -15.741026   1.000000
    7      -15.694293   1.000000
    8      -15.654872   1.000000
    9      -15.521447   1.000000
   10      -15.470751   1.000000
   11      -15.440636   1.000000
   12       -7.503128   1.000000
   13       -5.998675   1.000000
   14       -4.127796   1.000000
   15       -3.047736   1.000000
   16       -2.448728   1.000000
   17       -2.089389   1.000000
   18       -1.900437   1.000000
   19       -1.568943   1.000000
   20       -1.156799   1.000000
   21       -0.748506   1.000000
   22        2.620852   0.004525
   23        3.481693   0.000000
   24        3.665703   0.000000
   25        4.468250   0.000000
   26        4.827822   0.000000
   27        5.146515   0.000000
   28        5.553258   0.000000
   29        5.756556   0.000000
   30        6.467644   0.000000
   31        6.781698   0.000000
   32        6.880455   0.000000
 
  0.3750000E+00  0.2500000E+00  0.3330669E-15  0.4464286E-02
    1      -33.552501   1.000000
    2      -33.428084   1.000000
    3      -29.353815   1.000000
    4      -29.135526   1.000000
    5      -29.060804   1.000000
    6      -15.744716   1.000000
    7      -15.703862   1.000000
    8      -15.653033   1.000000
    9      -15.525593   1.000000
   10      -15.479260   1.000000
   11      -15.436754   1.000000
   12       -7.401802   1.000000
   13       -5.997090   1.000000
   14       -3.890159   1.000000
   15       -3.120129   1.000000
   16       -2.610002   1.000000
   17       -2.097962   1.000000
   18       -2.028665   1.000000
   19       -1.590731   1.000000
   20       -1.118607   1.000000
   21       -0.782380   1.000000
   22        2.575236  -0.000246
   23        3.442466   0.000000
   24        3.774459   0.000000
   25        4.506705   0.000000
   26        4.825380   0.000000
   27        5.169432   0.000000
   28        5.733043   0.000000
   29        5.845594   0.000000
   30        6.432912   0.000000
   31        6.531585   0.000000
   32        6.872682   0.000000
 
  0.5000000E+00  0.2500000E+00  0.3330669E-15  0.4464286E-02
    1      -33.552428   1.000000
    2      -33.428069   1.000000
    3      -29.353800   1.000000
    4      -29.135377   1.000000
    5      -29.061128   1.000000
    6      -15.745286   1.000000
    7      -15.709284   1.000000
    8      -15.652423   1.000000
    9      -15.526924   1.000000
   10      -15.484630   1.000000
   11      -15.433419   1.000000
   12       -7.383485   1.000000
   13       -5.932063   1.000000
   14       -3.839085   1.000000
   15       -3.217851   1.000000
   16       -2.583903   1.000000
   17       -2.145188   1.000000
   18       -2.007623   1.000000
   19       -1.609684   1.000000
   20       -1.131430   1.000000
   21       -0.814451   1.000000
   22        2.547096  -0.017878
   23        3.362098   0.000000
   24        3.852037   0.000000
   25        4.364203   0.000000
   26        4.943145   0.000000
   27        5.289279   0.000000
   28        5.779492   0.000000
   29        6.145283   0.000000
   30        6.332012   0.000000
   31        6.407763   0.000000
   32        6.983569   0.000000
 
 -0.3750000E+00  0.2500000E+00  0.4163336E-15  0.4464286E-02
    1      -33.552491   1.000000
    2      -33.428162   1.000000
    3      -29.353971   1.000000
    4      -29.134995   1.000000
    5      -29.061132   1.000000
    6      -15.739730   1.000000
    7      -15.710064   1.000000
    8      -15.652727   1.000000
    9      -15.525757   1.000000
   10      -15.485107   1.000000
   11      -15.431380   1.000000
   12       -7.453432   1.000000
   13       -5.845231   1.000000
   14       -4.109273   1.000000
   15       -3.066847   1.000000
   16       -2.499823   1.000000
   17       -2.153523   1.000000
   18       -1.885756   1.000000
   19       -1.631835   1.000000
   20       -1.181711   1.000000
   21       -0.853707   1.000000
   22        2.583515   0.002333
   23        3.391194   0.000000
   24        3.720147   0.000000
   25        4.304696   0.000000
   26        4.963843   0.000000
   27        5.383381   0.000000
   28        5.739987   0.000000
   29        6.233563   0.000000
   30        6.433403   0.000000
   31        6.651022   0.000000
   32        6.920673   0.000000
 
 -0.2500000E+00  0.2500000E+00  0.4024558E-15  0.4464286E-02
    1      -33.552648   1.000000
    2      -33.428299   1.000000
    3      -29.354109   1.000000
    4      -29.134459   1.000000
    5      -29.060753   1.000000
    6      -15.731384   1.000000
    7      -15.705116   1.000000
    8      -15.654022   1.000000
    9      -15.522952   1.000000
   10      -15.479867   1.000000
   11      -15.431494   1.000000
   12       -7.561409   1.000000
   13       -5.790466   1.000000
   14       -4.376363   1.000000
   15       -2.968098   1.000000
   16       -2.433398   1.000000
   17       -2.039237   1.000000
   18       -1.810686   1.000000
   19       -1.510399   1.000000
   20       -1.269156   1.000000
   21       -0.882950   1.000000
   22        2.670514   0.001278
   23        3.306003   0.000000
   24        3.650730   0.000000
   25        4.382386   0.000000
   26        4.881599   0.000000
   27        5.355655   0.000000
   28        5.665530   0.000000
   29        6.092394   0.000000
   30        6.452444   0.000000
   31        6.832741   0.000000
   32        7.147168   0.000000
 
 -0.1250000E+00  0.2500000E+00  0.3747003E-15  0.4464286E-02
    1      -33.552809   1.000000
    2      -33.428409   1.000000
    3      -29.354261   1.000000
    4      -29.134169   1.000000
    5      -29.060379   1.000000
    6      -15.728290   1.000000
    7      -15.695206   1.000000
    8      -15.655522   1.000000
    9      -15.519019   1.000000
   10      -15.471721   1.000000
   11      -15.434503   1.000000
   12       -7.652771   1.000000
   13       -5.798321   1.000000
   14       -4.508811   1.000000
   15       -3.015817   1.000000
   16       -2.336446   1.000000
   17       -1.970652   1.000000
   18       -1.755902   1.000000
   19       -1.366518   1.000000
   20       -1.230339   1.000000
   21       -0.927726   1.000000
   22        2.704178   0.000322
   23        3.170906   0.000000
   24        3.672222   0.000000
   25        4.415616   0.000000
   26        4.839108   0.000000
   27        5.301422   0.000000
   28        5.542096   0.000000
   29        6.095984   0.000000
   30        6.431783   0.000000
   31        6.910769   0.000000
   32        7.040814   0.000000
 
  0.3736974E-15  0.3750000E+00  0.3736161E-15  0.4464286E-02
    1      -33.552323   1.000000
    2      -33.428560   1.000000
    3      -29.354293   1.000000
    4      -29.134468   1.000000
    5      -29.060309   1.000000
    6      -15.741491   1.000000
    7      -15.685404   1.000000
    8      -15.632762   1.000000
    9      -15.544889   1.000000
   10      -15.470939   1.000000
   11      -15.451480   1.000000
   12       -7.495075   1.000000
   13       -5.984583   1.000000
   14       -4.259950   1.000000
   15       -3.148882   1.000000
   16       -2.296273   1.000000
   17       -1.955410   1.000000
   18       -1.682895   1.000000
   19       -1.496805   1.000000
   20       -1.274597   1.000000
   21       -0.924032   1.000000
   22        2.831997   0.000000
   23        3.208466   0.000000
   24        3.546070   0.000000
   25        4.248843   0.000000
   26        4.906711   0.000000
   27        5.400772   0.000000
   28        5.738506   0.000000
   29        5.806202   0.000000
   30        6.516225   0.000000
   31        6.644615   0.000000
   32        6.953734   0.000000
 
  0.1250000E+00  0.3750000E+00  0.3608225E-15  0.4464286E-02
    1      -33.552274   1.000000
    2      -33.428425   1.000000
    3      -29.354191   1.000000
    4      -29.134850   1.000000
    5      -29.060429   1.000000
    6      -15.745638   1.000000
    7      -15.688472   1.000000
    8      -15.632685   1.000000
    9      -15.544666   1.000000
   10      -15.467511   1.000000
   11      -15.453681   1.000000
   12       -7.453016   1.000000
   13       -6.026872   1.000000
   14       -4.140076   1.000000
   15       -3.150012   1.000000
   16       -2.336710   1.000000
   17       -2.019138   1.000000
   18       -1.728616   1.000000
   19       -1.563726   1.000000
   20       -1.295132   1.000000
   21       -0.818946   1.000000
   22        2.791477   0.000002
   23        3.282824   0.000000
   24        3.586837   0.000000
   25        4.282405   0.000000
   26        4.869059   0.000000
   27        5.317187   0.000000
   28        5.721988   0.000000
   29        5.879199   0.000000
   30        6.347842   0.000000
   31        6.653164   0.000000
   32        7.016237   0.000000
 
  0.2500000E+00  0.3750000E+00  0.3469447E-15  0.4464286E-02
    1      -33.552153   1.000000
    2      -33.428157   1.000000
    3      -29.354150   1.000000
    4      -29.135599   1.000000
    5      -29.060847   1.000000
    6      -15.750997   1.000000
    7      -15.699619   1.000000
    8      -15.632223   1.000000
    9      -15.546712   1.000000
   10      -15.470354   1.000000
   11      -15.447666   1.000000
   12       -7.382568   1.000000
   13       -6.023776   1.000000
   14       -3.953048   1.000000
   15       -3.089480   1.000000
   16       -2.569229   1.000000
   17       -2.051491   1.000000
   18       -1.876984   1.000000
   19       -1.637572   1.000000
   20       -1.225989   1.000000
   21       -0.776192   1.000000
   22        2.757918   0.000019
   23        3.364702   0.000000
   24        3.525793   0.000000
   25        4.508433   0.000000
   26        4.875182   0.000000
   27        5.257076   0.000000
   28        5.699288   0.000000
   29        5.933045   0.000000
   30        6.277049   0.000000
   31        6.580981   0.000000
   32        6.934716   0.000000
 
  0.3750000E+00  0.3750000E+00  0.3330669E-15  0.4464286E-02
    1      -33.552026   1.000000
    2      -33.427905   1.000000
    3      -29.354063   1.000000
    4      -29.136047   1.000000
    5      -29.061380   1.000000
    6      -15.754632   1.000000
    7      -15.711375   1.000000
    8      -15.631902   1.000000
    9      -15.549340   1.000000
   10      -15.475846   1.000000
   11      -15.439409   1.000000
   12       -7.329341   1.000000
   13       -5.970263   1.000000
   14       -3.752198   1.000000
   15       -3.058802   1.000000
   16       -2.816645   1.000000
   17       -2.124383   1.000000
   18       -1.998721   1.000000
   19       -1.626259   1.000000
   20       -1.164844   1.000000
   21       -0.773491   1.000000
   22        2.685826   0.000712
   23        3.299612   0.000000
   24        3.602754   0.000000
   25        4.631992   0.000000
   26        4.944132   0.000000
   27        5.315003   0.000000
   28        5.639320   0.000000
   29        5.992576   0.000000
   30        6.356898   0.000000
   31        6.642409   0.000000
   32        6.774982   0.000000
 
  0.5000000E+00  0.3750000E+00  0.3608225E-15  0.4464286E-02
    1      -33.551967   1.000000
    2      -33.427820   1.000000
    3      -29.354023   1.000000
    4      -29.136079   1.000000
    5      -29.061620   1.000000
    6      -15.755198   1.000000
    7      -15.717274   1.000000
    8      -15.631779   1.000000
    9      -15.550619   1.000000
   10      -15.478977   1.000000
   11      -15.435011   1.000000
   12       -7.324945   1.000000
   13       -5.894310   1.000000
   14       -3.721556   1.000000
   15       -3.122084   1.000000
   16       -2.793580   1.000000
   17       -2.222789   1.000000
   18       -1.975944   1.000000
   19       -1.617227   1.000000
   20       -1.168590   1.000000
   21       -0.781196   1.000000
   22        2.646439   0.002711
   23        3.260724   0.000000
   24        3.631027   0.000000
   25        4.540634   0.000000
   26        5.091849   0.000000
   27        5.341727   0.000000
   28        5.695316   0.000000
   29        6.072921   0.000000
   30        6.353916   0.000000
   31        6.557671   0.000000
   32        7.006369   0.000000
 
 -0.3750000E+00  0.3750000E+00  0.4163336E-15  0.4464286E-02
    1      -33.552012   1.000000
    2      -33.427956   1.000000
    3      -29.354078   1.000000
    4      -29.135639   1.000000
    5      -29.061472   1.000000
    6      -15.751428   1.000000
    7      -15.715158   1.000000
    8      -15.631387   1.000000
    9      -15.550385   1.000000
   10      -15.478669   1.000000
   11      -15.435909   1.000000
   12       -7.368124   1.000000
   13       -5.852628   1.000000
   14       -3.954286   1.000000
   15       -2.987869   1.000000
   16       -2.716854   1.000000
   17       -2.172094   1.000000
   18       -1.908791   1.000000
   19       -1.636129   1.000000