   20   20   99    2
  0.7849029E+01  0.4767524E-09  0.7391099E-09  0.4674358E-09  0.5000000E-15
  1.000000000000000E-004
  CAR 
 unknown system                          
     79     38     64
 
  0.3742002E-15  0.3742002E-15  0.3742002E-15  0.1333333E-01
    1      -30.052630    -30.050320   1.000000   1.000000
    2      -27.223684    -27.209179   1.000000   1.000000
    3      -27.169352    -27.138938   1.000000   1.000000
    4      -27.148668    -27.099479   1.000000   1.000000
    5      -27.126987    -27.066557   1.000000   1.000000
    6      -27.110690    -27.050755   1.000000   1.000000
    7      -27.040265    -27.006521   1.000000   1.000000
    8      -26.969952    -26.963505   1.000000   1.000000
    9      -26.896359    -26.884046   1.000000   1.000000
   10      -26.869080    -26.859076   1.000000   1.000000
   11      -26.844113    -26.834502   1.000000   1.000000
   12      -26.814618    -26.798595   1.000000   1.000000
   13      -26.807682    -26.793334   1.000000   1.000000
   14      -26.705004    -26.693086   1.000000   1.000000
   15      -26.667980    -26.653663   1.000000   1.000000
   16      -26.653291    -26.641005   1.000000   1.000000
   17      -12.410137    -12.405767   1.000000   1.000000
   18      -12.314923    -12.311715   1.000000   1.000000
   19      -12.290409    -12.287497   1.000000   1.000000
   20       -5.781637     -5.773102   1.000000   1.000000
   21       -3.407582     -3.402262   1.000000   1.000000
   22       -2.617261     -2.604185   1.000000   1.000000
   23       -2.124963     -2.115607   1.000000   1.000000
   24       -1.894810     -1.888130   1.000000   1.000000
   25       -1.657910     -1.647742   1.000000   1.000000
   26       -1.445470     -1.435909   1.000000   1.000000
   27       -1.225934     -1.215334   1.000000   1.000000
   28       -1.098451     -1.082219   1.000000   1.000000
   29       -0.566640     -0.558377   1.000000   1.000000
   30       -0.393210     -0.387563   1.000000   1.000000
   31       -0.285960     -0.267318   1.000000   1.000000
   32        0.281267      0.294841   1.000000   1.000000
   33        0.837721      0.845971   1.000000   1.000000
   34        2.843868      2.859678   1.000000   1.000000
   35        3.596899      3.630309   1.000000   1.000000
   36        3.617311      3.643698   1.000000   1.000000
   37        3.937181      3.955106   1.000000   1.000000
   38        3.982243      4.042351   1.000000   1.000000
   39        4.930023      4.943341  -0.086355  -0.056006
   40        5.279240      5.295483   0.000000   0.000000
   41        5.538089      5.554354   0.000000   0.000000
   42        5.643021      5.675056   0.000000   0.000000
   43        5.734543      5.756506   0.000000   0.000000
   44        5.853426      5.870314   0.000000   0.000000
   45        6.197654      6.227074   0.000000   0.000000
   46        6.368475      6.394937   0.000000   0.000000
   47        6.513792      6.529478   0.000000   0.000000
   48        6.668157      6.684286   0.000000   0.000000
   49        7.093583      7.106139   0.000000   0.000000
   50        7.201042      7.214394   0.000000   0.000000
   51        7.697901      7.724372   0.000000   0.000000
   52        8.020662      8.054618   0.000000   0.000000
   53        8.542704      8.566427   0.000000   0.000000
   54        8.774190      8.788019   0.000000   0.000000
   55        8.938147      8.958918   0.000000   0.000000
   56        9.357923      9.371945   0.000000   0.000000
   57        9.505188      9.521338   0.000000   0.000000
   58        9.812792      9.864063   0.000000   0.000000
   59       10.203012     10.214306   0.000000   0.000000
   60       10.283985     10.295977   0.000000   0.000000
   61       10.423150     10.439732   0.000000   0.000000
   62       10.970746     10.991327   0.000000   0.000000
   63       11.452934     11.475586   0.000000   0.000000
   64       11.640343     11.665317   0.000000   0.000000
 
  0.2000000E+00  0.3723150E-15  0.3755676E-15  0.2666667E-01
    1      -30.053031    -30.050680   1.000000   1.000000
    2      -27.202573    -27.188886   1.000000   1.000000
    3      -27.172736    -27.128052   1.000000   1.000000
    4      -27.142224    -27.106748   1.000000   1.000000
    5      -27.129828    -27.067664   1.000000   1.000000
    6      -27.109372    -27.052788   1.000000   1.000000
    7      -27.032793    -27.003424   1.000000   1.000000
    8      -26.986388    -26.974146   1.000000   1.000000
    9      -26.918853    -26.907131   1.000000   1.000000
   10      -26.881120    -26.868782   1.000000   1.000000
   11      -26.849458    -26.837957   1.000000   1.000000
   12      -26.803167    -26.788284   1.000000   1.000000
   13      -26.778109    -26.765003   1.000000   1.000000
   14      -26.716149    -26.703924   1.000000   1.000000
   15      -26.673543    -26.661250   1.000000   1.000000
   16      -26.659040    -26.645880   1.000000   1.000000
   17      -12.411321    -12.407057   1.000000   1.000000
   18      -12.350858    -12.347405   1.000000   1.000000
   19      -12.298351    -12.295279   1.000000   1.000000
   20       -5.454821     -5.446528   1.000000   1.000000
   21       -3.257417     -3.252105   1.000000   1.000000
   22       -2.566771     -2.557187   1.000000   1.000000
   23       -2.269315     -2.259285   1.000000   1.000000
   24       -1.802354     -1.794534   1.000000   1.000000
   25       -1.711283     -1.703091   1.000000   1.000000
   26       -1.376639     -1.367197   1.000000   1.000000
   27       -1.153177     -1.142197   1.000000   1.000000
   28       -0.885175     -0.869959   1.000000   1.000000
   29       -0.577962     -0.568939   1.000000   1.000000
   30       -0.388866     -0.381192   1.000000   1.000000
   31       -0.225956     -0.211272   1.000000   1.000000
   32        0.263928      0.279606   1.000000   1.000000
   33        0.776056      0.784977   1.000000   1.000000
   34        2.701943      2.716231   1.000000   1.000000
   35        3.102282      3.114608   1.000000   1.000000
   36        3.420923      3.454232   1.000000   1.000000
   37        3.919729      3.940215   1.000000   1.000000
   38        4.114944      4.184295   1.000000   1.000000
   39        4.631826      4.649218   0.112076   0.028464
   40        4.720535      4.738045  -0.076426  -0.050837
   41        5.186322      5.223149   0.000000   0.000000
   42        5.493483      5.516312   0.000000   0.000000
   43        5.691024      5.711307   0.000000   0.000000
   44        5.818033      5.841382   0.000000   0.000000
   45        5.986737      6.016504   0.000000   0.000000
   46        6.392796      6.415437   0.000000   0.000000
   47        6.626925      6.646213   0.000000   0.000000
   48        6.772136      6.786125   0.000000   0.000000
   49        7.189572      7.202743   0.000000   0.000000
   50        7.340399      7.362255   0.000000   0.000000
   51        7.632533      7.654132   0.000000   0.000000
   52        7.925233      7.944367   0.000000   0.000000
   53        8.104855      8.129100   0.000000   0.000000
   54        8.343431      8.370519   0.000000   0.000000
   55        8.995452      9.021009   0.000000   0.000000
   56        9.245931      9.260078   0.000000   0.000000
   57        9.746451      9.770363   0.000000   0.000000
   58       10.010717     10.031166   0.000000   0.000000
   59       10.212547     10.231116   0.000000   0.000000
   60       10.407489     10.421182   0.000000   0.000000
   61       10.717730     10.732784   0.000000   0.000000
   62       11.171413     11.186425   0.000000   0.000000
   63       11.617375     11.632697   0.000000   0.000000
   64       12.016157     12.040408   0.000000   0.000000
 
  0.4000000E+00  0.3740497E-15  0.3738329E-15  0.2666667E-01
    1      -30.053682    -30.051266   1.000000   1.000000
    2      -27.183440    -27.158034   1.000000   1.000000
    3      -27.171005    -27.131979   1.000000   1.000000
    4      -27.143350    -27.096276   1.000000   1.000000
    5      -27.120190    -27.057448   1.000000   1.000000
    6      -27.082439    -27.043167   1.000000   1.000000
    7      -27.027655    -27.007133   1.000000   1.000000
    8      -27.005891    -26.989737   1.000000   1.000000
    9      -26.950134    -26.936283   1.000000   1.000000
   10      -26.911873    -26.896737   1.000000   1.000000
   11      -26.851860    -26.839106   1.000000   1.000000
   12      -26.774583    -26.760603   1.000000   1.000000
   13      -26.752814    -26.738367   1.000000   1.000000
   14      -26.736322    -26.725420   1.000000   1.000000
   15      -26.713559    -26.701563   1.000000   1.000000
   16      -26.642569    -26.630484   1.000000   1.000000
   17      -12.437963    -12.434215   1.000000   1.000000
   18      -12.386683    -12.382435   1.000000   1.000000
   19      -12.306470    -12.303216   1.000000   1.000000
   20       -4.606840     -4.598830   1.000000   1.000000
   21       -3.379593     -3.372811   1.000000   1.000000
   22       -2.877760     -2.872975   1.000000   1.000000
   23       -2.098067     -2.089707   1.000000   1.000000
   24       -1.915636     -1.906996   1.000000   1.000000
   25       -1.523440     -1.517539   1.000000   1.000000
   26       -1.312855     -1.303285   1.000000   1.000000
   27       -0.908624     -0.897067   1.000000   1.000000
   28       -0.696940     -0.687246   1.000000   1.000000
   29       -0.463960     -0.451392   1.000000   1.000000
   30       -0.375612     -0.367686   1.000000   1.000000
   31        0.049477      0.068110   1.000000   1.000000
   32        0.276147      0.287553   1.000000   1.000000
   33        0.673269      0.683769   1.000000   1.000000
   34        2.325522      2.337702   1.000000   1.000000
   35        2.615076      2.628230   1.000000   1.000000
   36        2.889344      2.911294   1.000000   1.000000
   37        3.784718      3.798035   1.000000   1.000000
   38        4.024699      4.043450   1.000000   1.000000
   39        4.235312      4.257782   0.999365   0.995158
   40        4.472621      4.557362   0.325604   0.019059
   41        4.540118      4.599942   0.000000   0.000000
   42        5.249952      5.268939   0.000000   0.000000
   43        5.458471      5.486541   0.000000   0.000000
   44        5.593161      5.616201   0.000000   0.000000
   45        5.978528      6.011897   0.000000   0.000000
   46        6.112098      6.131540   0.000000   0.000000
   47        6.439450      6.456192   0.000000   0.000000
   48        6.757774      6.768963   0.000000   0.000000
   49        7.067247      7.089080   0.000000   0.000000
   50        7.253304      7.268223   0.000000   0.000000
   51        7.484934      7.510203   0.000000   0.000000
   52        7.615255      7.640536   0.000000   0.000000
   53        8.332256      8.351385   0.000000   0.000000
   54        8.934106      8.954238   0.000000   0.000000
   55        9.321484      9.337714   0.000000   0.000000
   56        9.779605      9.801290   0.000000   0.000000
   57        9.894653      9.912628   0.000000   0.000000
   58       10.148330     10.167762   0.000000   0.000000
   59       10.321094     10.342290   0.000000   0.000000
   60       10.415042     10.429472   0.000000   0.000000
   61       10.874746     10.886885   0.000000   0.000000
   62       11.219472     11.233912   0.000000   0.000000
   63       11.286630     11.302891   0.000000   0.000000
   64       11.441700     11.457620   0.000000   0.000000
 
  0.3736974E-15  0.3333333E+00  0.3885781E-15  0.2666667E-01
    1      -30.052637    -30.050327   1.000000   1.000000
    2      -27.221461    -27.207531   1.000000   1.000000
    3      -27.186498    -27.162199   1.000000   1.000000
    4      -27.172489    -27.116399   1.000000   1.000000
    5      -27.125460    -27.053894   1.000000   1.000000
    6      -27.085179    -27.031039   1.000000   1.000000
    7      -27.022241    -26.998667   1.000000   1.000000
    8      -26.965574    -26.955012   1.000000   1.000000
    9      -26.892354    -26.878049   1.000000   1.000000
   10      -26.866652    -26.855550   1.000000   1.000000
   11      -26.840267    -26.829714   1.000000   1.000000
   12      -26.822170    -26.807843   1.000000   1.000000
   13      -26.808224    -26.794293   1.000000   1.000000
   14      -26.713615    -26.702564   1.000000   1.000000
   15      -26.671261    -26.657191   1.000000   1.000000
   16      -26.654360    -26.642379   1.000000   1.000000
   17      -12.417422    -12.413033   1.000000   1.000000
   18      -12.314980    -12.311776   1.000000   1.000000
   19      -12.290812    -12.287907   1.000000   1.000000
   20       -5.372318     -5.364437   1.000000   1.000000
   21       -4.277225     -4.268440   1.000000   1.000000
   22       -2.329000     -2.317499   1.000000   1.000000
   23       -2.183949     -2.174817   1.000000   1.000000
   24       -1.899850     -1.891674   1.000000   1.000000
   25       -1.761947     -1.753305   1.000000   1.000000
   26       -1.540188     -1.529482   1.000000   1.000000
   27       -1.197649     -1.187009   1.000000   1.000000
   28       -1.037057     -1.023278   1.000000   1.000000
   29       -0.558617     -0.549730   1.000000   1.000000
   30       -0.314168     -0.300362   1.000000   1.000000
   31        0.083423      0.090213   1.000000   1.000000
   32        0.388486      0.399196   1.000000   1.000000
   33        1.024029      1.034105   1.000000   1.000000
   34        2.862701      2.888024   1.000000   1.000000
   35        3.195671      3.247439   1.000000   1.000000
   36        3.561893      3.584587   1.000000   1.000000
   37        4.010356      4.038065   1.000000   1.000000
   38        4.067942      4.088787   1.000000   1.000000
   39        4.922385      4.943609  -0.234578  -0.114890
   40        4.962376      4.981065   0.000000   0.000000
   41        5.262624      5.280578   0.000000   0.000000
   42        5.307287      5.325147   0.000000   0.000000
   43        5.416849      5.434202   0.000000   0.000000
   44        6.174648      6.197758   0.000000   0.000000
   45        6.408479      6.436330   0.000000   0.000000
   46        6.617731      6.634641   0.000000   0.000000
   47        6.825905      6.853350   0.000000   0.000000
   48        6.953832      6.970415   0.000000   0.000000
   49        7.103223      7.115673   0.000000   0.000000
   50        7.624647      7.654498   0.000000   0.000000
   51        7.739636      7.763858   0.000000   0.000000
   52        8.069428      8.101151   0.000000   0.000000
   53        8.399697      8.432383   0.000000   0.000000
   54        8.879693      8.899109   0.000000   0.000000
   55        9.115541      9.129510   0.000000   0.000000
   56        9.313747      9.334090   0.000000   0.000000
   57        9.365855      9.395271   0.000000   0.000000
   58        9.730152      9.751868   0.000000   0.000000
   59        9.782816      9.798948   0.000000   0.000000
   60       10.339970     10.351950   0.000000   0.000000
   61       10.666913     10.680041   0.000000   0.000000
   62       10.836767     10.852378   0.000000   0.000000
   63       11.200918     11.221610   0.000000   0.000000
   64       11.539385     11.559777   0.000000   0.000000
 
  0.2000000E+00  0.3333333E+00  0.3885781E-15  0.2666667E-01
    1      -30.053076    -30.050725   1.000000   1.000000
    2      -27.208564    -27.192213   1.000000   1.000000
    3      -27.172083    -27.144446   1.000000   1.000000
    4      -27.162885    -27.105394   1.000000   1.000000
    5      -27.131670    -27.063726   1.000000   1.000000
    6      -27.079334    -27.031669   1.000000   1.000000
    7      -27.034950    -27.017985   1.000000   1.000000
    8      -26.981511    -26.963560   1.000000   1.000000
    9      -26.911987    -26.896385   1.000000   1.000000
   10      -26.881282    -26.868202   1.000000   1.000000
   11      -26.845904    -26.833793   1.000000   1.000000
   12      -26.808612    -26.794946   1.000000   1.000000
   13      -26.781002    -26.768748   1.000000   1.000000
   14      -26.719560    -26.707983   1.000000   1.000000
   15      -26.673670    -26.661462   1.000000   1.000000
   16      -26.662385    -26.649456   1.000000   1.000000
   17      -12.417277    -12.412981   1.000000   1.000000
   18      -12.350809    -12.347377   1.000000   1.000000
   19      -12.298635    -12.295567   1.000000   1.000000
   20       -5.063495     -5.055855   1.000000   1.000000
   21       -4.071245     -4.062824   1.000000   1.000000
   22       -2.395007     -2.386672   1.000000   1.000000
   23       -2.109600     -2.099533   1.000000   1.000000
   24       -1.908379     -1.900739   1.000000   1.000000
   25       -1.724319     -1.715789   1.000000   1.000000
   26       -1.549167     -1.539393   1.000000   1.000000
   27       -1.133644     -1.123509   1.000000   1.000000
   28       -0.864578     -0.853588   1.000000   1.000000
   29       -0.465327     -0.454097   1.000000   1.000000
   30       -0.344977     -0.330161   1.000000   1.000000
   31        0.041006      0.048976   1.000000   1.000000
   32        0.256943      0.269699   1.000000   1.000000
   33        0.977150      0.985685   1.000000   1.000000
   34        2.616623      2.641138   1.000000   1.000000
   35        2.952026      2.971497   1.000000   1.000000
   36        3.594580      3.628198   1.000000   1.000000
   37        3.991866      4.025228   1.000000   1.000000
   38        4.126963      4.163226   1.000000   1.000000
   39        4.419371      4.443093   0.602778   0.442680
   40        4.886706      4.903439  -0.092831  -0.056060
   41        4.927507      4.952008   0.000000   0.000000
   42        5.216642      5.242204   0.000000   0.000000
   43        5.590233      5.617264   0.000000   0.000000
   44        5.743781      5.765464   0.000000   0.000000
   45        6.239296      6.256554   0.000000   0.000000
   46        6.481849      6.505917   0.000000   0.000000
   47        6.663536      6.686831   0.000000   0.000000
   48        6.737031      6.754718   0.000000   0.000000
   49        7.216764      7.241305   0.000000   0.000000
   50        7.449453      7.471482   0.000000   0.000000
   51        7.774383      7.799963   0.000000   0.000000
   52        7.920567      7.945094   0.000000   0.000000
   53        8.401497      8.423055   0.000000   0.000000
   54        8.779643      8.803769   0.000000   0.000000
   55        8.962734      8.983281   0.000000   0.000000
   56        9.302362      9.329352   0.000000   0.000000
   57        9.524964      9.544129   0.000000   0.000000
   58        9.841550      9.857547   0.000000   0.000000
   59       10.149986     10.165159   0.000000   0.000000
   60       10.424332     10.437725   0.000000   0.000000
   61       10.740295     10.755773   0.000000   0.000000
   62       10.869589     10.886049   0.000000   0.000000
   63       11.305717     11.320646   0.000000   0.000000
   64       11.693763     11.707646   0.000000   0.000000
 
  0.4000000E+00  0.3333333E+00  0.3816392E-15  0.2666667E-01
    1      -30.053797    -30.051381   1.000000   1.000000
    2      -27.181811    -27.159497   1.000000   1.000000
    3      -27.162352    -27.107520   1.000000   1.000000
    4      -27.147108    -27.100710   1.000000   1.000000
    5      -27.120772    -27.074928   1.000000   1.000000
    6      -27.087334    -27.047694   1.000000   1.000000
    7      -27.031860    -27.014706   1.000000   1.000000
    8      -27.004017    -26.984643   1.000000   1.000000
    9      -26.945129    -26.927583   1.000000   1.000000
   10      -26.917488    -26.901157   1.000000   1.000000
   11      -26.845590    -26.831063   1.000000   1.000000
   12      -26.777031    -26.763750   1.000000   1.000000
   13      -26.752922    -26.739235   1.000000   1.000000
   14      -26.736844    -26.726135   1.000000   1.000000
   15      -26.713192    -26.701493   1.000000   1.000000
   16      -26.644210    -26.632198   1.000000   1.000000
   17      -12.438599    -12.434816   1.000000   1.000000
   18      -12.389454    -12.385234   1.000000   1.000000
   19      -12.306705    -12.303453   1.000000   1.000000
   20       -4.298707     -4.291400   1.000000   1.000000
   21       -3.545990     -3.538594   1.000000   1.000000
   22       -3.117593     -3.110686   1.000000   1.000000
   23       -2.340823     -2.333224   1.000000   1.000000
   24       -1.685810     -1.678468   1.000000   1.000000
   25       -1.584100     -1.576299   1.000000   1.000000
   26       -1.506444     -1.497598   1.000000   1.000000
   27       -0.985447     -0.975199   1.000000   1.000000
   28       -0.632843     -0.623679   1.000000   1.000000
   29       -0.372073     -0.362291   1.000000   1.000000
   30       -0.082152     -0.068831   1.000000   1.000000
   31        0.048658      0.065196   1.000000   1.000000
   32        0.253947      0.265283   1.000000   1.000000
   33        0.779674      0.788818   1.000000   1.000000
   34        2.303845      2.319830   1.000000   1.000000
   35        2.676670      2.688630   1.000000   1.000000
   36        3.149971      3.169318   1.000000   1.000000
   37        3.608241      3.625645   1.000000   1.000000
   38        4.123009      4.147006   1.000000   1.000000
   39        4.278104      4.319935   0.994287   0.980627
   40        4.400625      4.473645   0.640734   0.147535
   41        4.613458      4.649781   0.000000   0.000000
   42        4.876390      4.905203   0.000000   0.000000
   43        5.248961      5.274527   0.000000   0.000000
   44        5.389985      5.410077   0.000000   0.000000
   45        6.166929      6.187534   0.000000   0.000000
   46        6.210527      6.232478   0.000000   0.000000
   47        6.486878      6.507003   0.000000   0.000000
   48        6.699620      6.720433   0.000000   0.000000
   49        7.153236      7.176323   0.000000   0.000000
   50        7.453091      7.472137   0.000000   0.000000
   51        7.649125      7.673555   0.000000   0.000000
   52        7.893553      7.911907   0.000000   0.000000
   53        8.193895      8.213298   0.000000   0.000000
   54        9.036554      9.055282   0.000000   0.000000
   55        9.164262      9.185486   0.000000   0.000000
   56        9.554927      9.577923   0.000000   0.000000
   57        9.741577      9.763738   0.000000   0.000000
   58        9.852689      9.872167   0.000000   0.000000
   59       10.155662     10.170044   0.000000   0.000000
   60       10.396378     10.412710   0.000000   0.000000
   61       10.548887     10.563870   0.000000   0.000000
   62       11.150507     11.164638   0.000000   0.000000
   63       11.596155     11.611863   0.000000   0.000000
   64       12.004391     12.022252   0.000000   0.000000
 
 -0.4000000E+00  0.3333333E+00  0.3816392E-15  0.2666667E-01
    1      -30.053797    -30.051380   1.000000   1.000000
    2      -27.183904    -27.155955   1.000000   1.000000
    3      -27.161156    -27.126191   1.000000   1.000000
    4      -27.147152    -27.090956   1.000000   1.000000
    5      -27.119985    -27.060080   1.000000   1.000000
    6      -27.081989    -27.048125   1.000000   1.000000
    7      -27.028419    -27.012352   1.000000   1.000000
    8      -27.014767    -26.998038   1.000000   1.000000
    9      -26.944792    -26.927780   1.000000   1.000000
   10      -26.917672    -26.901618   1.000000   1.000000
   11      -26.844697    -26.829707   1.000000   1.000000
   12      -26.776017    -26.762531   1.000000   1.000000
   13      -26.753451    -26.739847   1.000000   1.000000
   14      -26.734421    -26.723356   1.000000   1.000000
   15      -26.714933    -26.703420   1.000000   1.000000
   16      -26.644305    -26.632357   1.000000   1.000000
   17      -12.437803    -12.434028   1.000000   1.000000
   18      -12.389979    -12.385752   1.000000   1.000000
   19      -12.306724    -12.303473   1.000000   1.000000
   20       -4.338630     -4.331587   1.000000   1.000000
   21       -3.515887     -3.507216   1.000000   1.000000
   22       -3.068039     -3.062372   1.000000   1.000000
   23       -2.353628     -2.346019   1.000000   1.000000
   24       -1.730537     -1.721615   1.000000   1.000000
   25       -1.611542     -1.605503   1.000000   1.000000
   26       -1.452071     -1.442346   1.000000   1.000000
   27       -0.975129     -0.965515   1.000000   1.000000
   28       -0.693887     -0.684316   1.000000   1.000000
   29       -0.370973     -0.360088   1.000000   1.000000
   30       -0.134112     -0.122777   1.000000   1.000000
   31        0.214757      0.228005   1.000000   1.000000
   32        0.258622      0.273978   1.000000   1.000000
   33        0.691214      0.701048   1.000000   1.000000
   34        2.348661      2.363371   1.000000   1.000000
   35        2.660653      2.672672   1.000000   1.000000
   36        3.139526      3.159325   1.000000   1.000000
   37        3.578032      3.595269   1.000000   1.000000
   38        4.100203      4.136207   1.000000   1.000000
   39        4.202828      4.229007   1.001433   1.016296
   40        4.459615      4.541693   0.357688   0.011740
   41        4.754233      4.790846   0.000000   0.000000
   42        4.857160      4.885382   0.000000   0.000000
   43        5.137883      5.158334   0.000000   0.000000
   44        5.439362      5.459496   0.000000   0.000000
   45        6.160899      6.179761   0.000000   0.000000
   46        6.244065      6.267117   0.000000   0.000000
   47        6.490944      6.510480   0.000000   0.000000
   48        6.732304      6.755633   0.000000   0.000000
   49        7.069784      7.091223   0.000000   0.000000
   50        7.329254      7.350354   0.000000   0.000000
   51        7.720574      7.741268   0.000000   0.000000
   52        8.015976      8.035385   0.000000   0.000000
   53        8.243473      8.265614   0.000000   0.000000
   54        8.932427      8.950444   0.000000   0.000000
   55        9.228986      9.246188   0.000000   0.000000
   56        9.518579      9.535232   0.000000   0.000000
   57        9.683607      9.715819   0.000000   0.000000
   58        9.865487      9.883519   0.000000   0.000000
   59       10.177769     10.195130   0.000000   0.000000
   60       10.358229     10.375175   0.000000   0.000000
   61       10.572372     10.586375   0.000000   0.000000
   62       11.099802     11.114367   0.000000   0.000000
   63       11.511876     11.523334   0.000000   0.000000
   64       11.762161     11.772629   0.000000   0.000000
 
 -0.2000000E+00  0.3333333E+00  0.3816392E-15  0.2666667E-01
    1      -30.053080    -30.050729   1.000000   1.000000
    2      -27.206734    -27.190802   1.000000   1.000000
    3      -27.177978    -27.147823   1.000000   1.000000
    4      -27.165491    -27.109349   1.000000   1.000000
    5      -27.120667    -27.053891   1.000000   1.000000
    6      -27.082015    -27.029517   1.000000   1.000000
    7      -27.027909    -27.010811   1.000000   1.000000
    8      -26.991256    -26.977462   1.000000   1.000000
    9      -26.913840    -26.899644   1.000000   1.000000
   10      -26.881285    -26.868120   1.000000   1.000000
   11      -26.844792    -26.832297   1.000000   1.000000
   12      -26.807947    -26.794230   1.000000   1.000000
   13      -26.782394    -26.769950   1.000000   1.000000
   14      -26.714216    -26.701923   1.000000   1.000000
   15      -26.676461    -26.664438   1.000000   1.000000
   16      -26.662409    -26.649706   1.000000   1.000000
   17      -12.416121    -12.411815   1.000000   1.000000
   18      -12.351442    -12.348022   1.000000   1.000000
   19      -12.298713    -12.295645   1.000000   1.000000
   20       -5.093819     -5.086258   1.000000   1.000000
   21       -4.033350     -4.024688   1.000000   1.000000
   22       -2.366584     -2.359044   1.000000   1.000000
   23       -2.124451     -2.113960   1.000000   1.000000
   24       -1.918665     -1.910872   1.000000   1.000000
   25       -1.765153     -1.755880   1.000000   1.000000
   26       -1.447296     -1.437590   1.000000   1.000000
   27       -1.141719     -1.132438   1.000000   1.000000
   28       -0.998463     -0.986863   1.000000   1.000000
   29       -0.476975     -0.465526   1.000000   1.000000
   30       -0.260553     -0.246894   1.000000   1.000000
   31        0.021046      0.027833   1.000000   1.000000
   32        0.345294      0.359126   1.000000   1.000000
   33        0.896088      0.906241   1.000000   1.000000
   34        2.686951      2.709633   1.000000   1.000000
   35        2.903989      2.924899   1.000000   1.000000
   36        3.596534      3.632352   1.000000   1.000000
   37        3.924007      3.946304   1.000000   1.000000
   38        4.157456      4.200966   1.000000   1.000000
   39        4.420395      4.445877   0.624832   0.457976
   40        4.773956      4.797002  -0.066276  -0.047199
   41        4.995192      5.014093   0.000000   0.000000
   42        5.188082      5.211823   0.000000   0.000000
   43        5.657482      5.686307   0.000000   0.000000
   44        5.870954      5.893535   0.000000   0.000000
   45        6.186285      6.199854   0.000000   0.000000
   46        6.490833      6.513351   0.000000   0.000000
   47        6.617818      6.639244   0.000000   0.000000
   48        6.786365      6.804176   0.000000   0.000000
   49        7.171953      7.199803   0.000000   0.000000
   50        7.252753      7.276578   0.000000   0.000000
   51        7.900110      7.928059   0.000000   0.000000
   52        8.017174      8.042988   0.000000   0.000000
   53        8.527741      8.549890   0.000000   0.000000
   54        8.758896      8.779949   0.000000   0.000000
   55        9.092054      9.117918   0.000000   0.000000
   56        9.262093      9.277999   0.000000   0.000000
   57        9.476981      9.497079   0.000000   0.000000