  11  11   0   0
  0.1013063E+02  0.3536782E-09  0.5231586E-09  0.8621462E-09  0.5000000E-15
  1.000000000000000E-004
  CAR 
 unknown system                          
     10.73283319    -34.07844585  301      2.17267983      1.00000000
    -34.078  0.0000E+00  0.0000E+00
    -33.929  0.0000E+00  0.0000E+00
    -33.780  0.0000E+00  0.0000E+00
    -33.630  0.0000E+00  0.0000E+00
    -33.481  0.0000E+00  0.0000E+00
    -33.332  0.0000E+00  0.0000E+00
    -33.182  0.0000E+00  0.0000E+00
    -33.033  0.0000E+00  0.0000E+00
    -32.883  0.1377E-30  0.2056E-31
    -32.734  0.8542E-21  0.1276E-21
    -32.585  0.5630E-13  0.8410E-14
    -32.435  0.3717E-07  0.5552E-08
    -32.286  0.1954E-03  0.2920E-04
    -32.137 -0.5827E-02 -0.8412E-03
    -31.987  0.2110E+00  0.3068E-01
    -31.838  0.2491E+00  0.6788E-01
    -31.689 -0.8355E-02  0.6663E-01
    -31.539  0.2572E-03  0.6667E-01
    -31.390  0.4979E-07  0.6667E-01
    -31.240  0.7016E-13  0.6667E-01
    -31.091  0.0000E+00  0.6667E-01
    -30.942  0.0000E+00  0.6667E-01
    -30.792  0.0000E+00  0.6667E-01
    -30.643  0.0000E+00  0.6667E-01
    -30.494  0.0000E+00  0.6667E-01
    -30.344  0.0000E+00  0.6667E-01
    -30.195  0.0000E+00  0.6667E-01
    -30.045  0.0000E+00  0.6667E-01
    -29.896  0.4356E-30  0.6667E-01
    -29.747  0.2504E-20  0.6667E-01
    -29.597  0.1472E-12  0.6667E-01
    -29.448  0.7938E-07  0.6667E-01
    -29.299  0.2714E-03  0.6671E-01
    -29.149 -0.7384E-02  0.6560E-01
    -29.000  0.1961E+00  0.9490E-01
    -28.850  0.3566E+00  0.1482E+00
    -28.701  0.1266E+00  0.1671E+00
    -28.552 -0.2788E-02  0.1667E+00
    -28.402  0.8958E-04  0.1667E+00
    -28.253  0.6814E-08  0.1667E+00
    -28.104  0.3576E-14  0.1667E+00
    -27.954  0.0000E+00  0.1667E+00
    -27.805  0.0000E+00  0.1667E+00
    -27.655  0.0000E+00  0.1667E+00
    -27.506  0.0000E+00  0.1667E+00
    -27.357  0.0000E+00  0.1667E+00
    -27.207  0.0000E+00  0.1667E+00
    -27.058  0.0000E+00  0.1667E+00
    -26.909  0.0000E+00  0.1667E+00
    -26.759  0.0000E+00  0.1667E+00
    -26.610  0.0000E+00  0.1667E+00
    -26.461  0.0000E+00  0.1667E+00
    -26.311  0.0000E+00  0.1667E+00
    -26.162  0.0000E+00  0.1667E+00
    -26.012  0.0000E+00  0.1667E+00
    -25.863  0.0000E+00  0.1667E+00
    -25.714  0.0000E+00  0.1667E+00
    -25.564  0.0000E+00  0.1667E+00
    -25.415  0.0000E+00  0.1667E+00
    -25.266  0.0000E+00  0.1667E+00
    -25.116  0.0000E+00  0.1667E+00
    -24.967  0.0000E+00  0.1667E+00
    -24.817  0.0000E+00  0.1667E+00
    -24.668  0.0000E+00  0.1667E+00
    -24.519  0.0000E+00  0.1667E+00
    -24.369  0.0000E+00  0.1667E+00
    -24.220  0.0000E+00  0.1667E+00
    -24.071  0.0000E+00  0.1667E+00
    -23.921  0.0000E+00  0.1667E+00
    -23.772  0.0000E+00  0.1667E+00
    -23.622  0.0000E+00  0.1667E+00
    -23.473  0.0000E+00  0.1667E+00
    -23.324  0.0000E+00  0.1667E+00
    -23.174  0.0000E+00  0.1667E+00
    -23.025  0.0000E+00  0.1667E+00
    -22.876  0.0000E+00  0.1667E+00
    -22.726  0.0000E+00  0.1667E+00
    -22.577  0.0000E+00  0.1667E+00
    -22.428  0.0000E+00  0.1667E+00
    -22.278  0.0000E+00  0.1667E+00
    -22.129  0.0000E+00  0.1667E+00
    -21.979  0.0000E+00  0.1667E+00
    -21.830  0.0000E+00  0.1667E+00
    -21.681  0.0000E+00  0.1667E+00
    -21.531  0.0000E+00  0.1667E+00
    -21.382  0.0000E+00  0.1667E+00
    -21.233  0.0000E+00  0.1667E+00
    -21.083  0.0000E+00  0.1667E+00
    -20.934  0.0000E+00  0.1667E+00
    -20.784  0.0000E+00  0.1667E+00
    -20.635  0.0000E+00  0.1667E+00
    -20.486  0.0000E+00  0.1667E+00
    -20.336  0.0000E+00  0.1667E+00
    -20.187  0.0000E+00  0.1667E+00
    -20.038  0.0000E+00  0.1667E+00
    -19.888  0.0000E+00  0.1667E+00
    -19.739  0.0000E+00  0.1667E+00
    -19.589  0.0000E+00  0.1667E+00
    -19.440  0.0000E+00  0.1667E+00
    -19.291  0.0000E+00  0.1667E+00
    -19.141  0.0000E+00  0.1667E+00
    -18.992  0.0000E+00  0.1667E+00
    -18.843  0.0000E+00  0.1667E+00
    -18.693  0.0000E+00  0.1667E+00
    -18.544  0.0000E+00  0.1667E+00
    -18.394  0.0000E+00  0.1667E+00
    -18.245  0.0000E+00  0.1667E+00
    -18.096  0.0000E+00  0.1667E+00
    -17.946  0.0000E+00  0.1667E+00
    -17.797  0.0000E+00  0.1667E+00
    -17.648  0.0000E+00  0.1667E+00
    -17.498  0.0000E+00  0.1667E+00
    -17.349  0.0000E+00  0.1667E+00
    -17.200  0.0000E+00  0.1667E+00
    -17.050  0.0000E+00  0.1667E+00
    -16.901  0.0000E+00  0.1667E+00
    -16.751  0.0000E+00  0.1667E+00
    -16.602  0.0000E+00  0.1667E+00
    -16.453  0.0000E+00  0.1667E+00
    -16.303  0.0000E+00  0.1667E+00
    -16.154  0.0000E+00  0.1667E+00
    -16.005  0.0000E+00  0.1667E+00
    -15.855  0.0000E+00  0.1667E+00
    -15.706  0.0000E+00  0.1667E+00
    -15.556  0.5154E-39  0.1667E+00
    -15.407  0.7300E-28  0.1667E+00
    -15.258  0.9754E-19  0.1667E+00
    -15.108  0.1381E-11  0.1667E+00
    -14.959  0.1904E-06  0.1667E+00
    -14.810  0.1640E-03  0.1667E+00
    -14.660 -0.2511E-02  0.1663E+00
    -14.511  0.7982E-01  0.1782E+00
    -14.361  0.1262E+00  0.1971E+00
    -14.212  0.2125E+00  0.2288E+00
    -14.063  0.2654E+00  0.2685E+00
    -13.913  0.5232E+00  0.3466E+00
    -13.764  0.1372E+00  0.3671E+00
    -13.615 -0.3287E-02  0.3666E+00
    -13.465  0.2528E-03  0.3667E+00
    -13.316  0.2287E-06  0.3667E+00
    -13.167  0.1326E-11  0.3667E+00
    -13.017  0.0000E+00  0.3667E+00
    -12.868  0.0000E+00  0.3667E+00
    -12.718  0.0000E+00  0.3667E+00
    -12.569  0.0000E+00  0.3667E+00
    -12.420  0.0000E+00  0.3667E+00
    -12.270  0.0000E+00  0.3667E+00
    -12.121  0.0000E+00  0.3667E+00
    -11.972  0.0000E+00  0.3667E+00
    -11.822  0.0000E+00  0.3667E+00
    -11.673  0.0000E+00  0.3667E+00
    -11.523  0.0000E+00  0.3667E+00
    -11.374  0.0000E+00  0.3667E+00
    -11.225  0.0000E+00  0.3667E+00
    -11.075  0.0000E+00  0.3667E+00
    -10.926  0.0000E+00  0.3667E+00
    -10.777  0.0000E+00  0.3667E+00
    -10.627  0.0000E+00  0.3667E+00
    -10.478  0.0000E+00  0.3667E+00
    -10.328  0.0000E+00  0.3667E+00
    -10.179  0.0000E+00  0.3667E+00
    -10.030  0.0000E+00  0.3667E+00
     -9.880  0.0000E+00  0.3667E+00
     -9.731  0.0000E+00  0.3667E+00
     -9.582  0.0000E+00  0.3667E+00
     -9.432  0.0000E+00  0.3667E+00
     -9.283  0.0000E+00  0.3667E+00
     -9.134  0.0000E+00  0.3667E+00
     -8.984  0.0000E+00  0.3667E+00
     -8.835  0.0000E+00  0.3667E+00
     -8.685  0.0000E+00  0.3667E+00
     -8.536  0.0000E+00  0.3667E+00
     -8.387  0.0000E+00  0.3667E+00
     -8.237  0.0000E+00  0.3667E+00
     -8.088  0.0000E+00  0.3667E+00
     -7.939  0.0000E+00  0.3667E+00
     -7.789  0.0000E+00  0.3667E+00
     -7.640  0.0000E+00  0.3667E+00
     -7.490  0.0000E+00  0.3667E+00
     -7.341  0.0000E+00  0.3667E+00
     -7.192  0.0000E+00  0.3667E+00
     -7.042  0.0000E+00  0.3667E+00
     -6.893  0.5037E-33  0.3667E+00
     -6.744  0.3502E-23  0.3667E+00
     -6.594  0.2414E-15  0.3667E+00
     -6.445  0.1492E-09  0.3667E+00
     -6.295  0.6524E-06  0.3667E+00
     -6.146 -0.6758E-06  0.3667E+00
     -5.997  0.4907E-03  0.3667E+00
     -5.847  0.6466E-02  0.3677E+00
     -5.698  0.8605E-02  0.3690E+00
     -5.549  0.9088E-02  0.3703E+00
     -5.399  0.1031E-01  0.3719E+00
     -5.250  0.6252E-02  0.3728E+00
     -5.100  0.1595E-01  0.3752E+00
     -4.951  0.5302E-02  0.3760E+00
     -4.802  0.1224E-01  0.3778E+00
     -4.652  0.1626E-01  0.3803E+00
     -4.503  0.9210E-02  0.3816E+00
     -4.354  0.1134E-01  0.3833E+00
     -4.204  0.2598E-01  0.3872E+00
     -4.055  0.1118E-01  0.3889E+00
     -3.906  0.1327E-01  0.3909E+00
     -3.756  0.1200E-01  0.3926E+00
     -3.607  0.7590E-02  0.3938E+00
     -3.457  0.8225E-02  0.3950E+00
     -3.308  0.1487E-01  0.3972E+00
     -3.159  0.2078E-01  0.4003E+00
     -3.009  0.3666E-01  0.4058E+00
     -2.860  0.2978E-01  0.4103E+00
     -2.711  0.4307E-01  0.4167E+00
     -2.561  0.6413E-01  0.4263E+00
     -2.412  0.7349E-01  0.4372E+00
     -2.262  0.3592E-01  0.4426E+00
     -2.113  0.5626E-01  0.4510E+00
     -1.964  0.9123E-01  0.4646E+00
     -1.814  0.8091E-01  0.4767E+00
     -1.665  0.8365E-01  0.4892E+00
     -1.516  0.4683E-01  0.4962E+00
     -1.366  0.4067E-01  0.5023E+00
     -1.217  0.3771E-01  0.5079E+00
     -1.067  0.1988E-01  0.5109E+00
     -0.918  0.4924E-01  0.5183E+00
     -0.769  0.8299E-01  0.5306E+00
     -0.619  0.7018E-01  0.5411E+00
     -0.470  0.5513E-01  0.5494E+00
     -0.321  0.4756E-01  0.5565E+00
     -0.171  0.4164E-01  0.5627E+00
     -0.022  0.6065E-01  0.5717E+00
      0.127  0.5983E-01  0.5807E+00
      0.277  0.7490E-01  0.5919E+00
      0.426  0.6033E-01  0.6009E+00
      0.576  0.4529E-01  0.6077E+00
      0.725  0.4077E-01  0.6137E+00
      0.874  0.4413E-01  0.6203E+00
      1.024  0.3195E-01  0.6251E+00
      1.173  0.1176E-01  0.6269E+00
      1.322  0.1719E-01  0.6294E+00
      1.472  0.3534E-01  0.6347E+00
      1.621  0.2947E-01  0.6391E+00
      1.771  0.2908E-01  0.6435E+00
      1.920  0.2047E-01  0.6465E+00
      2.069  0.7573E-02  0.6476E+00
      2.219  0.1962E-01  0.6506E+00
      2.368  0.7810E-02  0.6517E+00
      2.517  0.1155E-01  0.6535E+00
      2.667  0.1452E-01  0.6556E+00
      2.816  0.4491E-02  0.6563E+00
      2.966  0.2448E-01  0.6600E+00
      3.115  0.1483E-01  0.6622E+00
      3.264  0.3236E-01  0.6670E+00
      3.414  0.2194E-01  0.6703E+00
      3.563  0.1275E-01  0.6722E+00
      3.712  0.1740E-01  0.6748E+00
      3.862  0.1996E-01  0.6778E+00
      4.011  0.4949E-01  0.6852E+00
      4.161  0.3893E-01  0.6910E+00
      4.310  0.4739E-01  0.6981E+00
      4.459  0.5490E-01  0.7063E+00
      4.609  0.4622E-01  0.7132E+00
      4.758  0.4755E-01  0.7203E+00
      4.907  0.6959E-01  0.7307E+00
      5.057  0.5183E-01  0.7384E+00
      5.206  0.4532E-01  0.7452E+00
      5.355  0.3427E-01  0.7503E+00
      5.505  0.4188E-01  0.7565E+00
      5.654  0.4830E-01  0.7638E+00
      5.804  0.5501E-01  0.7720E+00
      5.953  0.5072E-01  0.7796E+00
      6.102  0.6404E-01  0.7891E+00
      6.252  0.5427E-01  0.7972E+00
      6.401  0.4983E-01  0.8047E+00
      6.550  0.6322E-01  0.8141E+00
      6.700  0.5145E-01  0.8218E+00
      6.849  0.7387E-01  0.8328E+00
      6.999  0.7460E-01  0.8440E+00
      7.148  0.7379E-01  0.8550E+00
      7.297  0.7139E-01  0.8657E+00
      7.447  0.7619E-01  0.8770E+00
      7.596  0.7760E-01  0.8886E+00
      7.745  0.8262E-01  0.9010E+00
      7.895  0.6238E-01  0.9103E+00
      8.044  0.5735E-01  0.9189E+00
      8.194  0.5132E-01  0.9265E+00
      8.343  0.2865E-01  0.9308E+00
      8.492  0.1154E-01  0.9325E+00
      8.642  0.4298E-02  0.9332E+00
      8.791  0.1131E-02  0.9333E+00
      8.940 -0.3020E-04  0.9333E+00
      9.090  0.1647E-05  0.9333E+00
      9.239  0.6521E-09  0.9333E+00
      9.388  0.1567E-14  0.9333E+00
      9.538  0.0000E+00  0.9333E+00
      9.687  0.0000E+00  0.9333E+00
      9.837  0.0000E+00  0.9333E+00
      9.986  0.0000E+00  0.9333E+00
     10.135  0.0000E+00  0.9333E+00
     10.285  0.0000E+00  0.9333E+00
     10.434  0.0000E+00  0.9333E+00
     10.583  0.0000E+00  0.9333E+00
     10.733  0.0000E+00  0.9333E+00
