unknown system                          
           1
     3.363151    1.079478    0.181019
     2.250652    4.710894   -0.333961
     1.508677   -0.332278    8.481928
   H    Sr   H    Nb   H    Sr   H 
   2   1   4   1   1   1   1
Direct configuration=     1
   0.67070202  0.94767855  0.38242230
   0.59707773  0.56108290  0.33261917
   0.63073750  0.69564638  0.95377601
   0.32040960  0.60144203  0.76422618
   0.87032145  0.85737899  0.15994664
   0.06016107  0.49091966  0.51017673
   0.12127586  0.08846691  0.22664646
   0.33316668  0.31785096  0.27664582
   0.49483207  0.28222338  0.04416571
   0.99672127  0.01245533  0.59249421
   0.30224775  0.11056589  0.78350177
unknown system                          
           1
     3.361187    1.079796    0.181152
     2.249674    4.711305   -0.334626
     1.508143   -0.333220    8.486737
   H    Sr   H    Nb   H    Sr   H 
   2   1   4   1   1   1   1
Direct configuration=     2
   0.67075425  0.94758416  0.38249928
   0.59726133  0.56103499  0.33257663
   0.63083861  0.69563068  0.95377105
   0.32042488  0.60145264  0.76422312
   0.87058419  0.85716090  0.16007995
   0.06015401  0.49096787  0.51015774
   0.12105166  0.08849164  0.22655219
   0.33267651  0.31829328  0.27652033
   0.49510542  0.28198440  0.04420094
   0.99660522  0.01252455  0.59252283
   0.30219692  0.11058590  0.78351694
unknown system                          
           1
     3.358328    1.080259    0.181345
     2.248250    4.711904   -0.335593
     1.507366   -0.334592    8.493741
   H    Sr   H    Nb   H    Sr   H 
   2   1   4   1   1   1   1
Direct configuration=     3
   0.67083035  0.94744672  0.38261131
   0.59752884  0.56096516  0.33251470
   0.63098595  0.69560778  0.95376383
   0.32044714  0.60146807  0.76421866
   0.87096702  0.85684331  0.16027392
   0.06014374  0.49103805  0.51013010
   0.12072491  0.08852770  0.22641502
   0.33196239  0.31893740  0.27633778
   0.49550364  0.28163639  0.04425217
   0.99643615  0.01262536  0.59256449
   0.30212286  0.11061506  0.78353902
