       N       E                     dE             d eps       ncg     rms          rms(c)
DAV:   1     0.169444587999E+03    0.16944E+03   -0.13053E+04 17448   0.728E+02
DAV:   2    -0.272559305970E+02   -0.19670E+03   -0.19236E+03 20656   0.287E+02
DAV:   3    -0.421854024881E+02   -0.14929E+02   -0.14825E+02 26704   0.591E+01
DAV:   4    -0.430645713294E+02   -0.87917E+00   -0.87651E+00 26376   0.126E+01
DAV:   5    -0.430882426279E+02   -0.23671E-01   -0.23663E-01 26380   0.185E+00    0.330E+01
DAV:   6    -0.403796245734E+02    0.27086E+01   -0.91952E+00 24304   0.139E+01    0.152E+01
DAV:   7    -0.398833268939E+02    0.49630E+00   -0.53249E+00 23584   0.748E+00    0.101E+01
DAV:   8    -0.396772934511E+02    0.20603E+00   -0.15208E+00 24616   0.538E+00    0.272E+00
DAV:   9    -0.396795687384E+02   -0.22753E-02   -0.75791E-02 21116   0.150E+00    0.578E-01
DAV:  10    -0.396780822564E+02    0.14865E-02   -0.14850E-02 23544   0.567E-01    0.322E-01
DAV:  11    -0.396788132582E+02   -0.73100E-03   -0.18860E-03 22040   0.246E-01    0.109E-01
DAV:  12    -0.396788774689E+02   -0.64211E-04   -0.23214E-04 15676   0.831E-02
   1 F= -.39678877E+02 E0= -.39678952E+02  d E =-.396789E+02
       N       E                     dE             d eps       ncg     rms          rms(c)
DAV:   1    -0.396857647989E+02   -0.69515E-02   -0.41699E-01 17048   0.482E+00    0.715E-01
DAV:   2    -0.396845862292E+02    0.11786E-02   -0.60740E-02 20760   0.144E+00    0.287E-01
DAV:   3    -0.396832304029E+02    0.13558E-02   -0.66068E-03 23000   0.378E-01    0.194E-01
DAV:   4    -0.396828267375E+02    0.40367E-03   -0.14889E-03 28576   0.213E-01    0.172E-01
DAV:   5    -0.396828426116E+02   -0.15874E-04   -0.11201E-04 12340   0.519E-02
   2 F= -.39682843E+02 E0= -.39682930E+02  d E =-.396514E-02
       N       E                     dE             d eps       ncg     rms          rms(c)
DAV:   1    -0.396827664295E+02    0.60308E-04   -0.14677E-02 17688   0.905E-01    0.134E-01
DAV:   2    -0.396826874627E+02    0.78967E-04   -0.22971E-03 21756   0.279E-01    0.562E-02
DAV:   3    -0.396826414189E+02    0.46044E-04   -0.23332E-04 11872   0.705E-02
   3 F= -.39682641E+02 E0= -.39682731E+02  d E =-.376395E-02
       N       E                     dE             d eps       ncg     rms          rms(c)
DAV:   1    -0.396893209841E+02   -0.66335E-02   -0.25096E-01 16456   0.337E+00    0.592E-01
DAV:   2    -0.396863026635E+02    0.30183E-02   -0.31080E-02 22544   0.104E+00    0.236E-01
DAV:   3    -0.396853097191E+02    0.99294E-03   -0.50355E-03 23016   0.315E-01    0.166E-01
DAV:   4    -0.396850207036E+02    0.28902E-03   -0.10652E-03 27920   0.170E-01    0.156E-01
DAV:   5    -0.396850352567E+02   -0.14553E-04   -0.68331E-05 11364   0.424E-02
   4 F= -.39685035E+02 E0= -.39685136E+02  d E =-.239384E-02
       N       E                     dE             d eps       ncg     rms          rms(c)
DAV:   1    -0.397072760266E+02   -0.22255E-01   -0.13258E+00 16360   0.778E+00    0.140E+00
DAV:   2    -0.396918785095E+02    0.15398E-01   -0.16140E-01 22500   0.239E+00    0.550E-01
DAV:   3    -0.396867387985E+02    0.51397E-02   -0.25794E-02 23120   0.720E-01    0.356E-01
DAV:   4    -0.396852158483E+02    0.15230E-02   -0.56551E-03 29160   0.394E-01    0.331E-01
DAV:   5    -0.396852792916E+02   -0.63443E-04   -0.49988E-04 20900   0.927E-02
   5 F= -.39685279E+02 E0= -.39685399E+02  d E =-.263787E-02
       N       E                     dE             d eps       ncg     rms          rms(c)
DAV:   1    -0.396889578074E+02   -0.37420E-02   -0.23617E-01 18732   0.360E+00    0.343E-01
DAV:   2    -0.396892777728E+02   -0.31997E-03   -0.27724E-02 20816   0.868E-01    0.182E-01
DAV:   3    -0.396890103740E+02    0.26740E-03   -0.15199E-03 24320   0.193E-01    0.115E-01
DAV:   4    -0.396889353021E+02    0.75072E-04   -0.25501E-04 14704   0.984E-02
   6 F= -.39688935E+02 E0= -.39689060E+02  d E =-.365601E-02
       N       E                     dE             d eps       ncg     rms          rms(c)
DAV:   1    -0.396911286123E+02   -0.21182E-02   -0.34872E-01 18688   0.436E+00    0.417E-01
DAV:   2    -0.396914703985E+02   -0.34179E-03   -0.40471E-02 20896   0.106E+00    0.222E-01
DAV:   3    -0.396910398838E+02    0.43051E-03   -0.22093E-03 24460   0.235E-01    0.141E-01
DAV:   4    -0.396909088126E+02    0.13107E-03   -0.42232E-04 19528   0.121E-01    0.106E-01
DAV:   5    -0.396909014821E+02    0.73305E-05   -0.15332E-04 13080   0.664E-02
   7 F= -.39690901E+02 E0= -.39691035E+02  d E =-.562219E-02
       N       E                     dE             d eps       ncg     rms          rms(c)
DAV:   1    -0.396952246276E+02   -0.43158E-02   -0.15962E-01 18728   0.304E+00    0.423E-01
DAV:   2    -0.396949100383E+02    0.31459E-03   -0.26011E-02 20220   0.857E-01    0.188E-01
DAV:   3    -0.396944702550E+02    0.43978E-03   -0.28259E-03 27608   0.231E-01    0.111E-01
DAV:   4    -0.396943364075E+02    0.13385E-03   -0.52270E-04 22864   0.136E-01    0.885E-02
DAV:   5    -0.396943435957E+02   -0.71882E-05   -0.42206E-05 10796   0.353E-02
   8 F= -.39694344E+02 E0= -.39694483E+02  d E =-.344211E-02
       N       E                     dE             d eps       ncg     rms          rms(c)
DAV:   1    -0.397008045994E+02   -0.64682E-02   -0.84455E-01 18304   0.699E+00    0.928E-01
DAV:   2    -0.396992540002E+02    0.15506E-02   -0.13981E-01 20004   0.199E+00    0.406E-01
DAV:   3    -0.396969883415E+02    0.22657E-02   -0.14242E-02 26552   0.518E-01    0.244E-01
DAV:   4    -0.396963720539E+02    0.61629E-03   -0.27022E-03 28512   0.299E-01    0.204E-01
DAV:   5    -0.396964296169E+02   -0.57563E-04   -0.23301E-04 16840   0.657E-02
   9 F= -.39696430E+02 E0= -.39696581E+02  d E =-.552813E-02
       N       E                     dE             d eps       ncg     rms          rms(c)
DAV:   1    -0.397004477136E+02   -0.40757E-02   -0.10655E-01 16436   0.204E+00    0.397E-01
DAV:   2    -0.396989205364E+02    0.15272E-02   -0.17591E-02 23624   0.709E-01    0.197E-01
DAV:   3    -0.396983908984E+02    0.52964E-03   -0.28732E-03 24160   0.217E-01    0.934E-02
DAV:   4    -0.396982529059E+02    0.13799E-03   -0.61137E-04 22408   0.133E-01    0.939E-02
DAV:   5    -0.396982636068E+02   -0.10701E-04   -0.52141E-05 10912   0.375E-02
  10 F= -.39698264E+02 E0= -.39698415E+02  d E =-.183399E-02
       N       E                     dE             d eps       ncg     rms          rms(c)
DAV:   1    -0.397040895500E+02   -0.58366E-02   -0.23585E-01 16384   0.303E+00    0.583E-01
DAV:   2    -0.397009090023E+02    0.31805E-02   -0.39184E-02 23400   0.106E+00    0.288E-01
DAV:   3    -0.396997483123E+02    0.11607E-02   -0.63580E-03 23876   0.327E-01    0.141E-01
DAV:   4    -0.396994253592E+02    0.32295E-03   -0.13474E-03 29400   0.193E-01    0.136E-01
DAV:   5    -0.396994481231E+02   -0.22764E-04   -0.78921E-05 11744   0.415E-02
  11 F= -.39699448E+02 E0= -.39699600E+02  d E =-.301851E-02
       N       E                     dE             d eps       ncg     rms          rms(c)
DAV:   1    -0.397007498989E+02   -0.13245E-02   -0.93746E-02 18700   0.239E+00    0.200E-01
DAV:   2    -0.397016936663E+02   -0.94377E-03   -0.12351E-02 17464   0.577E-01    0.109E-01
DAV:   3    -0.397016390376E+02    0.54629E-04   -0.37225E-04 20840   0.105E-01
  12 F= -.39701639E+02 E0= -.39701787E+02  d E =-.219091E-02
       N       E                     dE             d eps       ncg     rms          rms(c)
DAV:   1    -0.396985595445E+02    0.31341E-02   -0.44417E-01 18680   0.520E+00    0.425E-01
DAV:   2    -0.397029375613E+02   -0.43780E-02   -0.58068E-02 17472   0.124E+00    0.231E-01
DAV:   3    -0.397027001014E+02    0.23746E-03   -0.18029E-03 25616   0.215E-01    0.137E-01
DAV:   4    -0.397026378913E+02    0.62210E-04   -0.41309E-04 19836   0.128E-01
  13 F= -.39702638E+02 E0= -.39702776E+02  d E =-.318977E-02
       N       E                     dE             d eps       ncg     rms          rms(c)
DAV:   1    -0.397037746700E+02   -0.10746E-02   -0.11369E-01 18696   0.255E+00    0.222E-01
DAV:   2    -0.397046116972E+02   -0.83703E-03   -0.17561E-02 19780   0.671E-01    0.117E-01
DAV:   3    -0.397045212386E+02    0.90459E-04   -0.77047E-04 23220   0.135E-01
  14 F= -.39704521E+02 E0= -.39704665E+02  d E =-.188335E-02
       N       E                     dE             d eps       ncg     rms          rms(c)
DAV:   1    -0.397043132796E+02    0.29842E-03   -0.63833E-02 18728   0.192E+00    0.166E-01
DAV:   2    -0.397047458945E+02   -0.43261E-03   -0.93645E-03 20176   0.499E-01    0.115E-01
DAV:   3    -0.397046938862E+02    0.52008E-04   -0.39909E-04 20268   0.997E-02
  15 F= -.39704694E+02 E0= -.39704837E+02  d E =-.205599E-02
       N       E                     dE             d eps       ncg     rms          rms(c)
DAV:   1    -0.397070333724E+02   -0.22875E-02   -0.10363E-01 16868   0.230E+00    0.348E-01
DAV:   2    -0.397061777286E+02    0.85564E-03   -0.19205E-02 23504   0.755E-01    0.182E-01
DAV:   3    -0.397057612449E+02    0.41648E-03   -0.22880E-03 24456   0.210E-01    0.106E-01
DAV:   4    -0.397056553179E+02    0.10593E-03   -0.46924E-04 21656   0.115E-01    0.111E-01
DAV:   5    -0.397056742411E+02   -0.18923E-04   -0.47425E-05 10484   0.356E-02
  16 F= -.39705674E+02 E0= -.39705811E+02  d E =-.980355E-03
       N       E                     dE             d eps       ncg     rms          rms(c)
DAV:   1    -0.397075197481E+02   -0.18644E-02   -0.12202E-01 17216   0.250E+00    0.388E-01
DAV:   2    -0.397064753184E+02    0.10444E-02   -0.22622E-02 23400   0.813E-01    0.194E-01
DAV:   3    -0.397059837712E+02    0.49155E-03   -0.27837E-03 25904   0.232E-01    0.965E-02
DAV:   4    -0.397058580234E+02    0.12575E-03   -0.53566E-04 22864   0.125E-01    0.104E-01
DAV:   5    -0.397058764496E+02   -0.18426E-04   -0.47485E-05 10592   0.349E-02
  17 F= -.39705876E+02 E0= -.39706007E+02  d E =-.118256E-02
       N       E                     dE             d eps       ncg     rms          rms(c)
DAV:   1    -0.397074234194E+02   -0.15654E-02   -0.96023E-02 18056   0.232E+00    0.262E-01
DAV:   2    -0.397075555946E+02   -0.13218E-03   -0.12026E-02 19432   0.620E-01    0.112E-01
DAV:   3    -0.397073984078E+02    0.15719E-03   -0.97527E-04 24084   0.143E-01    0.668E-02
DAV:   4    -0.397073593802E+02    0.39028E-04   -0.13619E-04 11504   0.804E-02
  18 F= -.39707359E+02 E0= -.39707482E+02  d E =-.148293E-02
       N       E                     dE             d eps       ncg     rms          rms(c)
DAV:   1    -0.397080770558E+02   -0.67865E-03   -0.19016E-01 17984   0.328E+00    0.362E-01
DAV:   2    -0.397083077649E+02   -0.23071E-03   -0.23750E-02 19336   0.866E-01    0.156E-01
DAV:   3    -0.397079906725E+02    0.31709E-03   -0.19637E-03 25600   0.203E-01    0.110E-01
DAV:   4    -0.397079210464E+02    0.69626E-04   -0.35794E-04 17696   0.114E-01
  19 F= -.39707921E+02 E0= -.39708035E+02  d E =-.204460E-02
       N       E                     dE             d eps       ncg     rms          rms(c)
DAV:   1    -0.397090212544E+02   -0.10306E-02   -0.60504E-02 18688   0.176E+00    0.122E-01
DAV:   2    -0.397092468544E+02   -0.22560E-03   -0.46164E-03 18624   0.393E-01    0.760E-02
DAV:   3    -0.397092222317E+02    0.24623E-04   -0.16595E-04 15812   0.734E-02
  20 F= -.39709222E+02 E0= -.39709332E+02  d E =-.130119E-02
       N       E                     dE             d eps       ncg     rms          rms(c)
DAV:   1    -0.397097369910E+02   -0.49014E-03   -0.53839E-01 18688   0.522E+00    0.368E-01
DAV:   2    -0.397118681886E+02   -0.21312E-02   -0.41156E-02 18612   0.116E+00    0.176E-01
DAV:   3    -0.397116410041E+02    0.22718E-03   -0.14379E-03 26080   0.207E-01    0.109E-01
DAV:   4    -0.397115844504E+02    0.56554E-04   -0.18249E-04 12444   0.900E-02
  21 F= -.39711584E+02 E0= -.39711684E+02  d E =-.366340E-02
       N       E                     dE             d eps       ncg     rms          rms(c)
DAV:   1    -0.397135295807E+02   -0.18886E-02   -0.14200E-01 18512   0.293E+00    0.337E-01
DAV:   2    -0.397141172916E+02   -0.58771E-03   -0.22197E-02 18492   0.775E-01    0.160E-01
DAV:   3    -0.397138569378E+02    0.26035E-03   -0.16052E-03 24788   0.183E-01    0.956E-02
DAV:   4    -0.397137712373E+02    0.85700E-04   -0.36248E-04 17976   0.117E-01
  22 F= -.39713771E+02 E0= -.39713877E+02  d E =-.218679E-02
       N       E                     dE             d eps       ncg     rms          rms(c)
DAV:   1    -0.397140028174E+02   -0.14588E-03   -0.53255E-02 18220   0.182E+00    0.214E-01
DAV:   2    -0.397141793907E+02   -0.17657E-03   -0.84064E-03 18424   0.478E-01    0.982E-02
DAV:   3    -0.397140742697E+02    0.10512E-03   -0.59326E-04 22200   0.111E-01    0.723E-02
DAV:   4    -0.397140460654E+02    0.28204E-04   -0.14430E-04 11532   0.829E-02
  23 F= -.39714046E+02 E0= -.39714153E+02  d E =-.246161E-02
       N       E                     dE             d eps       ncg     rms          rms(c)
DAV:   1    -0.397161068027E+02   -0.20325E-02   -0.48004E-02 16396   0.143E+00    0.305E-01
DAV:   2    -0.397152044552E+02    0.90235E-03   -0.10098E-02 23344   0.531E-01    0.138E-01
DAV:   3    -0.397148581197E+02    0.34634E-03   -0.16893E-03 20824   0.167E-01    0.837E-02
DAV:   4    -0.397147649766E+02    0.93143E-04   -0.47080E-04 22740   0.115E-01
  24 F= -.39714765E+02 E0= -.39714874E+02  d E =-.718911E-03
       N       E                     dE             d eps       ncg     rms          rms(c)
DAV:   1    -0.397151436340E+02   -0.28551E-03   -0.10640E-02 16832   0.671E-01    0.158E-01
DAV:   2    -0.397148967315E+02    0.24690E-03   -0.24398E-03 23064   0.269E-01    0.645E-02
DAV:   3    -0.397148108996E+02    0.85832E-04   -0.41545E-04 15812   0.834E-02
  25 F= -.39714811E+02 E0= -.39714919E+02  d E =-.764834E-03
