unknown system                          
           1
     3.502910    0.093933   -0.173398
     1.520560    6.301336   -0.485398
     0.172782    2.185819    4.962087
   Sr   Nb   H 
   2   1   7
Direct configuration=     1
   0.26231800  0.62129000  0.95828500
   0.95280200  0.25061500  0.61474100
   0.58795500  0.97550900  0.21978900
   0.09109500  0.96709900  0.07165900
   0.60524400  0.93834300  0.88404500
   0.10954600  0.92752700  0.44987600
   0.45892400  0.23619300  0.32080600
   0.46133600  0.23713700  0.94771400
   0.74764600  0.65440600  0.24421400
   0.33133800  0.50238800  0.59414300
unknown system                          
           1
     3.540574    0.095108   -0.175192
     1.537389    6.354201   -0.494775
     0.174477    2.199976    5.002993
   Sr   Nb   H 
   2   1   7
Direct configuration=     2
   0.26225741  0.62153530  0.95840087
   0.95259646  0.25094107  0.61498624
   0.58821376  0.97522015  0.21854640
   0.09107427  0.96706063  0.07169408
   0.60525118  0.93832430  0.88492260
   0.10951912  0.92752666  0.45009375
   0.45889609  0.23619113  0.32089550
   0.46131390  0.23713731  0.94758695
   0.74770332  0.65439453  0.24400227
   0.33137849  0.50217593  0.59414333
unknown system                          
           1
     3.573051    0.096120   -0.176739
     1.551900    6.399786   -0.502861
     0.175938    2.212184    5.038265
   Sr   Nb   H 
   2   1   7
Direct configuration=     3
   0.26220546  0.62174505  0.95850017
   0.95242074  0.25121994  0.61519627
   0.58843514  0.97497259  0.21748339
   0.09105662  0.96702784  0.07172405
   0.60525707  0.93830876  0.88567318
   0.10949612  0.92752647  0.45027999
   0.45887226  0.23618957  0.32097204
   0.46129509  0.23713751  0.94747829
   0.74775229  0.65438462  0.24382117
   0.33141322  0.50199464  0.59414344
unknown system                          
           1
     3.587618    0.096912   -0.177639
     1.559078    6.394674   -0.519661
     0.176639    2.197816    5.045875
   Sr   Nb   H 
   2   1   7
Direct configuration=     4
   0.26208805  0.62226275  0.95907408
   0.95235118  0.25125811  0.61543274
   0.58764400  0.97695601  0.21412207
   0.09108171  0.96701397  0.07238764
   0.60524172  0.93832203  0.88728211
   0.10918662  0.92782814  0.44961564
   0.45951062  0.23484265  0.32092451
   0.46203286  0.23553537  0.94868817
   0.74738918  0.65526976  0.24290050
   0.33167806  0.50121821  0.59484454
unknown system                          
           1
     3.591901    0.097145   -0.177904
     1.561189    6.393170   -0.524601
     0.176844    2.193592    5.048113
   Sr   Nb   H 
   2   1   7
Direct configuration=     5
   0.26205313  0.62241538  0.95924310
   0.95233069  0.25126952  0.61550221
   0.58741244  0.97753636  0.21313691
   0.09108881  0.96701041  0.07258248
   0.60523660  0.93832721  0.88775457
   0.10909606  0.92791629  0.44942085
   0.45969838  0.23444669  0.32090928
   0.46224940  0.23506538  0.94904193
   0.74728267  0.65552921  0.24263099
   0.33175581  0.50099055  0.59504969
unknown system                          
           1
     3.598016    0.098021   -0.178738
     1.564490    6.374017   -0.556046
     0.177771    2.162764    5.056744
   Sr   Nb   H 
   2   1   7
Direct configuration=     6
   0.26208884  0.62277514  0.96033882
   0.95226942  0.25128477  0.61537714
   0.58766646  0.97755355  0.21354880
   0.09105589  0.96725128  0.07296926
   0.60516174  0.93847132  0.88849407
   0.10842418  0.92863144  0.44773171
   0.46037152  0.23300929  0.32081784
   0.46246258  0.23450342  0.94881921
   0.74651407  0.65732442  0.24090509
   0.33218930  0.49970235  0.59627007
unknown system                          
           1
     3.598433    0.098081   -0.178795
     1.564715    6.372711   -0.558191
     0.177834    2.160661    5.057333
   Sr   Nb   H 
   2   1   7
Direct configuration=     7
   0.26209104  0.62280010  0.96041361
   0.95226527  0.25128577  0.61536862
   0.58768369  0.97755487  0.21357686
   0.09105356  0.96726786  0.07299571
   0.60515650  0.93848142  0.88854451
   0.10837864  0.92867966  0.44761695
   0.46041753  0.23291113  0.32081100
   0.46247719  0.23446498  0.94880380
   0.74646182  0.65744636  0.24078827
   0.33221875  0.49961485  0.59635266
