  18  18   0   0
  0.6388135E+01  0.4481672E-09  0.4773118E-09  0.6004410E-09  0.5000000E-15
  1.000000000000000E-004
  CAR 
 unknown system                          
     11.29170448    -12.83967329  301     -5.57338051      1.00000000
    -12.840  0.0000E+00  0.0000E+00
    -12.759  0.0000E+00  0.0000E+00
    -12.679  0.0000E+00  0.0000E+00
    -12.598  0.9967E-33  0.8017E-34
    -12.518  0.3646E-27  0.2932E-28
    -12.437  0.3524E-22  0.2835E-23
    -12.357  0.8909E-18  0.7167E-19
    -12.277  0.5814E-14  0.4678E-15
    -12.196  0.9520E-11  0.7662E-12
    -12.116  0.3753E-08  0.3027E-09
    -12.035  0.3285E-06  0.2673E-07
    -11.955  0.5328E-05  0.4553E-06
    -11.874  0.5670E-05  0.9114E-06
    -11.794 -0.7391E-04 -0.5033E-05
    -11.714  0.6511E-03  0.4734E-04
    -11.633  0.5432E-02  0.4843E-03
    -11.553  0.6590E-02  0.1014E-02
    -11.472  0.7061E-02  0.1582E-02
    -11.392  0.1297E-01  0.2626E-02
    -11.311  0.1138E-01  0.3542E-02
    -11.231  0.1292E-01  0.4581E-02
    -11.150  0.1076E-01  0.5447E-02
    -11.070  0.1572E-01  0.6712E-02
    -10.990  0.1976E-01  0.8301E-02
    -10.909  0.1796E-01  0.9746E-02
    -10.829  0.1516E-01  0.1097E-01
    -10.748  0.2149E-01  0.1269E-01
    -10.668  0.1828E-01  0.1416E-01
    -10.587  0.1526E-01  0.1539E-01
    -10.507  0.2783E-01  0.1763E-01
    -10.427  0.2987E-01  0.2003E-01
    -10.346  0.2176E-01  0.2178E-01
    -10.266  0.2369E-01  0.2369E-01
    -10.185  0.2777E-01  0.2592E-01
    -10.105  0.2259E-01  0.2774E-01
    -10.024  0.2039E-01  0.2938E-01
     -9.944  0.2845E-01  0.3167E-01
     -9.863  0.3792E-01  0.3472E-01
     -9.783  0.2832E-01  0.3700E-01
     -9.703  0.2468E-01  0.3898E-01
     -9.622  0.2824E-01  0.4125E-01
     -9.542  0.2670E-01  0.4340E-01
     -9.461  0.3115E-01  0.4591E-01
     -9.381  0.3287E-01  0.4855E-01
     -9.300  0.3688E-01  0.5152E-01
     -9.220  0.4178E-01  0.5488E-01
     -9.140  0.4355E-01  0.5838E-01
     -9.059  0.3781E-01  0.6142E-01
     -8.979  0.3277E-01  0.6406E-01
     -8.898  0.3705E-01  0.6704E-01
     -8.818  0.4521E-01  0.7068E-01
     -8.737  0.5036E-01  0.7473E-01
     -8.657  0.4485E-01  0.7833E-01
     -8.576  0.4896E-01  0.8227E-01
     -8.496  0.5747E-01  0.8689E-01
     -8.416  0.5801E-01  0.9156E-01
     -8.335  0.4494E-01  0.9518E-01
     -8.255  0.4953E-01  0.9916E-01
     -8.174  0.5209E-01  0.1033E+00
     -8.094  0.4854E-01  0.1073E+00
     -8.013  0.4972E-01  0.1113E+00
     -7.933  0.5555E-01  0.1157E+00
     -7.853  0.5800E-01  0.1204E+00
     -7.772  0.5338E-01  0.1247E+00
     -7.692  0.5682E-01  0.1293E+00
     -7.611  0.6662E-01  0.1346E+00
     -7.531  0.7252E-01  0.1404E+00
     -7.450  0.8506E-01  0.1473E+00
     -7.370  0.6552E-01  0.1526E+00
     -7.289  0.6329E-01  0.1576E+00
     -7.209  0.8735E-01  0.1647E+00
     -7.129  0.7735E-01  0.1709E+00
     -7.048  0.5255E-01  0.1751E+00
     -6.968  0.7629E-01  0.1813E+00
     -6.887  0.9787E-01  0.1891E+00
     -6.807  0.9459E-01  0.1967E+00
     -6.726  0.9030E-01  0.2040E+00
     -6.646  0.1024E+00  0.2122E+00
     -6.566  0.9724E-01  0.2201E+00
     -6.485  0.8488E-01  0.2269E+00
     -6.405  0.8611E-01  0.2338E+00
     -6.324  0.1045E+00  0.2422E+00
     -6.244  0.1043E+00  0.2506E+00
     -6.163  0.1190E+00  0.2602E+00
     -6.083  0.1296E+00  0.2706E+00
     -6.002  0.1134E+00  0.2797E+00
     -5.922  0.7758E-01  0.2860E+00
     -5.842  0.5296E-01  0.2902E+00
     -5.761  0.5013E-01  0.2943E+00
     -5.681  0.4515E-01  0.2979E+00
     -5.600  0.2384E-01  0.2998E+00
     -5.520  0.2974E-02  0.3000E+00
     -5.439 -0.6514E-03  0.3000E+00
     -5.359  0.8670E-04  0.3000E+00
     -5.279  0.2261E-04  0.3000E+00
     -5.198  0.6419E-06  0.3000E+00
     -5.118  0.3963E-08  0.3000E+00
     -5.037  0.5943E-11  0.3000E+00
     -4.957  0.2254E-14  0.3000E+00
     -4.876  0.1623E-18  0.3000E+00
     -4.796  0.0000E+00  0.3000E+00
     -4.715  0.0000E+00  0.3000E+00
     -4.635  0.0000E+00  0.3000E+00
     -4.555  0.0000E+00  0.3000E+00
     -4.474  0.0000E+00  0.3000E+00
     -4.394  0.0000E+00  0.3000E+00
     -4.313  0.0000E+00  0.3000E+00
     -4.233  0.0000E+00  0.3000E+00
     -4.152  0.0000E+00  0.3000E+00
     -4.072  0.0000E+00  0.3000E+00
     -3.992  0.0000E+00  0.3000E+00
     -3.911  0.0000E+00  0.3000E+00
     -3.831  0.0000E+00  0.3000E+00
     -3.750  0.0000E+00  0.3000E+00
     -3.670  0.0000E+00  0.3000E+00
     -3.589  0.0000E+00  0.3000E+00
     -3.509  0.0000E+00  0.3000E+00
     -3.428  0.0000E+00  0.3000E+00
     -3.348  0.0000E+00  0.3000E+00
     -3.268  0.0000E+00  0.3000E+00
     -3.187  0.0000E+00  0.3000E+00
     -3.107  0.0000E+00  0.3000E+00
     -3.026  0.0000E+00  0.3000E+00
     -2.946  0.0000E+00  0.3000E+00
     -2.865  0.0000E+00  0.3000E+00
     -2.785  0.0000E+00  0.3000E+00
     -2.704  0.0000E+00  0.3000E+00
     -2.624  0.0000E+00  0.3000E+00
     -2.544  0.0000E+00  0.3000E+00
     -2.463  0.0000E+00  0.3000E+00
     -2.383  0.0000E+00  0.3000E+00
     -2.302  0.0000E+00  0.3000E+00
     -2.222  0.0000E+00  0.3000E+00
     -2.141  0.0000E+00  0.3000E+00
     -2.061  0.0000E+00  0.3000E+00
     -1.981  0.0000E+00  0.3000E+00
     -1.900  0.0000E+00  0.3000E+00
     -1.820  0.0000E+00  0.3000E+00
     -1.739  0.0000E+00  0.3000E+00
     -1.659  0.0000E+00  0.3000E+00
     -1.578  0.0000E+00  0.3000E+00
     -1.498  0.0000E+00  0.3000E+00
     -1.417  0.0000E+00  0.3000E+00
     -1.337  0.0000E+00  0.3000E+00
     -1.257  0.0000E+00  0.3000E+00
     -1.176  0.0000E+00  0.3000E+00
     -1.096  0.0000E+00  0.3000E+00
     -1.015  0.0000E+00  0.3000E+00
     -0.935  0.0000E+00  0.3000E+00
     -0.854  0.0000E+00  0.3000E+00
     -0.774  0.0000E+00  0.3000E+00
     -0.694  0.0000E+00  0.3000E+00
     -0.613  0.0000E+00  0.3000E+00
     -0.533  0.0000E+00  0.3000E+00
     -0.452  0.0000E+00  0.3000E+00
     -0.372  0.0000E+00  0.3000E+00
     -0.291  0.0000E+00  0.3000E+00
     -0.211  0.0000E+00  0.3000E+00
     -0.130  0.0000E+00  0.3000E+00
     -0.050  0.0000E+00  0.3000E+00
      0.030  0.0000E+00  0.3000E+00
      0.111  0.0000E+00  0.3000E+00
      0.191  0.0000E+00  0.3000E+00
      0.272  0.0000E+00  0.3000E+00
      0.352  0.0000E+00  0.3000E+00
      0.433  0.0000E+00  0.3000E+00
      0.513  0.0000E+00  0.3000E+00
      0.593  0.0000E+00  0.3000E+00
      0.674  0.0000E+00  0.3000E+00
      0.754  0.0000E+00  0.3000E+00
      0.835  0.0000E+00  0.3000E+00
      0.915  0.1802E-32  0.3000E+00
      0.996  0.6218E-27  0.3000E+00
      1.076  0.5667E-22  0.3000E+00
      1.157  0.1350E-17  0.3000E+00
      1.237  0.8286E-14  0.3000E+00
      1.317  0.1271E-10  0.3000E+00
      1.398  0.4639E-08  0.3000E+00
      1.478  0.3568E-06  0.3000E+00
      1.559  0.3656E-05  0.3000E+00
      1.639 -0.1448E-04  0.3000E+00
      1.720  0.5308E-04  0.3000E+00
      1.800  0.4094E-03  0.3000E+00
      1.880  0.2259E-02  0.3002E+00
      1.961  0.3752E-02  0.3005E+00
      2.041  0.3731E-02  0.3008E+00
      2.122  0.6965E-02  0.3014E+00
      2.202  0.8489E-02  0.3021E+00
      2.283  0.8014E-02  0.3027E+00
      2.363  0.9032E-02  0.3034E+00
      2.444  0.1965E-01  0.3050E+00
      2.524  0.3061E-01  0.3075E+00
      2.604  0.2848E-01  0.3098E+00
      2.685  0.4072E-01  0.3130E+00
      2.765  0.4965E-01  0.3170E+00
      2.846  0.6047E-01  0.3219E+00
      2.926  0.6946E-01  0.3275E+00
      3.007  0.7035E-01  0.3331E+00
      3.087  0.8022E-01  0.3396E+00
      3.167  0.5954E-01  0.3444E+00
      3.248  0.4521E-01  0.3480E+00
      3.328  0.5671E-01  0.3526E+00
      3.409  0.5663E-01  0.3571E+00
      3.489  0.5642E-01  0.3617E+00
      3.570  0.7254E-01  0.3675E+00
      3.650  0.8162E-01  0.3741E+00
      3.731  0.7790E-01  0.3803E+00
      3.811  0.6892E-01  0.3859E+00
      3.891  0.6361E-01  0.3910E+00
      3.972  0.7022E-01  0.3967E+00
      4.052  0.6542E-01  0.4019E+00
      4.133  0.6202E-01  0.4069E+00
      4.213  0.6982E-01  0.4125E+00
      4.294  0.6019E-01  0.4174E+00
      4.374  0.5736E-01  0.4220E+00
      4.454  0.6210E-01  0.4270E+00
      4.535  0.7313E-01  0.4329E+00
      4.615  0.6703E-01  0.4382E+00
      4.696  0.5541E-01  0.4427E+00
      4.776  0.6051E-01  0.4476E+00
      4.857  0.6394E-01  0.4527E+00
      4.937  0.5910E-01  0.4575E+00
      5.018  0.6203E-01  0.4625E+00
      5.098  0.6651E-01  0.4678E+00
      5.178  0.6488E-01  0.4730E+00
      5.259  0.5794E-01  0.4777E+00
      5.339  0.5068E-01  0.4818E+00
      5.420  0.5522E-01  0.4862E+00
      5.500  0.6225E-01  0.4912E+00
      5.581  0.5343E-01  0.4955E+00
      5.661  0.4367E-01  0.4990E+00
      5.741  0.4610E-01  0.5027E+00
      5.822  0.5558E-01  0.5072E+00
      5.902  0.6226E-01  0.5122E+00
      5.983  0.4425E-01  0.5158E+00
      6.063  0.3920E-01  0.5189E+00
      6.144  0.4977E-01  0.5229E+00
      6.224  0.4658E-01  0.5267E+00
      6.305  0.5543E-01  0.5311E+00
      6.385  0.5858E-01  0.5358E+00
      6.465  0.5498E-01  0.5403E+00
      6.546  0.4315E-01  0.5437E+00
      6.626  0.3552E-01  0.5466E+00
      6.707  0.3920E-01  0.5497E+00
      6.787  0.4113E-01  0.5531E+00
      6.868  0.5053E-01  0.5571E+00
      6.948  0.4609E-01  0.5608E+00
      7.028  0.3873E-01  0.5639E+00
      7.109  0.3823E-01  0.5670E+00
      7.189  0.3721E-01  0.5700E+00
      7.270  0.2804E-01  0.5723E+00
      7.350  0.2721E-01  0.5745E+00
      7.431  0.4156E-01  0.5778E+00
      7.511  0.3583E-01  0.5807E+00
      7.592  0.3451E-01  0.5835E+00
      7.672  0.3467E-01  0.5862E+00
      7.752  0.3284E-01  0.5889E+00
      7.833  0.3875E-01  0.5920E+00
      7.913  0.4471E-01  0.5956E+00
      7.994  0.5081E-01  0.5997E+00
      8.074  0.4739E-01  0.6035E+00
      8.155  0.4889E-01  0.6074E+00
      8.235  0.5119E-01  0.6116E+00
      8.316  0.4675E-01  0.6153E+00
      8.396  0.5185E-01  0.6195E+00
      8.476  0.5714E-01  0.6241E+00
      8.557  0.4127E-01  0.6274E+00
      8.637  0.3981E-01  0.6306E+00
      8.718  0.4946E-01  0.6346E+00
      8.798  0.4712E-01  0.6384E+00
      8.879  0.4360E-01  0.6419E+00
      8.959  0.4043E-01  0.6451E+00
      9.039  0.3766E-01  0.6482E+00
      9.120  0.3092E-01  0.6506E+00
      9.200  0.3158E-01  0.6532E+00
      9.281  0.2618E-01  0.6553E+00
      9.361  0.1904E-01  0.6568E+00
      9.442  0.2840E-01  0.6591E+00
      9.522  0.2931E-01  0.6615E+00
      9.603  0.1415E-01  0.6626E+00
      9.683  0.1301E-01  0.6636E+00
      9.763  0.1164E-01  0.6646E+00
      9.844  0.8712E-02  0.6653E+00
      9.924  0.8914E-02  0.6660E+00
     10.005  0.5296E-02  0.6664E+00
     10.085  0.1641E-02  0.6666E+00
     10.166  0.1378E-03  0.6666E+00
     10.246  0.1083E-02  0.6667E+00
     10.326  0.1280E-03  0.6667E+00
     10.407 -0.4559E-04  0.6667E+00
     10.487  0.6225E-05  0.6667E+00
     10.568  0.6051E-06  0.6667E+00
     10.648  0.7372E-08  0.6667E+00
     10.729  0.1895E-10  0.6667E+00
     10.809  0.1161E-13  0.6667E+00
     10.890  0.1785E-17  0.6667E+00
     10.970  0.0000E+00  0.6667E+00
     11.050  0.0000E+00  0.6667E+00
     11.131  0.0000E+00  0.6667E+00
     11.211  0.0000E+00  0.6667E+00
     11.292  0.0000E+00  0.6667E+00
