       N       E                     dE             d eps       ncg     rms          rms(c)
DAV:   1    -0.217790159074E+02   -0.21779E+02   -0.39282E+03 15336   0.367E+02
DAV:   2    -0.537258010768E+02   -0.31947E+02   -0.30980E+02 19976   0.907E+01
DAV:   3    -0.548298921146E+02   -0.11041E+01   -0.11003E+01 18728   0.156E+01
DAV:   4    -0.548321737170E+02   -0.22816E-02   -0.22814E-02 17840   0.853E-01
DAV:   5    -0.548321792060E+02   -0.54890E-05   -0.54886E-05 15696   0.395E-02    0.121E+01
DAV:   6    -0.530126123002E+02    0.18196E+01   -0.44725E-01 16684   0.330E+00    0.691E+00
DAV:   7    -0.521098369794E+02    0.90278E+00   -0.12298E+00 16988   0.570E+00    0.587E-01
DAV:   8    -0.521297153709E+02   -0.19878E-01   -0.61396E-02 16600   0.120E+00    0.392E-01
DAV:   9    -0.521264182852E+02    0.32971E-02   -0.28782E-03 19272   0.286E-01    0.361E-02
DAV:  10    -0.521265293415E+02   -0.11106E-03   -0.26214E-04 17036   0.865E-02    0.179E-02
DAV:  11    -0.521265427120E+02   -0.13371E-04   -0.20276E-05  9844   0.257E-02
   1 F= -.52126543E+02 E0= -.52126651E+02  d E =-.521265E+02
       N       E                     dE             d eps       ncg     rms          rms(c)
DAV:   1    -0.521191346215E+02    0.73947E-02   -0.35945E-01 16888   0.351E+00    0.281E-01
DAV:   2    -0.521196809516E+02   -0.54633E-03   -0.16474E-02 17636   0.719E-01    0.205E-01
DAV:   3    -0.521189951497E+02    0.68580E-03   -0.69933E-04 18456   0.265E-01    0.230E-02
DAV:   4    -0.521190518432E+02   -0.56694E-04   -0.56429E-04 16208   0.123E-01
   2 F= -.52119052E+02 E0= -.52119164E+02  d E =0.749087E-02
       N       E                     dE             d eps       ncg     rms          rms(c)
DAV:   1    -0.521297495218E+02   -0.10754E-01   -0.14947E-01 16900   0.228E+00    0.184E-01
DAV:   2    -0.521299122866E+02   -0.16276E-03   -0.65925E-03 17588   0.457E-01    0.133E-01
DAV:   3    -0.521296101402E+02    0.30215E-03   -0.31007E-04 18320   0.177E-01    0.124E-02
DAV:   4    -0.521296342493E+02   -0.24109E-04   -0.23980E-04 12304   0.793E-02
   3 F= -.52129634E+02 E0= -.52129744E+02  d E =-.309154E-02
       N       E                     dE             d eps       ncg     rms          rms(c)
DAV:   1    -0.521324463888E+02   -0.28362E-02   -0.27576E-02 15772   0.898E-01    0.638E-02
DAV:   2    -0.521324517572E+02   -0.53684E-05   -0.40653E-04 18224   0.104E-01
   4 F= -.52132452E+02 E0= -.52132562E+02  d E =-.281751E-02
       N       E                     dE             d eps       ncg     rms          rms(c)
DAV:   1    -0.521394989258E+02   -0.70525E-02   -0.24540E-01 15808   0.268E+00    0.192E-01
DAV:   2    -0.521395644693E+02   -0.65544E-04   -0.34336E-03 18240   0.302E-01    0.122E-01
DAV:   3    -0.521394631328E+02    0.10134E-03   -0.29776E-04 17828   0.916E-02    0.128E-02
DAV:   4    -0.521394639066E+02   -0.77380E-06   -0.31252E-05  8800   0.297E-02
   5 F= -.52139464E+02 E0= -.52139575E+02  d E =-.982966E-02
       N       E                     dE             d eps       ncg     rms          rms(c)
DAV:   1    -0.521475320789E+02   -0.80689E-02   -0.98689E-01 15776   0.534E+00    0.380E-01
DAV:   2    -0.521478374272E+02   -0.30535E-03   -0.14366E-02 18156   0.615E-01    0.244E-01
DAV:   3    -0.521473967278E+02    0.44070E-03   -0.12335E-03 17968   0.188E-01    0.268E-02
DAV:   4    -0.521473989056E+02   -0.21778E-05   -0.14366E-04 14096   0.628E-02
   6 F= -.52147399E+02 E0= -.52147511E+02  d E =-.177647E-01
       N       E                     dE             d eps       ncg     rms          rms(c)
DAV:   1    -0.521487498818E+02   -0.13532E-02   -0.79663E-02 16164   0.160E+00    0.107E-01
DAV:   2    -0.521489200675E+02   -0.17019E-03   -0.28482E-03 18052   0.289E-01    0.822E-02
DAV:   3    -0.521488308209E+02    0.89247E-04   -0.62309E-05 15512   0.101E-01
   7 F= -.52148831E+02 E0= -.52148936E+02  d E =-.143192E-02
       N       E                     dE             d eps       ncg     rms          rms(c)
DAV:   1    -0.521489626528E+02   -0.42585E-04   -0.31005E-03 15916   0.308E-01    0.239E-02
DAV:   2    -0.521489645940E+02   -0.19413E-05   -0.11394E-04  9128   0.596E-02
   8 F= -.52148965E+02 E0= -.52149072E+02  d E =-.156569E-02
       N       E                     dE             d eps       ncg     rms          rms(c)
DAV:   1    -0.521503092456E+02   -0.13466E-02   -0.54389E-02 15588   0.128E+00    0.726E-02
DAV:   2    -0.521503481290E+02   -0.38883E-04   -0.75224E-04 18168   0.142E-01
   9 F= -.52150348E+02 E0= -.52150453E+02  d E =-.138353E-02
       N       E                     dE             d eps       ncg     rms          rms(c)
DAV:   1    -0.521530336999E+02   -0.27245E-02   -0.48090E-01 15708   0.380E+00    0.217E-01
DAV:   2    -0.521533153713E+02   -0.28167E-03   -0.57262E-03 18184   0.391E-01    0.145E-01
DAV:   3    -0.521532058046E+02    0.10957E-03   -0.40753E-04 18096   0.112E-01    0.172E-02
DAV:   4    -0.521532067620E+02   -0.95741E-06   -0.61456E-05  9400   0.423E-02
  10 F= -.52153207E+02 E0= -.52153309E+02  d E =-.424217E-02
       N       E                     dE             d eps       ncg     rms          rms(c)
DAV:   1    -0.521498056446E+02    0.34002E-02   -0.20469E-01 17052   0.272E+00    0.192E-01
DAV:   2    -0.521506055509E+02   -0.79991E-03   -0.13904E-02 17716   0.658E-01    0.163E-01
DAV:   3    -0.521501406660E+02    0.46488E-03   -0.24454E-04 18724   0.196E-01    0.491E-02
DAV:   4    -0.521501516139E+02   -0.10948E-04   -0.47591E-04 17632   0.124E-01
  11 F= -.52150152E+02 E0= -.52150271E+02  d E =0.305515E-02
       N       E                     dE             d eps       ncg     rms          rms(c)
DAV:   1    -0.521555751067E+02   -0.54344E-02   -0.74529E-02 17004   0.163E+00    0.118E-01
DAV:   2    -0.521558103616E+02   -0.23525E-03   -0.46664E-03 17656   0.385E-01    0.977E-02
DAV:   3    -0.521556291166E+02    0.18125E-03   -0.98191E-05 16508   0.134E-01    0.216E-02
DAV:   4    -0.521556442256E+02   -0.15109E-04   -0.21726E-04 11856   0.737E-02
  12 F= -.52155644E+02 E0= -.52155755E+02  d E =-.243746E-02
