  20  20   0   0
  0.7815475E+01  0.5510644E-09  0.5623607E-09  0.5616276E-09  0.5000000E-15
  1.000000000000000E-004
  CAR 
 unknown system                          
      9.17784708    -34.26196958  301      2.70744019      1.00000000
    -34.262  0.0000E+00  0.0000E+00
    -34.117  0.0000E+00  0.0000E+00
    -33.972  0.0000E+00  0.0000E+00
    -33.828  0.0000E+00  0.0000E+00
    -33.683  0.0000E+00  0.0000E+00
    -33.538  0.0000E+00  0.0000E+00
    -33.393  0.0000E+00  0.0000E+00
    -33.248  0.0000E+00  0.0000E+00
    -33.104  0.1828E-27  0.2648E-28
    -32.959  0.2271E-18  0.3289E-19
    -32.814  0.3604E-11  0.5219E-12
    -32.669  0.6304E-06  0.9128E-07
    -32.524  0.6767E-03  0.9808E-04
    -32.380 -0.1248E-01 -0.1708E-02
    -32.235  0.2306E+00  0.3169E-01
    -32.090  0.1026E-01  0.3317E-01
    -31.945  0.1109E-02  0.3333E-01
    -31.800  0.7835E-05  0.3333E-01
    -31.656  0.1674E-09  0.3333E-01
    -31.511  0.2847E-16  0.3333E-01
    -31.366  0.0000E+00  0.3333E-01
    -31.221  0.0000E+00  0.3333E-01
    -31.076  0.0000E+00  0.3333E-01
    -30.932  0.0000E+00  0.3333E-01
    -30.787  0.0000E+00  0.3333E-01
    -30.642  0.0000E+00  0.3333E-01
    -30.497  0.0000E+00  0.3333E-01
    -30.352  0.0000E+00  0.3333E-01
    -30.208  0.0000E+00  0.3333E-01
    -30.063  0.1769E-32  0.3333E-01
    -29.918  0.1463E-22  0.3333E-01
    -29.773  0.1656E-14  0.3333E-01
    -29.628  0.2389E-08  0.3333E-01
    -29.484  0.3574E-04  0.3334E-01
    -29.339  0.7576E-03  0.3345E-01
    -29.194  0.3908E-01  0.3911E-01
    -29.049  0.5168E+00  0.1139E+00
    -28.904  0.1117E+00  0.1301E+00
    -28.760  0.5716E+00  0.2129E+00
    -28.615  0.4980E+00  0.2850E+00
    -28.470  0.2664E+00  0.3236E+00
    -28.325  0.6901E-01  0.3336E+00
    -28.180 -0.1582E-02  0.3333E+00
    -28.036  0.7279E-04  0.3333E+00
    -27.891  0.1187E-07  0.3333E+00
    -27.746  0.1806E-13  0.3333E+00
    -27.601  0.0000E+00  0.3333E+00
    -27.456  0.0000E+00  0.3333E+00
    -27.312  0.0000E+00  0.3333E+00
    -27.167  0.0000E+00  0.3333E+00
    -27.022  0.0000E+00  0.3333E+00
    -26.877  0.0000E+00  0.3333E+00
    -26.732  0.0000E+00  0.3333E+00
    -26.588  0.0000E+00  0.3333E+00
    -26.443  0.0000E+00  0.3333E+00
    -26.298  0.0000E+00  0.3333E+00
    -26.153  0.0000E+00  0.3333E+00
    -26.008  0.0000E+00  0.3333E+00
    -25.864  0.0000E+00  0.3333E+00
    -25.719  0.0000E+00  0.3333E+00
    -25.574  0.0000E+00  0.3333E+00
    -25.429  0.0000E+00  0.3333E+00
    -25.284  0.0000E+00  0.3333E+00
    -25.140  0.0000E+00  0.3333E+00
    -24.995  0.0000E+00  0.3333E+00
    -24.850  0.0000E+00  0.3333E+00
    -24.705  0.0000E+00  0.3333E+00
    -24.560  0.0000E+00  0.3333E+00
    -24.416  0.0000E+00  0.3333E+00
    -24.271  0.0000E+00  0.3333E+00
    -24.126  0.0000E+00  0.3333E+00
    -23.981  0.0000E+00  0.3333E+00
    -23.836  0.0000E+00  0.3333E+00
    -23.692  0.0000E+00  0.3333E+00
    -23.547  0.0000E+00  0.3333E+00
    -23.402  0.0000E+00  0.3333E+00
    -23.257  0.0000E+00  0.3333E+00
    -23.112  0.0000E+00  0.3333E+00
    -22.968  0.0000E+00  0.3333E+00
    -22.823  0.0000E+00  0.3333E+00
    -22.678  0.0000E+00  0.3333E+00
    -22.533  0.0000E+00  0.3333E+00
    -22.388  0.0000E+00  0.3333E+00
    -22.244  0.0000E+00  0.3333E+00
    -22.099  0.0000E+00  0.3333E+00
    -21.954  0.0000E+00  0.3333E+00
    -21.809  0.0000E+00  0.3333E+00
    -21.664  0.0000E+00  0.3333E+00
    -21.520  0.0000E+00  0.3333E+00
    -21.375  0.0000E+00  0.3333E+00
    -21.230  0.0000E+00  0.3333E+00
    -21.085  0.0000E+00  0.3333E+00
    -20.940  0.0000E+00  0.3333E+00
    -20.796  0.0000E+00  0.3333E+00
    -20.651  0.0000E+00  0.3333E+00
    -20.506  0.0000E+00  0.3333E+00
    -20.361  0.0000E+00  0.3333E+00
    -20.216  0.0000E+00  0.3333E+00
    -20.072  0.0000E+00  0.3333E+00
    -19.927  0.0000E+00  0.3333E+00
    -19.782  0.0000E+00  0.3333E+00
    -19.637  0.0000E+00  0.3333E+00
    -19.492  0.0000E+00  0.3333E+00
    -19.348  0.0000E+00  0.3333E+00
    -19.203  0.0000E+00  0.3333E+00
    -19.058  0.0000E+00  0.3333E+00
    -18.913  0.0000E+00  0.3333E+00
    -18.768  0.0000E+00  0.3333E+00
    -18.624  0.0000E+00  0.3333E+00
    -18.479  0.0000E+00  0.3333E+00
    -18.334  0.0000E+00  0.3333E+00
    -18.189  0.0000E+00  0.3333E+00
    -18.044  0.0000E+00  0.3333E+00
    -17.900  0.0000E+00  0.3333E+00
    -17.755  0.0000E+00  0.3333E+00
    -17.610  0.0000E+00  0.3333E+00
    -17.465  0.0000E+00  0.3333E+00
    -17.320  0.0000E+00  0.3333E+00
    -17.176  0.0000E+00  0.3333E+00
    -17.031  0.0000E+00  0.3333E+00
    -16.886  0.0000E+00  0.3333E+00
    -16.741  0.0000E+00  0.3333E+00
    -16.596  0.0000E+00  0.3333E+00
    -16.452  0.0000E+00  0.3333E+00
    -16.307  0.0000E+00  0.3333E+00
    -16.162  0.0000E+00  0.3333E+00
    -16.017  0.0000E+00  0.3333E+00
    -15.872  0.0000E+00  0.3333E+00
    -15.728  0.0000E+00  0.3333E+00
    -15.583  0.0000E+00  0.3333E+00
    -15.438  0.1772E-31  0.3333E+00
    -15.293  0.1056E-21  0.3333E+00
    -15.148  0.8553E-14  0.3333E+00
    -15.004  0.8562E-08  0.3333E+00
    -14.859  0.7969E-04  0.3333E+00
    -14.714 -0.1604E-02  0.3331E+00
    -14.569  0.8017E-01  0.3447E+00
    -14.424  0.4926E+00  0.4161E+00
    -14.280  0.1201E+00  0.4334E+00
    -14.135 -0.8372E-03  0.4333E+00
    -13.990  0.8578E-04  0.4333E+00
    -13.845  0.6405E-08  0.4333E+00
    -13.700  0.4674E-14  0.4333E+00
    -13.556  0.0000E+00  0.4333E+00
    -13.411  0.0000E+00  0.4333E+00
    -13.266  0.0000E+00  0.4333E+00
    -13.121  0.0000E+00  0.4333E+00
    -12.976  0.0000E+00  0.4333E+00
    -12.832  0.0000E+00  0.4333E+00
    -12.687  0.0000E+00  0.4333E+00
    -12.542  0.0000E+00  0.4333E+00
    -12.397  0.0000E+00  0.4333E+00
    -12.252  0.0000E+00  0.4333E+00
    -12.108  0.0000E+00  0.4333E+00
    -11.963  0.0000E+00  0.4333E+00
    -11.818  0.0000E+00  0.4333E+00
    -11.673  0.0000E+00  0.4333E+00
    -11.528  0.0000E+00  0.4333E+00
    -11.384  0.0000E+00  0.4333E+00
    -11.239  0.0000E+00  0.4333E+00
    -11.094  0.0000E+00  0.4333E+00
    -10.949  0.0000E+00  0.4333E+00
    -10.804  0.0000E+00  0.4333E+00
    -10.660  0.0000E+00  0.4333E+00
    -10.515  0.0000E+00  0.4333E+00
    -10.370  0.0000E+00  0.4333E+00
    -10.225  0.0000E+00  0.4333E+00
    -10.080  0.0000E+00  0.4333E+00
     -9.936  0.0000E+00  0.4333E+00
     -9.791  0.0000E+00  0.4333E+00
     -9.646  0.0000E+00  0.4333E+00
     -9.501  0.0000E+00  0.4333E+00
     -9.356  0.0000E+00  0.4333E+00
     -9.212  0.0000E+00  0.4333E+00
     -9.067  0.0000E+00  0.4333E+00
     -8.922  0.0000E+00  0.4333E+00
     -8.777  0.0000E+00  0.4333E+00
     -8.632  0.0000E+00  0.4333E+00
     -8.488  0.0000E+00  0.4333E+00
     -8.343  0.2595E-33  0.4333E+00
     -8.198  0.1227E-23  0.4333E+00
     -8.053  0.7594E-16  0.4333E+00
     -7.908  0.5526E-10  0.4333E+00
     -7.764  0.3556E-06  0.4333E+00
     -7.619  0.5098E-05  0.4333E+00
     -7.474  0.8901E-04  0.4333E+00
     -7.329  0.6162E-02  0.4342E+00
     -7.184  0.9144E-02  0.4356E+00
     -7.040  0.1810E-01  0.4382E+00
     -6.895  0.2365E-01  0.4416E+00
     -6.750  0.4052E-01  0.4475E+00
     -6.605  0.5496E-01  0.4554E+00
     -6.460  0.7082E-01  0.4657E+00
     -6.316  0.6801E-02  0.4667E+00
     -6.171 -0.5526E-04  0.4667E+00
     -6.026  0.9620E-05  0.4667E+00
     -5.881  0.1742E-05  0.4667E+00
     -5.736  0.1440E-04  0.4667E+00
     -5.592  0.5863E-03  0.4668E+00
     -5.447  0.1698E-01  0.4692E+00
     -5.302  0.4635E-01  0.4759E+00
     -5.157  0.7073E-01  0.4862E+00
     -5.012  0.4917E-01  0.4933E+00
     -4.868  0.2912E-01  0.4975E+00
     -4.723  0.1463E-01  0.4996E+00
     -4.578  0.1369E-01  0.5016E+00
     -4.433  0.2208E-01  0.5048E+00
     -4.288  0.3299E-01  0.5096E+00
     -4.144  0.3935E-01  0.5153E+00
     -3.999  0.4216E-01  0.5214E+00
     -3.854  0.5478E-01  0.5293E+00
     -3.709  0.4609E-01  0.5360E+00
     -3.564  0.4348E-01  0.5423E+00
     -3.420  0.5968E-01  0.5509E+00
     -3.275  0.7540E-01  0.5618E+00
     -3.130  0.1268E+00  0.5802E+00
     -2.985  0.1397E+00  0.6004E+00
     -2.841  0.1250E+00  0.6185E+00
     -2.696  0.1495E+00  0.6402E+00
     -2.551  0.1133E+00  0.6566E+00
     -2.406  0.9026E-01  0.6696E+00
     -2.261  0.7183E-01  0.6800E+00
     -2.117  0.8881E-01  0.6929E+00
     -1.972  0.1047E+00  0.7081E+00
     -1.827  0.1173E+00  0.7251E+00
     -1.682  0.1248E+00  0.7431E+00
     -1.537  0.1415E+00  0.7636E+00
     -1.393  0.3937E-01  0.7693E+00
     -1.248  0.6988E-01  0.7794E+00
     -1.103  0.1306E+00  0.7983E+00
     -0.958  0.1135E+00  0.8148E+00
     -0.813  0.1141E+00  0.8313E+00
     -0.669  0.5111E-01  0.8387E+00
     -0.524  0.1260E+00  0.8569E+00
     -0.379  0.7609E-01  0.8680E+00
     -0.234  0.4041E-01  0.8738E+00
     -0.089  0.3936E-01  0.8795E+00
      0.055  0.4751E-01  0.8864E+00
      0.200  0.4651E-01  0.8931E+00
      0.345  0.7140E-01  0.9035E+00
      0.490  0.6060E-01  0.9122E+00
      0.635  0.3874E-01  0.9178E+00
      0.779  0.3765E-01  0.9233E+00
      0.924  0.5820E-01  0.9317E+00
      1.069  0.1107E-01  0.9333E+00
      1.214  0.9848E-02  0.9348E+00
      1.359  0.1524E-01  0.9370E+00
      1.503  0.2571E-01  0.9407E+00
      1.648  0.1776E-01  0.9433E+00
      1.793  0.2328E-01  0.9466E+00
      1.938  0.3893E-01  0.9523E+00
      2.083  0.3696E-01  0.9576E+00
      2.227  0.4140E-01  0.9636E+00
      2.372  0.2417E-01  0.9671E+00
      2.517  0.3429E-01  0.9721E+00
      2.662  0.5708E-01  0.9803E+00
      2.807  0.6407E-01  0.9896E+00
      2.951  0.5471E-01  0.9975E+00
      3.096  0.4513E-01  0.1004E+01
      3.241  0.1294E+00  0.1023E+01
      3.386  0.1014E+00  0.1037E+01
      3.531  0.8448E-01  0.1050E+01
      3.675  0.9482E-01  0.1063E+01
      3.820  0.9223E-01  0.1077E+01
      3.965  0.7163E-01  0.1087E+01
      4.110  0.4085E-01  0.1093E+01
      4.255  0.4834E-01  0.1100E+01
      4.399  0.7540E-01  0.1111E+01
      4.544  0.6371E-01  0.1120E+01
      4.689  0.5171E-01  0.1128E+01
      4.834  0.4522E-01  0.1134E+01
      4.979  0.7424E-01  0.1145E+01
      5.123  0.8175E-01  0.1157E+01
      5.268  0.8172E-01  0.1169E+01
      5.413  0.8567E-01  0.1181E+01
      5.558  0.9238E-01  0.1194E+01
      5.703  0.4939E-01  0.1202E+01
      5.847  0.5641E-01  0.1210E+01
      5.992  0.1090E+00  0.1226E+01
      6.137  0.9721E-01  0.1240E+01
      6.282  0.9784E-01  0.1254E+01
      6.427  0.9918E-01  0.1268E+01
      6.571  0.9662E-01  0.1282E+01
      6.716  0.1036E+00  0.1297E+01
      6.861  0.8198E-01  0.1309E+01
      7.006  0.1063E+00  0.1324E+01
      7.151  0.5928E-01  0.1333E+01
      7.295  0.2058E-02  0.1333E+01
      7.440  0.5483E-04  0.1333E+01
      7.585  0.4939E-05  0.1333E+01
      7.730  0.3030E-08  0.1333E+01
      7.875  0.1697E-13  0.1333E+01
      8.019  0.0000E+00  0.1333E+01
      8.164  0.0000E+00  0.1333E+01
      8.309  0.0000E+00  0.1333E+01
      8.454  0.0000E+00  0.1333E+01
      8.599  0.0000E+00  0.1333E+01
      8.743  0.0000E+00  0.1333E+01
      8.888  0.0000E+00  0.1333E+01
      9.033  0.0000E+00  0.1333E+01
      9.178  0.0000E+00  0.1333E+01
