Automatically generated mesh
      71
Reciprocal lattice
    0.00000000000000    0.00000000000000    0.00000000000000             1
    0.14285714285714    0.00000000000000    0.00000000000000             2
    0.28571428571429    0.00000000000000    0.00000000000000             2
    0.42857142857143    0.00000000000000    0.00000000000000             2
    0.00000000000000    0.20000000000000    0.00000000000000             2
    0.14285714285714    0.20000000000000    0.00000000000000             2
    0.28571428571429    0.20000000000000    0.00000000000000             2
    0.42857142857143    0.20000000000000    0.00000000000000             2
   -0.42857142857143    0.20000000000000    0.00000000000000             2
   -0.28571428571429    0.20000000000000    0.00000000000000             2
   -0.14285714285714    0.20000000000000    0.00000000000000             2
    0.00000000000000    0.40000000000000    0.00000000000000             2
    0.14285714285714    0.40000000000000    0.00000000000000             2
    0.28571428571429    0.40000000000000    0.00000000000000             2
    0.42857142857143    0.40000000000000    0.00000000000000             2
   -0.42857142857143    0.40000000000000    0.00000000000000             2
   -0.28571428571429    0.40000000000000    0.00000000000000             2
   -0.14285714285714    0.40000000000000    0.00000000000000             2
    0.00000000000000    0.00000000000000    0.25000000000000             2
    0.14285714285714    0.00000000000000    0.25000000000000             2
    0.28571428571429    0.00000000000000    0.25000000000000             2
    0.42857142857143    0.00000000000000    0.25000000000000             2
   -0.42857142857143    0.00000000000000    0.25000000000000             2
   -0.28571428571429    0.00000000000000    0.25000000000000             2
   -0.14285714285714    0.00000000000000    0.25000000000000             2
    0.00000000000000    0.20000000000000    0.25000000000000             2
    0.14285714285714    0.20000000000000    0.25000000000000             2
    0.28571428571429    0.20000000000000    0.25000000000000             2
    0.42857142857143    0.20000000000000    0.25000000000000             2
   -0.42857142857143    0.20000000000000    0.25000000000000             2
   -0.28571428571429    0.20000000000000    0.25000000000000             2
   -0.14285714285714    0.20000000000000    0.25000000000000             2
    0.00000000000000    0.40000000000000    0.25000000000000             2
    0.14285714285714    0.40000000000000    0.25000000000000             2
    0.28571428571429    0.40000000000000    0.25000000000000             2
    0.42857142857143    0.40000000000000    0.25000000000000             2
   -0.42857142857143    0.40000000000000    0.25000000000000             2
   -0.28571428571429    0.40000000000000    0.25000000000000             2
   -0.14285714285714    0.40000000000000    0.25000000000000             2
    0.00000000000000   -0.40000000000000    0.25000000000000             2
    0.14285714285714   -0.40000000000000    0.25000000000000             2
    0.28571428571429   -0.40000000000000    0.25000000000000             2
    0.42857142857143   -0.40000000000000    0.25000000000000             2
   -0.42857142857143   -0.40000000000000    0.25000000000000             2
   -0.28571428571429   -0.40000000000000    0.25000000000000             2
   -0.14285714285714   -0.40000000000000    0.25000000000000             2
    0.00000000000000   -0.20000000000000    0.25000000000000             2
    0.14285714285714   -0.20000000000000    0.25000000000000             2
    0.28571428571429   -0.20000000000000    0.25000000000000             2
    0.42857142857143   -0.20000000000000    0.25000000000000             2
   -0.42857142857143   -0.20000000000000    0.25000000000000             2
   -0.28571428571429   -0.20000000000000    0.25000000000000             2
   -0.14285714285714   -0.20000000000000    0.25000000000000             2
    0.00000000000000    0.00000000000000    0.50000000000000             1
    0.14285714285714    0.00000000000000    0.50000000000000             2
    0.28571428571429    0.00000000000000    0.50000000000000             2
    0.42857142857143    0.00000000000000    0.50000000000000             2
    0.00000000000000    0.20000000000000    0.50000000000000             2
    0.14285714285714    0.20000000000000    0.50000000000000             2
    0.28571428571429    0.20000000000000    0.50000000000000             2
    0.42857142857143    0.20000000000000    0.50000000000000             2
   -0.42857142857143    0.20000000000000    0.50000000000000             2
   -0.28571428571429    0.20000000000000    0.50000000000000             2
   -0.14285714285714    0.20000000000000    0.50000000000000             2
    0.00000000000000    0.40000000000000    0.50000000000000             2
    0.14285714285714    0.40000000000000    0.50000000000000             2
    0.28571428571429    0.40000000000000    0.50000000000000             2
    0.42857142857143    0.40000000000000    0.50000000000000             2
   -0.42857142857143    0.40000000000000    0.50000000000000             2
   -0.28571428571429    0.40000000000000    0.50000000000000             2
   -0.14285714285714    0.40000000000000    0.50000000000000             2
Tetrahedra
       418    0.00119047619048
         2         1         2         5        20
         2         2         5         6        20
         2         5         6        20        27
         2         1         5        19        20
         2         5        19        20        26
         2         5        20        26        27
         2         2         3         6        21
         2         3         6         7        21
         2         6         7        21        28
         2         2         6        20        21
         2         6        20        21        27
         2         6        21        27        28
         2         3         4         7        22
         2         4         7         8        22
         2         7         8        22        29
         2         3         7        21        22
         2         7        21        22        28
         2         7        22        28        29
         2         4         4         8        23
         2         4         8         9        23
         2         8         9        23        30
         2         4         8        22        23
         2         8        22        23        29
         2         8        23        29        30
         2         3         4         9        24
         2         3         9        10        24
         2         9        10        24        31
         2         4         9        23        24
         2         9        23        24        30
         2         9        24        30        31
         2         2         3        10        25
         2         2        10        11        25
         2        10        11        25        32
         2         3        10        24        25
         2        10        24        25        31
         2        10        25        31        32
         2         1         2        11        19
         2         1         5        11        19
         2         5        11        19        26
         2         2        11        19        25
         2        11        19        25        32
         2        11        19        26        32
         2         5         6        12        27
         2         6        12        13        27
         2        12        13        27        34
         2         5        12        26        27
         2        12        26        27        33
         2        12        27        33        34
         2         6         7        13        28
         2         7        13        14        28
         2        13        14        28        35
         2         6        13        27        28
         2        13        27        28        34
         2        13        28        34        35
         2         7         8        14        29
         2         8        14        15        29
         2        14        15        29        36
         2         7        14        28        29
         2        14        28        29        35
         2        14        29        35        36
         2         8         9        15        30
         2         9        15        16        30
         2        15        16        30        37
         2         8        15        29        30
         2        15        29        30        36
         2        15        30        36        37
         2         9        10        16        31
         2        10        16        17        31
         2        16        17        31        38
         2         9        16        30        31
         2        16        30        31        37
         2        16        31        37        38
         2        10        11        17        32
         2        11        17        18        32
         2        17        18        32        39
         2        10        17        31        32
         2        17        31        32        38
         2        17        32        38        39
         2         5        11        18        26
         2         5        12        18        26
         2        12        18        26        33
         2        11        18        26        32
         2        18        26        32        39
         2        18        26        33        39
         2        12        12        13        34
         2        12        13        18        34
         2        12        18        34        41
         2        12        12        33        34
         2        12        33        34        40
         2        12        34        40        41
         2        13        14        18        35
         2        14        17        18        35
         2        17        18        35        42
         2        13        18        34        35
         2        18        34        35        41
         2        18        35        41        42
         2        14        15        17        36
         2        15        16        17        36
         2        16        17        36        43
         2        14        17        35        36
         2        17        35        36        42
         2        17        36        42        43
         4        15        16        16        37
         2        15        16        37        44
         2        15        16        36        37
         2        16        36        37        43
         2        16        37        43        44
         2        15        16        17        38
         2        14        15        17        38
         2        14        15        38        45
         2        15        16        37        38
         2        15        37        38        44
         2        15        38        44        45
         2        14        17        18        39
         2        13        14        18        39
         2        13        14        39        46
         2        14        17        38        39
         2        14        38        39        45
         2        14        39        45        46
         2        12        13        18        33
         2        12        12        13        33
         2        12        13        33        40
         2        13        18        33        39
         2        13        33        39        46
         2        13        33        40        46
         2         5        12        18        41
         2         5        11        18        41
         2         5        11        41        48
         2         5        12        40        41
         2         5        40        41        47
         2         5        41        47        48
         2        11        17        18        42
         2        10        11        17        42
         2        10        11        42        49
         2        11        18        41        42
         2        11        41        42        48
         2        11        42        48        49
         2        10        16        17        43
         2         9        10        16        43
         2         9        10        43        50
         2        10        17        42        43
         2        10        42        43        49
         2        10        43        49        50
         2         9        15        16        44
         2         8         9        15        44
         2         8         9        44        51
         2         9        16        43        44
         2         9        43        44        50
         2         9        44        50        51
         2         8        14        15        45
         2         7         8        14        45
         2         7         8        45        52
         2         8        15        44        45
         2         8        44        45        51
         2         8        45        51        52
         2         7        13        14        46
         2         6         7        13        46
         2         6         7        46        53
         2         7        14        45        46
         2         7        45        46        52
         2         7        46        52        53
         2         6        12        13        40
         2         5         6        12        40
         2         5         6        40        47
         2         6        13        40        46
         2         6        40        46        53
         2         6        40        47        53
         2         1         5        11        48
         2         1         2        11        48
         2         1         2        20        48
         2         1         5        47        48
         2         1        19        47        48
         2         1        19        20        48
         2         2        10        11        49
         2         2         3        10        49
         2         2         3        21        49
         2         2        11        48        49
         2         2        20        48        49
         2         2        20        21        49
         2         3         9        10        50
         2         3         4         9        50
         2         3         4        22        50
         2         3        10        49        50
         2         3        21        49        50
         2         3        21        22        50
         2         4         8         9        51
         2         4         4         8        51
         2         4         4        23        51
         2         4         9        50        51
         2         4        22        50        51
         2         4        22        23        51
         2         4         7         8        52
         2         3         4         7        52
         2         3         4        24        52
         2         4         8        51        52
         2         4        23        51        52
         2         4        23        24        52
         2         3         6         7        53
         2         2         3         6        53
         2         2         3        25        53
         2         3         7        52        53
         2         3        24        52        53
         2         3        24        25        53
         2         2         5         6        47
         2         1         2         5        47
         2         1         2        19        47
         2         2         6        47        53
         2         2        25        47        53
         2         2        19        25        47
         2        19        20        26        55
         2        20        26        27        55
         2        26        27        55        59
         2        19        26        54        55
         2        26        54        55        58
         2        26        55        58        59
         2        20        21        27        56
         2        21        27        28        56
         2        27        28        56        60
         2        20        27        55        56
         2        27        55        56        59
         2        27        56        59        60
         2        21        22        28        57
         2        22        28        29        57
         2        28        29        57        61
         2        21        28        56        57
         2        28        56        57        60
         2        28        57        60        61
         2        22        23        29        57
         2        23        29        30        57
         2        29        30        57        62
         2        22        29        57        57
         2        29        57        57        61
         2        29        57        61        62
         2        23        24        30        56
         2        24        30        31        56
         2        30        31        56        63
         2        23        30        56        57
         2        30        56        57        62
         2        30        56        62        63
         2        24        25        31        55
         2        25        31        32        55
         2        31        32        55        64
         2        24        31        55        56
         2        31        55        56        63
         2        31        55        63        64
         2        19        25        32        54
         2        19        26        32        54
         2        26        32        54        58
         2        25        32        54        55
         2        32        54        55        64
         2        32        54        58        64
         2        26        27        33        59
         2        27        33        34        59
         2        33        34        59        66
         2        26        33        58        59
         2        33        58        59        65
         2        33        59        65        66
         2        27        28        34        60
         2        28        34        35        60
         2        34        35        60        67
         2        27        34        59        60
         2        34        59        60        66
         2        34        60        66        67
         2        28        29        35        61
         2        29        35        36        61
         2        35        36        61        68
         2        28        35        60        61
         2        35        60        61        67
         2        35        61        67        68
         2        29        30        36        62
         2        30        36        37        62
         2        36        37        62        69
         2        29        36        61        62
         2        36        61        62        68
         2        36        62        68        69
         2        30        31        37        63
         2        31        37        38        63
         2        37        38        63        70
         2        30        37        62        63
         2        37        62        63        69
         2        37        63        69        70
         2        31        32        38        64
         2        32        38        39        64
         2        38        39        64        71
         2        31        38        63        64
         2        38        63        64        70
         2        38        64        70        71
         2        26        32        39        58
         2        26        33        39        58
         2        33        39        58        65
         2        32        39        58        64
         2        39        58        64        71
         2        39        58        65        71
         2        33        34        40        66
         2        34        40        41        66
         2        40        41        66        71
         2        33        40        65        66
         2        40        65        65        66
         2        40        65        66        71
         2        34        35        41        67
         2        35        41        42        67
         2        41        42        67        70
         2        34        41        66        67
         2        41        66        67        71
         2        41        67        70        71
         2        35        36        42        68
         2        36        42        43        68
         2        42        43        68        69
         2        35        42        67        68
         2        42        67        68        70
         2        42        68        69        70
         2        36        37        43        69
         2        37        43        44        69
         2        43        44        68        69
         2        36        43        68        69
         4        43        68        69        69
         2        37        38        44        70
         2        38        44        45        70
         2        44        45        67        70
         2        37        44        69        70
         2        44        68        69        70
         2        44        67        68        70
         2        38        39        45        71
         2        39        45        46        71
         2        45        46        66        71
         2        38        45        70        71
         2        45        67        70        71
         2        45        66        67        71
         2        33        39        46        65
         2        33        40        46        65
         2        40        46        65        65
         2        39        46        65        71
         2        46        65        66        71
         2        46        65        65        66
         2        40        41        47        71
         2        41        47        48        71
         2        47        48        64        71
         2        40        47        65        71
         2        47        58        65        71
         2        47        58        64        71
         2        41        42        48        70
         2        42        48        49        70
         2        48        49        63        70
         2        41        48        70        71
         2        48        64        70        71
         2        48        63        64        70
         2        42        43        49        69
         2        43        49        50        69
         2        49        50        62        69
         2        42        49        69        70
         2        49        63        69        70
         2        49        62        63        69
         2        43        44        50        68
         2        44        50        51        68
         2        50        51        61        68
         2        43        50        68        69
         2        50        62        68        69
         2        50        61        62        68
         2        44        45        51        67
         2        45        51        52        67
         2        51        52        60        67
         2        44        51        67        68
         2        51        61        67        68
         2        51        60        61        67
         2        45        46        52        66
         2        46        52        53        66
         2        52        53        59        66
         2        45        52        66        67
         2        52        60        66        67
         2        52        59        60        66
         2        40        46        53        65
         2        40        47        53        65
         2        47        53        58        65
         2        46        53        65        66
         2        53        59        65        66
         2        53        58        59        65
         2        19        47        48        64
         2        19        20        48        64
         2        19        20        55        64
         2        19        47        58        64
         2        19        54        58        64
         2        19        54        55        64
         2        20        48        49        63
         2        20        21        49        63
         2        20        21        56        63
         2        20        48        63        64
         2        20        55        63        64
         2        20        55        56        63
         2        21        49        50        62
         2        21        22        50        62
         2        21        22        57        62
         2        21        49        62        63
         2        21        56        62        63
         2        21        56        57        62
         2        22        50        51        61
         2        22        23        51        61
         2        22        23        57        61
         2        22        50        61        62
         2        22        57        61        62
         2        22        57        57        61
         2        23        51        52        60
         2        23        24        52        60
         2        23        24        56        60
         2        23        51        60        61
         2        23        57        60        61
         2        23        56        57        60
         2        24        52        53        59
         2        24        25        53        59
         2        24        25        55        59
         2        24        52        59        60
         2        24        56        59        60
         2        24        55        56        59
         2        25        47        53        58
         2        19        25        47        58
         2        19        25        54        58
         2        25        53        58        59
         2        25        55        58        59
         2        25        54        55        58
