 running on   16 total cores
 distrk:  each k-point on   16 cores,    1 groups
 distr:  one band on    1 cores,   16 groups
 using from now: INCAR     
 vasp.5.4.4.18Apr17-6-g9f103f2a35 (build Nov 01 2019 12:17:22) complex          
  
 POSCAR found type information on POSCAR  Sr Nb H 
 POSCAR found :  3 types and      11 ions

 ----------------------------------------------------------------------------- 
|                                                                             |
|           W    W    AA    RRRRR   N    N  II  N    N   GGGG   !!!           |
|           W    W   A  A   R    R  NN   N  II  NN   N  G    G  !!!           |
|           W    W  A    A  R    R  N N  N  II  N N  N  G       !!!           |
|           W WW W  AAAAAA  RRRRR   N  N N  II  N  N N  G  GGG   !            |
|           WW  WW  A    A  R   R   N   NN  II  N   NN  G    G                |
|           W    W  A    A  R    R  N    N  II  N    N   GGGG   !!!           |
|                                                                             |
|      For optimal performance we recommend to set                            |
|        NCORE= 4 - approx SQRT( number of cores)                             |
|      NCORE specifies how many cores store one orbital (NPAR=cpu/NCORE).     |
|      This setting can  greatly improve the performance of VASP for DFT.     |
|      The default,   NCORE=1            might be grossly inefficient         |
|      on modern multi-core architectures or massively parallel machines.     |
|      Do your own testing !!!!                                               |
|      Unfortunately you need to use the default for GW and RPA calculations. |
|      (for HF NCORE is supported but not extensively tested yet)             |
|                                                                             |
 ----------------------------------------------------------------------------- 

 LDA part: xc-table for Pade appr. of Perdew
 POSCAR, INCAR and KPOINTS ok, starting setup
 FFT: planning ...
 WAVECAR not read
 entering main loop
       N       E                     dE             d eps       ncg     rms          rms(c)
DAV:   1     0.280055721666E+03    0.28006E+03   -0.19764E+04  9088   0.121E+03
DAV:   2    -0.341959157092E+02   -0.31425E+03   -0.30726E+03 10304   0.387E+02
DAV:   3    -0.513649277132E+02   -0.17169E+02   -0.17015E+02 17808   0.734E+01
DAV:   4    -0.515747463856E+02   -0.20982E+00   -0.20947E+00  9584   0.634E+00
DAV:   5    -0.515841986454E+02   -0.94523E-02   -0.94267E-02 16576   0.137E+00    0.412E+01
RMM:   6    -0.508419552267E+02    0.74224E+00   -0.95235E+00 10446   0.152E+01    0.166E+01
RMM:   7    -0.504627020365E+02    0.37925E+00   -0.27428E+00 10838   0.832E+00    0.693E+00
RMM:   8    -0.503765316969E+02    0.86170E-01   -0.39354E-01 10962   0.311E+00    0.388E+00
RMM:   9    -0.503623004443E+02    0.14231E-01   -0.10632E-01 10893   0.189E+00    0.182E+00
RMM:  10    -0.503587067197E+02    0.35937E-02   -0.21008E-02 10996   0.874E-01    0.808E-01
RMM:  11    -0.503570587869E+02    0.16479E-02   -0.53280E-03  9389   0.472E-01    0.219E-01
RMM:  12    -0.503569668350E+02    0.91952E-04   -0.17241E-03  7612   0.287E-01
   1 F= -.50356967E+02 E0= -.50356967E+02  d E =-.503570E+02  mag=    -0.0019
 curvature:   0.00 expect dE= 0.000E+00 dE for cont linesearch  0.000E+00
 trial: gam= 0.00000 g(F)=  0.106E-02 g(S)=  0.535E-01 ort = 0.000E+00 (trialstep = 0.100E+01)
 search vector abs. value=  0.546E-01
 bond charge predicted
       N       E                     dE             d eps       ncg     rms          rms(c)
DAV:   1    -0.505639482890E+02   -0.20689E+00   -0.39190E+00 13632   0.140E+01    0.485E+00
RMM:   2    -0.504065068492E+02    0.15744E+00   -0.42490E-01 10330   0.443E+00    0.919E-01
RMM:   3    -0.503895347869E+02    0.16972E-01   -0.75335E-02 10691   0.186E+00    0.789E-01
RMM:   4    -0.503861962016E+02    0.33386E-02   -0.11429E-02 10139   0.674E-01    0.721E-01
RMM:   5    -0.503865283527E+02   -0.33215E-03   -0.48334E-03  8577   0.637E-01
   2 F= -.50386528E+02 E0= -.50386528E+02  d E =-.295615E-01  mag=    -0.0000
 trial-energy change:   -0.029562  1 .order   -0.036693   -0.054609   -0.018777
 step:   1.5240(harm=  1.5240)  dis= 0.00531  next Energy=   -50.398580 (dE=-0.416E-01)
 bond charge predicted
       N       E                     dE             d eps       ncg     rms          rms(c)
DAV:   1    -0.504316556484E+02   -0.45459E-01   -0.10263E+00  9152   0.720E+00    0.243E+00
RMM:   2    -0.503885618357E+02    0.43094E-01   -0.10168E-01  9895   0.228E+00    0.471E-01
RMM:   3    -0.503843662852E+02    0.41956E-02   -0.23618E-02 10391   0.109E+00    0.453E-01
RMM:   4    -0.503836698911E+02    0.69639E-03   -0.31242E-03  7601   0.359E-01    0.444E-01
RMM:   5    -0.503836768238E+02   -0.69326E-05   -0.10922E-03  6762   0.402E-01
   3 F= -.50383677E+02 E0= -.50383677E+02  d E =-.267100E-01  mag=    -0.0000
 curvature:  -0.76 expect dE=-0.103E-01 dE for cont linesearch -0.519E-03
 trial: gam= 0.36008 g(F)=  0.109E-01 g(S)=  0.267E-02 ort =-0.610E-02 (trialstep = 0.110E+01)
 search vector abs. value=  0.163E-01
 bond charge predicted
       N       E                     dE             d eps       ncg     rms          rms(c)
DAV:   1    -0.503980127973E+02   -0.14343E-01   -0.11505E+00 11360   0.963E+00    0.104E+00
RMM:   2    -0.503924330445E+02    0.55798E-02   -0.10886E-01 10694   0.197E+00    0.330E-01
RMM:   3    -0.503909724474E+02    0.14606E-02   -0.76139E-03  9533   0.990E-01    0.299E-01
RMM:   4    -0.503909543582E+02    0.18089E-04   -0.29687E-03  8141   0.337E-01
   4 F= -.50390954E+02 E0= -.50390954E+02  d E =-.727753E-02  mag=    -0.0000
 trial-energy change:   -0.007278  1 .order   -0.008897   -0.012562   -0.005232
 step:   1.8934(harm=  1.8934)  dis= 0.01713  next Energy=   -50.394441 (dE=-0.108E-01)
 bond charge predicted
       N       E                     dE             d eps       ncg     rms          rms(c)
DAV:   1    -0.503960408460E+02   -0.50684E-02   -0.58940E-01 11936   0.688E+00    0.691E-01
RMM:   2    -0.503929565382E+02    0.30843E-02   -0.54946E-02 10664   0.139E+00    0.290E-01
RMM:   3    -0.503921583266E+02    0.79821E-03   -0.33294E-03  8093   0.658E-01    0.343E-01
RMM:   4    -0.503921121342E+02    0.46192E-04   -0.92079E-04  6469   0.267E-01
   5 F= -.50392112E+02 E0= -.50392112E+02  d E =-.843531E-02  mag=    -0.0000
 curvature:  -1.35 expect dE=-0.163E-01 dE for cont linesearch -0.462E-04
 trial: gam= 0.48984 g(F)=  0.586E-02 g(S)=  0.618E-02 ort = 0.745E-03 (trialstep = 0.123E+01)
 search vector abs. value=  0.167E-01
 bond charge predicted
       N       E                     dE             d eps       ncg     rms          rms(c)
DAV:   1    -0.504116464464E+02   -0.19488E-01   -0.10281E+00 12576   0.777E+00    0.125E+00
RMM:   2    -0.504063293351E+02    0.53171E-02   -0.61525E-02 10800   0.147E+00    0.536E-01
RMM:   3    -0.504029895807E+02    0.33398E-02   -0.99693E-03 10210   0.988E-01    0.169E-01
RMM:   4    -0.504030116416E+02   -0.22061E-04   -0.13316E-03  6938   0.229E-01
   6 F= -.50403012E+02 E0= -.50403012E+02  d E =-.108995E-01  mag=    -0.0000
 trial-energy change:   -0.010900  1 .order   -0.011151   -0.015271   -0.007030
 step:   2.2817(harm=  2.2817)  dis= 0.01699  next Energy=   -50.406262 (dE=-0.141E-01)
 bond charge predicted
       N       E                     dE             d eps       ncg     rms          rms(c)
DAV:   1    -0.504117147890E+02   -0.87252E-02   -0.74379E-01 13408   0.668E+00    0.101E+00
RMM:   2    -0.504075421989E+02    0.41726E-02   -0.44131E-02 10813   0.125E+00    0.407E-01
RMM:   3    -0.504051668424E+02    0.23754E-02   -0.68535E-03  9847   0.788E-01    0.147E-01
RMM:   4    -0.504051734887E+02   -0.66463E-05   -0.11529E-03  6628   0.239E-01
   7 F= -.50405173E+02 E0= -.50405173E+02  d E =-.130614E-01  mag=    -0.0000
 curvature:  -1.53 expect dE=-0.103E-01 dE for cont linesearch -0.242E-04
 trial: gam= 0.57936 g(F)=  0.538E-02 g(S)=  0.135E-02 ort =-0.513E-03 (trialstep = 0.144E+01)
 search vector abs. value=  0.117E-01
 bond charge predicted
       N       E                     dE             d eps       ncg     rms          rms(c)
DAV:   1    -0.504071926495E+02   -0.20258E-02   -0.13648E+00 11392   0.108E+01    0.613E-01
RMM:   2    -0.504126503835E+02   -0.54577E-02   -0.11946E-01  9996   0.202E+00    0.420E-01
RMM:   3    -0.504113773726E+02    0.12730E-02   -0.82801E-03  9060   0.134E+00    0.252E-01
RMM:   4    -0.504113915654E+02   -0.14193E-04   -0.16748E-03  6943   0.304E-01
   8 F= -.50411392E+02 E0= -.50411392E+02  d E =-.621808E-02  mag=    -0.0000
 trial-energy change:   -0.006218  1 .order   -0.006510   -0.009266   -0.003755
 step:   2.4233(harm=  2.4233)  dis= 0.01588  next Energy=   -50.412963 (dE=-0.779E-02)
 bond charge predicted
       N       E                     dE             d eps       ncg     rms          rms(c)
DAV:   1    -0.504106144422E+02    0.76293E-03   -0.63056E-01 12160   0.729E+00    0.357E-01
RMM:   2    -0.504131871574E+02   -0.25727E-02   -0.55578E-02  9929   0.138E+00    0.252E-01
RMM:   3    -0.504126108628E+02    0.57629E-03   -0.40651E-03  8386   0.956E-01    0.217E-01
RMM:   4    -0.504125709884E+02    0.39874E-04   -0.80173E-04  6324   0.215E-01
   9 F= -.50412571E+02 E0= -.50412571E+02  d E =-.739750E-02  mag=    -0.0000
 curvature:  -2.21 expect dE=-0.138E-01 dE for cont linesearch -0.528E-05
 trial: gam= 0.91197 g(F)=  0.458E-02 g(S)=  0.166E-02 ort =-0.167E-03 (trialstep = 0.122E+01)
 search vector abs. value=  0.157E-01
 bond charge predicted
       N       E                     dE             d eps       ncg     rms          rms(c)
DAV:   1    -0.504284081971E+02   -0.15797E-01   -0.91200E-01  9280   0.690E+00    0.111E+00
RMM:   2    -0.504198813977E+02    0.85268E-02   -0.79662E-02 10632   0.185E+00    0.334E-01
RMM:   3    -0.504177658582E+02    0.21155E-02   -0.70999E-03  9493   0.860E-01    0.215E-01
RMM:   4    -0.504174412889E+02    0.32457E-03   -0.17672E-03  7113   0.336E-01
  10 F= -.50417441E+02 E0= -.50417441E+02  d E =-.487030E-02  mag=     0.0000
 trial-energy change:   -0.004870  1 .order   -0.006267   -0.007454   -0.005081
 step:   3.8444(harm=  3.8444)  dis= 0.03070  next Energy=   -50.424276 (dE=-0.117E-01)
 bond charge predicted
       N       E                     dE             d eps       ncg     rms          rms(c)
DAV:   1    -0.504657302759E+02   -0.47964E-01   -0.41449E+00  9088   0.148E+01    0.240E+00
RMM:   2    -0.504263487374E+02    0.39382E-01   -0.36488E-01 10830   0.392E+00    0.682E-01
RMM:   3    -0.504163359129E+02    0.10013E-01   -0.31196E-02 10579   0.168E+00    0.494E-01
RMM:   4    -0.504150168976E+02    0.13190E-02   -0.82900E-03 10389   0.608E-01    0.365E-01
RMM:   5    -0.504149264552E+02    0.90442E-04   -0.29094E-03  8026   0.443E-01
  11 F= -.50414926E+02 E0= -.50414926E+02  d E =-.235547E-02  mag=     0.0000
 curvature:  -4.95 expect dE=-0.571E-01 dE for cont linesearch -0.165E-02
 trial: gam= 0.00000 g(F)=  0.938E-02 g(S)=  0.215E-02 ort =-0.228E-02 (trialstep = 0.175E+01)
 search vector abs. value=  0.115E-01
 reached required accuracy - stopping structural energy minimisation
