  11  11   0   0
  0.8362135E+01  0.3287454E-09  0.5477128E-09  0.6143431E-09  0.5000000E-15
  1.000000000000000E-004
  CAR 
 unknown system                          
     11.06902880    -35.23135530  301      2.49562245      1.00000000
    -35.231  0.0000E+00  0.0000E+00
    -35.077  0.0000E+00  0.0000E+00
    -34.923  0.0000E+00  0.0000E+00
    -34.768  0.0000E+00  0.0000E+00
    -34.614  0.0000E+00  0.0000E+00
    -34.460  0.0000E+00  0.0000E+00
    -34.305  0.0000E+00  0.0000E+00
    -34.151  0.0000E+00  0.0000E+00
    -33.997  0.3202E-32  0.4941E-33
    -33.842  0.8208E-22  0.1267E-22
    -33.688  0.1572E-13  0.2426E-14
    -33.534  0.2007E-07  0.3098E-08
    -33.379  0.1164E-03  0.1796E-04
    -33.225 -0.3614E-02 -0.5398E-03
    -33.071  0.1035E+00  0.1543E-01
    -32.916  0.1202E+00  0.3398E-01
    -32.762 -0.4369E-02  0.3331E-01
    -32.608  0.1698E-03  0.3333E-01
    -32.453  0.4590E-07  0.3333E-01
    -32.299  0.5271E-13  0.3333E-01
    -32.145  0.0000E+00  0.3333E-01
    -31.990  0.0000E+00  0.3333E-01
    -31.836  0.0000E+00  0.3333E-01
    -31.682  0.0000E+00  0.3333E-01
    -31.527  0.0000E+00  0.3333E-01
    -31.373  0.0000E+00  0.3333E-01
    -31.219  0.0000E+00  0.3333E-01
    -31.064  0.0000E+00  0.3333E-01
    -30.910  0.0000E+00  0.3333E-01
    -30.756  0.0000E+00  0.3333E-01
    -30.601  0.0000E+00  0.3333E-01
    -30.447  0.1682E-32  0.3333E-01
    -30.293  0.4285E-22  0.3333E-01
    -30.138  0.8231E-14  0.3333E-01
    -29.984  0.1077E-07  0.3333E-01
    -29.830  0.6747E-04  0.3334E-01
    -29.675 -0.1173E-02  0.3316E-01
    -29.521  0.6688E-01  0.4348E-01
    -29.367  0.2773E+00  0.8628E-01
    -29.212  0.2818E+00  0.1298E+00
    -29.058  0.2190E-01  0.1331E+00
    -28.904  0.1195E-02  0.1333E+00
    -28.749  0.5274E-05  0.1333E+00
    -28.595  0.4339E-10  0.1333E+00
    -28.441  0.0000E+00  0.1333E+00
    -28.286  0.0000E+00  0.1333E+00
    -28.132  0.0000E+00  0.1333E+00
    -27.978  0.0000E+00  0.1333E+00
    -27.823  0.0000E+00  0.1333E+00
    -27.669  0.0000E+00  0.1333E+00
    -27.515  0.0000E+00  0.1333E+00
    -27.360  0.0000E+00  0.1333E+00
    -27.206  0.0000E+00  0.1333E+00
    -27.052  0.0000E+00  0.1333E+00
    -26.897  0.0000E+00  0.1333E+00
    -26.743  0.0000E+00  0.1333E+00
    -26.589  0.0000E+00  0.1333E+00
    -26.434  0.0000E+00  0.1333E+00
    -26.280  0.0000E+00  0.1333E+00
    -26.126  0.0000E+00  0.1333E+00
    -25.971  0.0000E+00  0.1333E+00
    -25.817  0.0000E+00  0.1333E+00
    -25.663  0.0000E+00  0.1333E+00
    -25.508  0.0000E+00  0.1333E+00
    -25.354  0.0000E+00  0.1333E+00
    -25.200  0.0000E+00  0.1333E+00
    -25.045  0.0000E+00  0.1333E+00
    -24.891  0.0000E+00  0.1333E+00
    -24.737  0.0000E+00  0.1333E+00
    -24.582  0.0000E+00  0.1333E+00
    -24.428  0.0000E+00  0.1333E+00
    -24.274  0.0000E+00  0.1333E+00
    -24.119  0.0000E+00  0.1333E+00
    -23.965  0.0000E+00  0.1333E+00
    -23.811  0.0000E+00  0.1333E+00
    -23.656  0.0000E+00  0.1333E+00
    -23.502  0.0000E+00  0.1333E+00
    -23.348  0.0000E+00  0.1333E+00
    -23.193  0.0000E+00  0.1333E+00
    -23.039  0.0000E+00  0.1333E+00
    -22.885  0.0000E+00  0.1333E+00
    -22.730  0.0000E+00  0.1333E+00
    -22.576  0.0000E+00  0.1333E+00
    -22.422  0.0000E+00  0.1333E+00
    -22.267  0.0000E+00  0.1333E+00
    -22.113  0.0000E+00  0.1333E+00
    -21.959  0.0000E+00  0.1333E+00
    -21.804  0.0000E+00  0.1333E+00
    -21.650  0.0000E+00  0.1333E+00
    -21.496  0.0000E+00  0.1333E+00
    -21.341  0.0000E+00  0.1333E+00
    -21.187  0.0000E+00  0.1333E+00
    -21.033  0.0000E+00  0.1333E+00
    -20.878  0.0000E+00  0.1333E+00
    -20.724  0.0000E+00  0.1333E+00
    -20.570  0.0000E+00  0.1333E+00
    -20.415  0.0000E+00  0.1333E+00
    -20.261  0.0000E+00  0.1333E+00
    -20.107  0.0000E+00  0.1333E+00
    -19.952  0.0000E+00  0.1333E+00
    -19.798  0.0000E+00  0.1333E+00
    -19.644  0.0000E+00  0.1333E+00
    -19.489  0.0000E+00  0.1333E+00
    -19.335  0.0000E+00  0.1333E+00
    -19.181  0.0000E+00  0.1333E+00
    -19.026  0.0000E+00  0.1333E+00
    -18.872  0.0000E+00  0.1333E+00
    -18.718  0.0000E+00  0.1333E+00
    -18.563  0.0000E+00  0.1333E+00
    -18.409  0.0000E+00  0.1333E+00
    -18.255  0.0000E+00  0.1333E+00
    -18.100  0.0000E+00  0.1333E+00
    -17.946  0.0000E+00  0.1333E+00
    -17.792  0.0000E+00  0.1333E+00
    -17.637  0.0000E+00  0.1333E+00
    -17.483  0.0000E+00  0.1333E+00
    -17.329  0.0000E+00  0.1333E+00
    -17.174  0.0000E+00  0.1333E+00
    -17.020  0.0000E+00  0.1333E+00
    -16.866  0.3348E-38  0.1333E+00
    -16.711  0.8103E-27  0.1333E+00
    -16.557  0.1482E-17  0.1333E+00
    -16.403  0.1883E-10  0.1333E+00
    -16.248  0.1318E-05  0.1333E+00
    -16.094  0.1059E-03  0.1333E+00
    -15.940  0.3406E-02  0.1339E+00
    -15.785  0.5007E-01  0.1416E+00
    -15.631  0.2366E-01  0.1453E+00
    -15.477  0.1199E-01  0.1471E+00
    -15.322  0.3370E-01  0.1523E+00
    -15.168  0.2205E+00  0.1863E+00
    -15.014  0.2438E+00  0.2240E+00
    -14.859  0.7869E-02  0.2252E+00
    -14.705  0.4824E-01  0.2326E+00
    -14.551  0.4564E-02  0.2333E+00
    -14.396  0.4241E-04  0.2333E+00
    -14.242  0.1765E-05  0.2333E+00
    -14.088  0.3093E-10  0.2333E+00
    -13.933  0.1998E-17  0.2333E+00
    -13.779  0.0000E+00  0.2333E+00
    -13.625  0.0000E+00  0.2333E+00
    -13.470  0.0000E+00  0.2333E+00
    -13.316  0.0000E+00  0.2333E+00
    -13.162  0.0000E+00  0.2333E+00
    -13.007  0.0000E+00  0.2333E+00
    -12.853  0.0000E+00  0.2333E+00
    -12.699  0.0000E+00  0.2333E+00
    -12.544  0.0000E+00  0.2333E+00
    -12.390  0.0000E+00  0.2333E+00
    -12.235  0.0000E+00  0.2333E+00
    -12.081  0.0000E+00  0.2333E+00
    -11.927  0.0000E+00  0.2333E+00
    -11.772  0.0000E+00  0.2333E+00
    -11.618  0.0000E+00  0.2333E+00
    -11.464  0.0000E+00  0.2333E+00
    -11.309  0.0000E+00  0.2333E+00
    -11.155  0.0000E+00  0.2333E+00
    -11.001  0.0000E+00  0.2333E+00
    -10.846  0.0000E+00  0.2333E+00
    -10.692  0.0000E+00  0.2333E+00
    -10.538  0.0000E+00  0.2333E+00
    -10.383  0.0000E+00  0.2333E+00
    -10.229  0.0000E+00  0.2333E+00
    -10.075  0.0000E+00  0.2333E+00
     -9.920  0.0000E+00  0.2333E+00
     -9.766  0.0000E+00  0.2333E+00
     -9.612  0.0000E+00  0.2333E+00
     -9.457  0.0000E+00  0.2333E+00
     -9.303  0.0000E+00  0.2333E+00
     -9.149  0.0000E+00  0.2333E+00
     -8.994  0.0000E+00  0.2333E+00
     -8.840  0.0000E+00  0.2333E+00
     -8.686  0.0000E+00  0.2333E+00
     -8.531  0.0000E+00  0.2333E+00
     -8.377  0.0000E+00  0.2333E+00
     -8.223  0.5379E-33  0.2333E+00
     -8.068  0.7208E-23  0.2333E+00
     -7.914  0.6932E-15  0.2333E+00
     -7.760  0.4124E-09  0.2333E+00
     -7.605  0.9715E-06  0.2333E+00
     -7.451 -0.1083E-04  0.2333E+00
     -7.297  0.8320E-03  0.2335E+00
     -7.142  0.4268E-02  0.2341E+00
     -6.988  0.5669E-02  0.2350E+00
     -6.834  0.7655E-02  0.2362E+00
     -6.679  0.1185E-01  0.2380E+00
     -6.525  0.8164E-02  0.2393E+00
     -6.371  0.1995E-01  0.2423E+00
     -6.216  0.1705E-01  0.2450E+00
     -6.062  0.1653E-01  0.2475E+00
     -5.908  0.2066E-01  0.2507E+00
     -5.753  0.2330E-01  0.2543E+00
     -5.599  0.2651E-01  0.2584E+00
     -5.445  0.2375E-01  0.2621E+00
     -5.290  0.3417E-01  0.2673E+00
     -5.136  0.3925E-01  0.2734E+00
     -4.982  0.3304E-01  0.2785E+00
     -4.827  0.1375E-01  0.2806E+00
     -4.673  0.1023E-01  0.2822E+00
     -4.519  0.1277E-01  0.2842E+00
     -4.364  0.1697E-01  0.2868E+00
     -4.210  0.1019E-01  0.2884E+00
     -4.056  0.9080E-02  0.2898E+00
     -3.901  0.1109E-01  0.2915E+00
     -3.747  0.2015E-01  0.2946E+00
     -3.593  0.1933E-01  0.2976E+00
     -3.438  0.2074E-01  0.3008E+00
     -3.284  0.1385E-01  0.3029E+00
     -3.130  0.3437E-01  0.3082E+00
     -2.975  0.4661E-01  0.3154E+00
     -2.821  0.9110E-01  0.3295E+00
     -2.667  0.7275E-01  0.3407E+00
     -2.512  0.7240E-01  0.3519E+00
     -2.358  0.6487E-01  0.3619E+00
     -2.204  0.7712E-01  0.3738E+00
     -2.049  0.1206E+00  0.3924E+00
     -1.895  0.1016E+00  0.4081E+00
     -1.741  0.5994E-01  0.4173E+00
     -1.586  0.8563E-01  0.4305E+00
     -1.432  0.9487E-01  0.4452E+00
     -1.278  0.2601E-01  0.4492E+00
     -1.123  0.2394E-01  0.4529E+00
     -0.969  0.3529E-01  0.4583E+00
     -0.815  0.3896E-01  0.4643E+00
     -0.660  0.4510E-01  0.4713E+00
     -0.506  0.2803E-01  0.4756E+00
     -0.352  0.2788E-01  0.4799E+00
     -0.197  0.1651E-01  0.4825E+00
     -0.043  0.1046E-01  0.4841E+00
      0.111  0.4840E-02  0.4848E+00
      0.266  0.4525E-02  0.4855E+00
      0.420  0.3288E-02  0.4861E+00
      0.574  0.6853E-02  0.4871E+00
      0.729  0.1257E-01  0.4891E+00
      0.883  0.7730E-02  0.4902E+00
      1.037  0.5180E-02  0.4910E+00
      1.192  0.3782E-02  0.4916E+00
      1.346  0.2539E-03  0.4917E+00
      1.500  0.9721E-03  0.4918E+00
      1.655  0.8855E-02  0.4932E+00
      1.809  0.1384E-01  0.4953E+00
      1.963  0.6786E-02  0.4964E+00
      2.118  0.4838E-02  0.4971E+00
      2.272  0.6292E-03  0.4972E+00
      2.426  0.6541E-02  0.4982E+00
      2.581  0.3589E-01  0.5038E+00
      2.735  0.5819E-01  0.5127E+00
      2.889  0.8256E-01  0.5255E+00
      3.044  0.3272E-01  0.5305E+00
      3.198  0.1584E-01  0.5330E+00
      3.352  0.8202E-02  0.5342E+00
      3.507  0.1010E-01  0.5358E+00
      3.661  0.2964E-01  0.5404E+00
      3.815  0.1206E-01  0.5422E+00
      3.970  0.4950E-02  0.5430E+00
      4.124  0.2142E-01  0.5463E+00
      4.278  0.3591E-01  0.5518E+00
      4.433  0.3882E-01  0.5578E+00
      4.587  0.4374E-01  0.5646E+00
      4.741  0.4317E-01  0.5713E+00
      4.896  0.4637E-01  0.5784E+00
      5.050  0.2912E-01  0.5829E+00
      5.204  0.6325E-01  0.5927E+00
      5.359  0.6387E-01  0.6025E+00
      5.513  0.3765E-01  0.6083E+00
      5.667  0.5128E-01  0.6162E+00
      5.822  0.6861E-01  0.6268E+00
      5.976  0.6578E-01  0.6370E+00
      6.130  0.7590E-01  0.6487E+00
      6.285  0.6041E-01  0.6580E+00
      6.439  0.7508E-01  0.6696E+00
      6.593  0.6314E-01  0.6794E+00
      6.748  0.5064E-01  0.6872E+00
      6.902  0.5031E-01  0.6949E+00
      7.056  0.4551E-01  0.7020E+00
      7.211  0.5890E-01  0.7111E+00
      7.365  0.6720E-01  0.7214E+00
      7.519  0.5652E-01  0.7301E+00
      7.674  0.5515E-01  0.7387E+00
      7.828  0.6302E-01  0.7484E+00
      7.982  0.5736E-01  0.7572E+00
      8.137  0.5011E-01  0.7650E+00
      8.291  0.7815E-01  0.7770E+00
      8.445  0.6983E-01  0.7878E+00
      8.600  0.4059E-01  0.7941E+00
      8.754  0.3115E-01  0.7989E+00
      8.908  0.6511E-02  0.7999E+00
      9.063  0.7627E-03  0.8000E+00
      9.217 -0.1772E-04  0.8000E+00
      9.371  0.1076E-05  0.8000E+00
      9.526  0.2463E-09  0.8000E+00
      9.680  0.2330E-15  0.8000E+00
      9.834  0.0000E+00  0.8000E+00
      9.989  0.0000E+00  0.8000E+00
     10.143  0.0000E+00  0.8000E+00
     10.297  0.0000E+00  0.8000E+00
     10.452  0.0000E+00  0.8000E+00
     10.606  0.0000E+00  0.8000E+00
     10.760  0.0000E+00  0.8000E+00
     10.915  0.0000E+00  0.8000E+00
     11.069  0.0000E+00  0.8000E+00
