   23   23   60    1
  0.1323388E+02  0.7468183E-09  0.6970136E-09  0.7096616E-09  0.5000000E-15
  1.000000000000000E-004
  CAR 
 unknown system                          
     87    128     56
 
  0.3742002E-15  0.3742002E-15  0.3742002E-15  0.3968254E-02
    1      -33.052527   1.000000
    2      -32.976040   1.000000
    3      -32.928755   1.000000
    4      -32.887976   1.000000
    5      -32.879207   1.000000
    6      -32.854914   1.000000
    7      -28.044156   1.000000
    8      -28.007377   1.000000
    9      -27.804580   1.000000
   10      -15.414348   1.000000
   11      -15.329934   1.000000
   12      -15.289463   1.000000
   13      -15.246580   1.000000
   14      -15.218037   1.000000
   15      -15.117129   1.000000
   16      -15.088864   1.000000
   17      -15.027730   1.000000
   18      -14.999978   1.000000
   19      -14.974768   1.000000
   20      -14.926278   1.000000
   21      -14.887472   1.000000
   22      -14.862044   1.000000
   23      -14.843238   1.000000
   24      -14.806061   1.000000
   25      -14.759515   1.000000
   26      -14.743929   1.000000
   27      -14.731851   1.000000
   28       -6.314880   1.000000
   29       -4.228215   1.000000
   30       -2.114761   1.000000
   31       -2.059121   1.000000
   32       -1.761840   1.000000
   33       -1.488988   1.000000
   34       -1.443101   1.000000
   35       -1.200162   1.000000
   36       -1.041736   1.000000
   37       -0.829514   1.000000
   38       -0.701725   1.000000
   39       -0.580937   1.000000
   40       -0.448461   1.000000
   41       -0.432738   1.000000
   42        0.133333   1.000000
   43        2.051808   1.000000
   44        2.373711   1.014908
   45        3.701890   0.000000
   46        4.051550   0.000000
   47        4.354904   0.000000
   48        4.720985   0.000000
   49        4.784014   0.000000
   50        5.204780   0.000000
   51        5.295718   0.000000
   52        5.322264   0.000000
   53        5.491531   0.000000
   54        5.670747   0.000000
   55        5.898754   0.000000
   56        6.025566   0.000000
 
  0.1666667E+00  0.3755676E-15  0.3608225E-15  0.7936508E-02
    1      -33.052153   1.000000
    2      -32.973453   1.000000
    3      -32.931491   1.000000
    4      -32.888124   1.000000
    5      -32.877940   1.000000
    6      -32.856347   1.000000
    7      -28.043979   1.000000
    8      -28.007349   1.000000
    9      -27.804490   1.000000
   10      -15.396534   1.000000
   11      -15.321622   1.000000
   12      -15.289186   1.000000
   13      -15.234742   1.000000
   14      -15.193528   1.000000
   15      -15.117669   1.000000
   16      -15.093374   1.000000
   17      -15.033925   1.000000
   18      -14.997918   1.000000
   19      -14.976246   1.000000
   20      -14.933904   1.000000
   21      -14.902894   1.000000
   22      -14.871294   1.000000
   23      -14.837836   1.000000
   24      -14.812359   1.000000
   25      -14.780020   1.000000
   26      -14.748403   1.000000
   27      -14.735601   1.000000
   28       -6.287871   1.000000
   29       -4.143948   1.000000
   30       -2.156399   1.000000
   31       -2.078979   1.000000
   32       -1.809145   1.000000
   33       -1.508691   1.000000
   34       -1.455238   1.000000
   35       -1.158325   1.000000
   36       -1.056776   1.000000
   37       -0.910906   1.000000
   38       -0.779590   1.000000
   39       -0.651035   1.000000
   40       -0.427356   1.000000
   41       -0.300054   1.000000
   42        0.153376   1.000000
   43        2.119867   0.999999
   44        2.398246   1.037507
   45        3.775359   0.000000
   46        4.132730   0.000000
   47        4.430697   0.000000
   48        4.667530   0.000000
   49        4.799693   0.000000
   50        5.032497   0.000000
   51        5.224814   0.000000
   52        5.345548   0.000000
   53        5.487916   0.000000
   54        5.593776   0.000000
   55        5.775572   0.000000
   56        5.969550   0.000000
 
  0.3333333E+00  0.3608225E-15  0.3885781E-15  0.7936508E-02
    1      -33.051441   1.000000
    2      -32.966597   1.000000
    3      -32.938695   1.000000
    4      -32.888477   1.000000
    5      -32.874507   1.000000
    6      -32.860009   1.000000
    7      -28.043614   1.000000
    8      -28.007239   1.000000
    9      -27.804270   1.000000
   10      -15.360546   1.000000
   11      -15.306858   1.000000
   12      -15.252266   1.000000
   13      -15.217506   1.000000
   14      -15.170953   1.000000
   15      -15.114152   1.000000
   16      -15.081515   1.000000
   17      -15.052163   1.000000
   18      -15.020432   1.000000
   19      -14.970675   1.000000
   20      -14.953174   1.000000
   21      -14.930007   1.000000
   22      -14.875073   1.000000
   23      -14.861752   1.000000
   24      -14.829977   1.000000
   25      -14.793956   1.000000
   26      -14.765098   1.000000
   27      -14.739342   1.000000
   28       -6.237578   1.000000
   29       -3.914012   1.000000
   30       -2.409393   1.000000
   31       -2.058183   1.000000
   32       -1.885300   1.000000
   33       -1.595064   1.000000
   34       -1.459026   1.000000
   35       -1.169953   1.000000
   36       -1.056893   1.000000
   37       -0.987420   1.000000
   38       -0.816594   1.000000
   39       -0.650314   1.000000
   40       -0.363126   1.000000
   41       -0.219969   1.000000
   42        0.155050   1.000000
   43        2.244947   0.999082
   44        2.461543   0.974297
   45        3.956772   0.000000
   46        4.231775   0.000000
   47        4.453596   0.000000
   48        4.657357   0.000000
   49        4.880633   0.000000
   50        4.939188   0.000000
   51        5.132981   0.000000
   52        5.187539   0.000000
   53        5.307894   0.000000
   54        5.631065   0.000000
   55        5.702564   0.000000
   56        5.904493   0.000000
 
  0.5000000E+00  0.4250073E-15  0.3608225E-15  0.3968254E-02
    1      -33.051102   1.000000
    2      -32.960991   1.000000
    3      -32.944500   1.000000
    4      -32.888666   1.000000
    5      -32.871756   1.000000
    6      -32.862840   1.000000
    7      -28.043423   1.000000
    8      -28.007228   1.000000
    9      -27.804240   1.000000
   10      -15.341455   1.000000
   11      -15.296259   1.000000
   12      -15.228353   1.000000
   13      -15.208255   1.000000
   14      -15.157218   1.000000
   15      -15.096809   1.000000
   16      -15.091853   1.000000
   17      -15.051132   1.000000
   18      -15.046583   1.000000
   19      -14.987194   1.000000
   20      -14.965762   1.000000
   21      -14.938518   1.000000
   22      -14.880365   1.000000
   23      -14.859264   1.000000
   24      -14.840663   1.000000
   25      -14.801388   1.000000
   26      -14.773947   1.000000
   27      -14.740751   1.000000
   28       -6.216092   1.000000
   29       -3.737457   1.000000
   30       -2.633124   1.000000
   31       -2.037974   1.000000
   32       -1.908424   1.000000
   33       -1.632751   1.000000
   34       -1.450069   1.000000
   35       -1.262783   1.000000
   36       -1.057636   1.000000
   37       -0.943883   1.000000
   38       -0.811023   1.000000
   39       -0.637381   1.000000
   40       -0.349149   1.000000
   41       -0.170311   1.000000
   42        0.125694   1.000000
   43        2.301718   0.995579
   44        2.499490   0.695828
   45        4.098629   0.000000
   46        4.224166   0.000000
   47        4.492415   0.000000
   48        4.582068   0.000000
   49        4.909261   0.000000
   50        4.978890   0.000000
   51        5.084310   0.000000
   52        5.157627   0.000000
   53        5.294062   0.000000
   54        5.562281   0.000000
   55        5.648253   0.000000
   56        5.795695   0.000000
 
  0.3660267E-15  0.1428571E+00  0.3677614E-15  0.7936508E-02
    1      -33.052226   1.000000
    2      -32.974017   1.000000
    3      -32.930956   1.000000
    4      -32.888153   1.000000
    5      -32.878094   1.000000
    6      -32.856050   1.000000
    7      -28.044021   1.000000
    8      -28.007392   1.000000
    9      -27.804534   1.000000
   10      -15.398908   1.000000
   11      -15.325500   1.000000
   12      -15.286895   1.000000
   13      -15.241801   1.000000
   14      -15.197922   1.000000
   15      -15.119532   1.000000
   16      -15.093652   1.000000
   17      -15.028235   1.000000
   18      -15.000875   1.000000
   19      -14.973785   1.000000
   20      -14.931271   1.000000
   21      -14.899232   1.000000
   22      -14.872738   1.000000
   23      -14.840809   1.000000
   24      -14.805676   1.000000
   25      -14.770933   1.000000
   26      -14.751446   1.000000
   27      -14.736203   1.000000
   28       -6.294235   1.000000
   29       -4.158200   1.000000
   30       -2.145032   1.000000
   31       -2.094716   1.000000
   32       -1.807433   1.000000
   33       -1.524226   1.000000
   34       -1.421630   1.000000
   35       -1.210148   1.000000
   36       -1.059572   1.000000
   37       -0.887905   1.000000
   38       -0.749124   1.000000
   39       -0.607429   1.000000
   40       -0.413318   1.000000
   41       -0.321131   1.000000
   42        0.158844   1.000000
   43        2.081619   1.000000
   44        2.419712   1.051338
   45        3.725715   0.000000
   46        4.044685   0.000000
   47        4.404383   0.000000
   48        4.702714   0.000000
   49        4.834533   0.000000
   50        4.961740   0.000000
   51        5.155082   0.000000
   52        5.427855   0.000000
   53        5.565704   0.000000
   54        5.658145   0.000000
   55        5.808531   0.000000
   56        5.992390   0.000000
 
  0.1666667E+00  0.1428571E+00  0.3053113E-15  0.7936508E-02
    1      -33.051720   1.000000
    2      -32.967941   1.000000
    3      -32.937488   1.000000
    4      -32.888255   1.000000
    5      -32.874233   1.000000
    6      -32.860093   1.000000
    7      -28.043676   1.000000
    8      -28.007336   1.000000
    9      -27.804336   1.000000
   10      -15.361162   1.000000
   11      -15.305786   1.000000
   12      -15.268367   1.000000
   13      -15.222739   1.000000
   14      -15.153656   1.000000
   15      -15.138657   1.000000
   16      -15.100453   1.000000
   17      -15.035414   1.000000
   18      -15.009478   1.000000
   19      -14.986115   1.000000
   20      -14.942211   1.000000
   21      -14.931350   1.000000
   22      -14.880589   1.000000
   23      -14.843339   1.000000
   24      -14.825362   1.000000
   25      -14.789506   1.000000
   26      -14.754019   1.000000
   27      -14.744404   1.000000
   28       -6.253857   1.000000
   29       -4.005241   1.000000
   30       -2.169250   1.000000
   31       -2.061139   1.000000
   32       -1.943201   1.000000
   33       -1.526083   1.000000
   34       -1.500903   1.000000
   35       -1.177137   1.000000
   36       -1.086851   1.000000
   37       -1.012248   1.000000
   38       -0.878957   1.000000
   39       -0.592325   1.000000
   40       -0.327579   1.000000
   41       -0.210277   1.000000
   42        0.121464   1.000000
   43        2.191847   0.999921
   44        2.503779   0.653412
   45        3.872651   0.000000
   46        4.140716   0.000000
   47        4.413362   0.000000
   48        4.605296   0.000000
   49        4.800091   0.000000
   50        4.938017   0.000000
   51        5.141990   0.000000
   52        5.277866   0.000000
   53        5.308211   0.000000
   54        5.601623   0.000000
   55        5.954568   0.000000
   56        5.999463   0.000000
 
  0.3333333E+00  0.1428571E+00  0.3330669E-15  0.7936508E-02
    1      -33.051146   1.000000
    2      -32.960881   1.000000
    3      -32.944705   1.000000
    4      -32.888654   1.000000
    5      -32.871263   1.000000
    6      -32.863229   1.000000
    7      -28.043479   1.000000
    8      -28.007234   1.000000
    9      -27.804274   1.000000
   10      -15.341402   1.000000
   11      -15.295574   1.000000
   12      -15.227397   1.000000
   13      -15.201708   1.000000
   14      -15.159994   1.000000
   15      -15.119837   1.000000
   16      -15.084439   1.000000
   17      -15.060801   1.000000
   18      -15.032763   1.000000
   19      -14.990474   1.000000
   20      -14.963875   1.000000
   21      -14.938876   1.000000
   22      -14.879231   1.000000
   23      -14.860526   1.000000
   24      -14.833030   1.000000
   25      -14.797031   1.000000
   26      -14.770172   1.000000
   27      -14.748990   1.000000
   28       -6.218499   1.000000
   29       -3.762439   1.000000
   30       -2.506940   1.000000
   31       -2.109367   1.000000
   32       -1.996157   1.000000
   33       -1.614900   1.000000
   34       -1.472211   1.000000
   35       -1.179698   1.000000
   36       -1.079178   1.000000
   37       -0.971546   1.000000
   38       -0.855588   1.000000
   39       -0.566409   1.000000
   40       -0.322828   1.000000
   41       -0.141329   1.000000
   42        0.099638   1.000000
   43        2.281062   0.997060
   44        2.520375   0.480467
   45        4.060368   0.000000
   46        4.268178   0.000000
   47        4.355217   0.000000
   48        4.595743   0.000000
   49        4.807950   0.000000
   50        4.911581   0.000000
   51        5.108693   0.000000
   52        5.146997   0.000000
   53        5.307044   0.000000
   54        5.669428   0.000000
   55        5.802950   0.000000
   56        5.860699   0.000000
 
  0.5000000E+00  0.1428571E+00  0.3330669E-15  0.7936508E-02
    1      -33.051051   1.000000
    2      -32.964348   1.000000
    3      -32.940906   1.000000
    4      -32.888983   1.000000
    5      -32.874619   1.000000
    6      -32.859882   1.000000
    7      -28.043569   1.000000
    8      -28.007227   1.000000
    9      -27.804261   1.000000
   10      -15.356133   1.000000
   11      -15.308500   1.000000
   12      -15.243504   1.000000
   13      -15.205095   1.000000
   14      -15.162531   1.000000
   15      -15.108285   1.000000
   16      -15.080676   1.000000
   17      -15.047349   1.000000
   18      -15.034741   1.000000
   19      -14.982202   1.000000
   20      -14.943094   1.000000
   21      -14.930395   1.000000
   22      -14.886604   1.000000
   23      -14.856847   1.000000
   24      -14.836298   1.000000
   25      -14.797593   1.000000
   26      -14.772070   1.000000
   27      -14.748946   1.000000
   28       -6.217998   1.000000
   29       -3.735904   1.000000
   30       -2.639930   1.000000
   31       -2.076611   1.000000
   32       -2.040386   1.000000
   33       -1.668748   1.000000
   34       -1.489802   1.000000
   35       -1.147906   1.000000
   36       -0.962647   1.000000
   37       -0.911918   1.000000
   38       -0.799422   1.000000
   39       -0.601690   1.000000
   40       -0.387895   1.000000
   41       -0.188895   1.000000
   42        0.195436   1.000000
   43        2.266467   0.998052
   44        2.442741   1.034183
   45        4.021310   0.000000
   46        4.194240   0.000000
   47        4.558689   0.000000
   48        4.609881   0.000000
   49        4.865682   0.000000
   50        4.988535   0.000000
   51        5.080475   0.000000
   52        5.239845   0.000000
   53        5.258919   0.000000
   54        5.538676   0.000000
   55        5.687711   0.000000
   56        5.890253   0.000000
 
 -0.3333333E+00  0.1428571E+00  0.3747003E-15  0.7936508E-02
    1      -33.051541   1.000000
    2      -32.971821   1.000000
    3      -32.932919   1.000000
    4      -32.888900   1.000000
    5      -32.878492   1.000000
    6      -32.855929   1.000000
    7      -28.043940   1.000000
    8      -28.007294   1.000000
    9      -27.804480   1.000000
   10      -15.393485   1.000000
   11      -15.328899   1.000000
   12      -15.280221   1.000000
   13      -15.221120   1.000000
   14      -15.184053   1.000000
   15      -15.118086   1.000000
   16      -15.056496   1.000000
   17      -15.044288   1.000000
   18      -15.011645   1.000000
   19      -14.961402   1.000000
   20      -14.934556   1.000000
   21      -14.912518   1.000000
   22      -14.875791   1.000000
   23      -14.847344   1.000000
   24      -14.820196   1.000000
   25      -14.791744   1.000000
   26      -14.757759   1.000000
   27      -14.744563   1.000000
   28       -6.254791   1.000000
   29       -3.978351   1.000000
   30       -2.488661   1.000000
   31       -2.094884   1.000000
   32       -1.888353   1.000000
   33       -1.668766   1.000000
   34       -1.406930   1.000000
   35       -1.089342   1.000000
   36       -1.016259   1.000000
   37       -0.890914   1.000000
   38       -0.723298   1.000000
   39       -0.631306   1.000000
   40       -0.459966   1.000000
   41       -0.261490   1.000000
   42        0.262028   1.000000
   43        2.167899   0.999980
   44        2.341278   0.997777
   45        3.828487   0.000000
   46        4.223173   0.000000
   47        4.503480   0.000000
   48        4.640789   0.000000
   49        4.863687   0.000000
   50        4.967317   0.000000
   51        5.196939   0.000000
   52        5.324894   0.000000
   53        5.378110   0.000000
   54        5.532015   0.000000
   55        5.718669   0.000000
   56        5.920238   0.000000
 
 -0.1666667E+00  0.1428571E+00  0.3677614E-15  0.7936508E-02
    1      -33.052136   1.000000
    2      -32.975496   1.000000
    3      -32.929106   1.000000
    4      -32.888455   1.000000
    5      -32.879792   1.000000
    6      -32.854433   1.000000
    7      -28.044111   1.000000
    8      -28.007373   1.000000
    9      -27.804588   1.000000
   10      -15.414711   1.000000
   11      -15.333681   1.000000
   12      -15.296099   1.000000
   13      -15.235049   1.000000
   14      -15.205916   1.000000
   15      -15.121528   1.000000
   16      -15.072072   1.000000
   17      -15.026642   1.000000
   18      -15.001071   1.000000
   19      -14.972236   1.000000
   20      -14.927191   1.000000
   21      -14.895125   1.000000
   22      -14.858495   1.000000
   23      -14.845337   1.000000
   24      -14.806754   1.000000
   25      -14.769697   1.000000
   26      -14.752766   1.000000
   27      -14.736321   1.000000
   28       -6.294070   1.000000
   29       -4.149379   1.000000
   30       -2.313917   1.000000
   31       -2.109641   1.000000
   32       -1.803807   1.000000
   33       -1.539741   1.000000
   34       -1.375436   1.000000
   35       -1.144956   1.000000
   36       -1.045391   1.000000
   37       -0.841437   1.000000
   38       -0.680674   1.000000
   39       -0.581992   1.000000
   40       -0.524124   1.000000
   41       -0.327212   1.000000
   42        0.219229   1.000000
   43        2.070161   1.000000
   44        2.335763   0.996585
   45        3.700214   0.000000
   46        4.130463   0.000000
   47        4.398448   0.000000
   48        4.728852   0.000000
   49        4.825758   0.000000
   50        5.062569   0.000000
   51        5.205265   0.000000
   52        5.349348   0.000000
   53        5.533160   0.000000
   54        5.615547   0.000000
   55        5.753939   0.000000
   56        5.979242   0.000000
 
  0.3608225E-15  0.2857143E+00  0.3469447E-15  0.7936508E-02
    1      -33.051586   1.000000
    2      -32.968243   1.000000
    3      -32.937168   1.000000
    4      -32.888580   1.000000
    5      -32.874934   1.000000
    6      -32.859210   1.000000
    7      -28.043728   1.000000
    8      -28.007383   1.000000
    9      -27.804391   1.000000
   10      -15.360774   1.000000
   11      -15.311837   1.000000
   12      -15.268435   1.000000
   13      -15.229874   1.000000
   14      -15.173461   1.000000
   15      -15.120919   1.000000
   16      -15.091452   1.000000
   17      -15.033584   1.000000
   18      -15.020386   1.000000
   19      -14.967373   1.000000
   20      -14.942645   1.000000
   21      -14.925581   1.000000
   22      -14.887396   1.000000
   23      -14.841827   1.000000
   24      -14.816003   1.000000
   25      -14.792787   1.000000
   26      -14.765932   1.000000
   27      -14.742747   1.000000
   28       -6.248919   1.000000
   29       -3.961923   1.000000
   30       -2.354971   1.000000
   31       -2.067928   1.000000
   32       -1.902367   1.000000
   33       -1.641078   1.000000
   34       -1.385898   1.000000
   35       -1.261230   1.000000
   36       -1.155035   1.000000
   37       -0.936097   1.000000
   38       -0.749883   1.000000
   39       -0.534598   1.000000
   40       -0.329306   1.000000
   41       -0.216135   1.000000
   42        0.172392   1.000000
   43        2.159213   0.999988
   44        2.503951   0.651686
   45        3.816343   0.000000
   46        4.023945   0.000000
   47        4.422243   0.000000
   48        4.599725   0.000000
   49        4.823744   0.000000
   50        5.007906   0.000000
   51        5.131120   0.000000
   52        5.250820   0.000000
   53        5.314781   0.000000
   54        5.652318   0.000000
   55        5.796884   0.000000
   56        5.997590   0.000000
 
  0.1666667E+00  0.2857143E+00  0.3608225E-15  0.7936508E-02
    1      -33.051186   1.000000
    2      -32.960643   1.000000
    3      -32.945106   1.000000
    4      -32.888711   1.000000
    5      -32.870368   1.000000
    6      -32.863889   1.000000
    7      -28.043471   1.000000
    8      -28.007325   1.000000
    9      -27.804303   1.000000
   10      -15.335565   1.000000
   11      -15.292718   1.000000
   12      -15.225312   1.000000
   13      -15.217868   1.000000
   14      -15.167118   1.000000
   15      -15.118605   1.000000
   16      -15.095084   1.000000
   17      -15.053840   1.000000
   18      -15.021434   1.000000
   19      -14.992690   1.000000
   20      -14.964949   1.000000
   21      -14.939021   1.000000
   22      -14.881525   1.000000
   23      -14.854797   1.000000
   24      -14.823027   1.000000
   25      -14.799811   1.000000
   26      -14.770189   1.000000
   27      -14.752867   1.000000
   28       -6.219047   1.000000
   29       -3.778347   1.000000
   30       -2.436346   1.000000
   31       -2.154286   1.000000
   32       -2.006294   1.000000
   33       -1.609009   1.000000
   34       -1.509395   1.000000
   35       -1.226232   1.000000
   36       -1.143383   1.000000
   37       -0.929539   1.000000
   38       -0.813798   1.000000
   39       -0.510597   1.000000
   40       -0.283241   1.000000
   41       -0.096393   1.000000
   42        0.075262   1.000000
   43        2.247049   0.999005
   44        2.553479   0.163179
   45        3.975220   0.000000
   46        4.120369   0.000000
   47        4.363479   0.000000
   48        4.562878   0.000000
   49        4.757685   0.000000
   50        4.982879   0.000000
   51        5.006415   0.000000
   52        5.175546   0.000000
   53        5.383956   0.000000
   54        5.632834   0.000000
   55        5.821090   0.000000
   56        6.015176   0.000000
 
  0.3333333E+00  0.2857143E+00  0.3885781E-15  0.7936508E-02
    1      -33.050862   1.000000
    2      -32.961946   1.000000
    3      -32.943477   1.000000
    4      -32.889265   1.000000
    5      -32.873863   1.000000
    6      -32.860459   1.000000
    7      -28.043525   1.000000
    8      -28.007225   1.000000
    9      -27.804244   1.000000
   10      -15.347706   1.000000
   11      -15.308179   1.000000
   12      -15.243562   1.000000
   13      -15.190747   1.000000
   14      -15.143724   1.000000
   15      -15.105506   1.000000
   16      -15.086987   1.000000
   17      -15.075327   1.000000
   18      -15.045306   1.000000
   19      -14.984451   1.000000
   20      -14.936716   1.000000
   21      -14.932176   1.000000
   22      -14.876043   1.000000
   23      -14.851879   1.000000
   24      -14.843292   1.000000
   25      -14.790591   1.000000
   26      -14.777638   1.000000
   27      -14.764586   1.000000
   28       -6.206421   1.000000
   29       -3.607295   1.000000
   30       -2.703268   1.000000
   31       -2.273384   1.000000
   32       -2.036318   1.000000
   33       -1.700578   1.000000
   34       -1.537508   1.000000
   35       -1.108919   1.000000
   36       -1.007614   1.000000
   37       -0.889123   1.000000
   38       -0.752495   1.000000
   39       -0.523695   1.000000
   40       -0.327990   1.000000
   41       -0.151381   1.000000
   42        0.193475   1.000000
   43        2.248321   0.998956
   44        2.475146   0.898111
   45        3.976143   0.000000
   46        4.201532   0.000000
   47        4.469143   0.000000
   48        4.615569   0.000000
   49        4.804718   0.000000
   50        4.963296   0.000000
   51        5.031104   0.000000
   52        5.107075   0.000000
   53        5.293792   0.000000
   54        5.728203   0.000000
   55        5.828272   0.000000
   56        5.872804   0.000000
 
  0.5000000E+00  0.2857143E+00  0.3885781E-15  0.7936508E-02
    1      -33.050919   1.000000
    2      -32.969695   1.000000
    3      -32.934954   1.000000
    4      -32.889815   1.000000
    5      -32.878579   1.000000
    6      -32.855702   1.000000
    7      -28.043837   1.000000
    8      -28.007219   1.000000
    9      -27.804429   1.000000
   10      -15.384510   1.000000
   11      -15.340202   1.000000
   12      -15.274220   1.000000
   13      -15.206986   1.000000
   14      -15.156002   1.000000
   15      -15.111227   1.000000
   16      -15.062892   1.000000
   17      -15.030409   1.000000
   18      -15.018190   1.000000
   19      -14.970121   1.000000
   20      -14.925551   1.000000
   21      -14.922788   1.000000
   22      -14.897884   1.000000
   23      -14.841046   1.000000
   24      -14.824750   1.000000
   25      -14.794765   1.000000
   26      -14.773239   1.000000
   27      -14.756210   1.000000
   28       -6.221644   1.000000
   29       -3.708594   1.000000
   30       -2.838195   1.000000
   31       -2.122935   1.000000
   32       -2.022584   1.000000
   33       -1.782343   1.000000
   34       -1.493367   1.000000
   35       -1.028066   1.000000
   36       -0.957650   1.000000
   37       -0.845470   1.000000
   38       -0.698452   1.000000
   39       -0.557384   1.000000
   40       -0.410337   1.000000
   41       -0.246580   1.000000
   42        0.369887   1.000000
   43        2.175424   0.999968
   44        2.329116   0.995656
   45        3.867735   0.000000
   46        4.168003   0.000000
   47        4.502155   0.000000
   48        4.692186   0.000000
   49        4.800292   0.000000
   50        4.940913   0.000000
   51        5.153383   0.000000
   52        5.224997   0.000000
   53        5.308545   0.000000
   54        5.694455   0.000000
   55        5.831806   0.000000
   56        5.979360   0.000000
 
 -0.3333333E+00  0.2857143E+00  0.3469447E-15  0.7936508E-02
    1      -33.051323   1.000000
    2      -32.974208   1.000000
    3      -32.930035   1.000000
    4      -32.889703   1.000000
    5      -32.880659   1.000000
    6      -32.853581   1.000000
    7      -28.044097   1.000000
    8      -28.007263   1.000000
    9      -27.804556   1.000000
   10      -15.412167   1.000000
   11      -15.350294   1.000000
   12      -15.297131   1.000000
   13      -15.220525   1.000000
   14      -15.172294   1.000000
   15      -15.121422   1.000000
   16      -15.036401   1.000000
   17      -15.024309   1.000000
   18      -15.006678   1.000000
   19      -14.965526   1.000000
   20      -14.934538   1.000000
   21      -14.910168   1.000000
   22      -14.880870   1.000000
   23      -14.834262   1.000000
   24      -14.808808   1.000000
   25      -14.791442   1.000000
   26      -14.767641   1.000000
   27      -14.743046   1.000000
   28       -6.251572   1.000000
   29       -3.922935   1.000000
   30       -2.726489   1.000000
   31       -2.143559   1.000000
   32       -1.856485   1.000000
   33       -1.754711   1.000000
   34       -1.336338   1.000000
   35       -1.094788   1.000000
   36       -0.954059   1.000000
   37       -0.857863   1.000000
   38       -0.695634   1.000000
   39       -0.543219   1.000000
   40       -0.482422   1.000000
   41       -0.279567   1.000000
   42        0.406494   1.000000
   43        2.085727   1.000000
   44        2.283705   0.996863
   45        3.722649   0.000000
   46        4.207331   0.000000
   47        4.396630   0.000000
   48        4.674111   0.000000
   49        4.863765   0.000000
   50        4.937761   0.000000
   51        5.240260   0.000000
   52        5.357747   0.000000
   53        5.461779   0.000000
   54        5.592800   0.000000
   55        5.708094   0.000000
   56        5.976802   0.000000
 
 -0.1666667E+00  0.2857143E+00  0.3590878E-15  0.7936508E-02
    1      -33.051671   1.000000
    2      -32.973603   1.000000
    3      -32.931088   1.000000
    4      -32.889010   1.000000
    5      -32.879285   1.000000
    6      -32.854892   1.000000
    7      -28.044067   1.000000
    8      -28.007381   1.000000
    9      -27.804563   1.000000
   10      -15.402402   1.000000
   11      -15.336923   1.000000
   12      -15.291247   1.000000
   13      -15.228620   1.000000
   14      -15.185951   1.000000
   15      -15.123650   1.000000
   16      -15.064436   1.000000
   17      -15.025592   1.000000
   18      -15.009955   1.000000
   19      -14.962102   1.000000
   20      -14.932756   1.000000
   21      -14.905294   1.000000
   22      -14.865173   1.000000
   23      -14.852419   1.000000
   24      -14.803911   1.000000
   25      -14.778990   1.000000
   26      -14.766845   1.000000
   27      -14.742867   1.000000
   28       -6.267028   1.000000
   29       -4.019616   1.000000
   30       -2.502067   1.000000
   31       -2.131652   1.000000
   32       -1.850457   1.000000