       N       E                     dE             d eps       ncg     rms          rms(c)
DAV:   1     0.212604806538E+03    0.21260E+03   -0.18675E+04  6144   0.111E+03
DAV:   2    -0.272962955390E+02   -0.23990E+03   -0.23357E+03  7408   0.302E+02
DAV:   3    -0.409240638523E+02   -0.13628E+02   -0.13575E+02 12112   0.599E+01
DAV:   4    -0.411281785046E+02   -0.20411E+00   -0.20398E+00  6640   0.636E+00
DAV:   5    -0.411359701893E+02   -0.77917E-02   -0.77950E-02 10608   0.982E-01    0.387E+01
RMM:   6    -0.411272020960E+02    0.87681E-02   -0.78623E+00  6837   0.114E+01    0.173E+01
RMM:   7    -0.404255219826E+02    0.70168E+00   -0.14518E+00  7058   0.579E+00    0.117E+01
RMM:   8    -0.403753117814E+02    0.50210E-01   -0.54970E-01  7001   0.440E+00    0.416E+00
RMM:   9    -0.403903318050E+02   -0.15020E-01   -0.12242E-01  7356   0.173E+00    0.191E+00
RMM:  10    -0.403815085740E+02    0.88232E-02   -0.31470E-02  6908   0.113E+00    0.663E-01
RMM:  11    -0.403816839301E+02   -0.17536E-03   -0.53897E-03  5790   0.431E-01    0.302E-01
RMM:  12    -0.403817969828E+02   -0.11305E-03   -0.16115E-03  5073   0.276E-01
   1 F= -.40381797E+02 E0= -.40381797E+02  d E =-.403818E+02  mag=     0.0009
       N       E                     dE             d eps       ncg     rms          rms(c)
DAV:   1    -0.405722575004E+02   -0.19057E+00   -0.34705E+00  9136   0.112E+01    0.393E+00
RMM:   2    -0.404632533230E+02    0.10900E+00   -0.46400E-01  6921   0.384E+00    0.132E+00
RMM:   3    -0.404197167524E+02    0.43537E-01   -0.55202E-02  6625   0.195E+00    0.115E+00
RMM:   4    -0.404111789951E+02    0.85378E-02   -0.18222E-02  6749   0.910E-01    0.102E+00
RMM:   5    -0.404102115610E+02    0.96743E-03   -0.11369E-02  7493   0.894E-01    0.498E-01
RMM:   6    -0.404107035339E+02   -0.49197E-03   -0.64269E-03  6969   0.345E-01    0.151E-01
RMM:   7    -0.404108233871E+02   -0.11985E-03   -0.10564E-03  4994   0.336E-01
   2 F= -.40410823E+02 E0= -.40410823E+02  d E =-.290264E-01  mag=    -0.0000
       N       E                     dE             d eps       ncg     rms          rms(c)
DAV:   1    -0.404527113459E+02   -0.42008E-01   -0.82716E-01  6336   0.545E+00    0.189E+00
RMM:   2    -0.404259544646E+02    0.26757E-01   -0.10820E-01  6941   0.186E+00    0.622E-01
RMM:   3    -0.404156375184E+02    0.10317E-01   -0.11926E-02  6444   0.902E-01    0.548E-01
RMM:   4    -0.404136440411E+02    0.19935E-02   -0.43564E-03  5588   0.473E-01    0.450E-01
RMM:   5    -0.404134671937E+02    0.17685E-03   -0.31667E-03  6204   0.494E-01
   3 F= -.40413467E+02 E0= -.40413467E+02  d E =-.316702E-01  mag=    -0.0000
       N       E                     dE             d eps       ncg     rms          rms(c)
DAV:   1    -0.404231187143E+02   -0.94747E-02   -0.75562E-01  7712   0.652E+00    0.628E-01
RMM:   2    -0.404216149462E+02    0.15038E-02   -0.51207E-02  6861   0.109E+00    0.362E-01
RMM:   3    -0.404194252248E+02    0.21897E-02   -0.24818E-03  5415   0.452E-01    0.251E-01
RMM:   4    -0.404192400065E+02    0.18522E-03   -0.17838E-03  5459   0.261E-01
   4 F= -.40419240E+02 E0= -.40419240E+02  d E =-.577281E-02  mag=    -0.0000
       N       E                     dE             d eps       ncg     rms          rms(c)
DAV:   1    -0.404229184134E+02   -0.34932E-02   -0.48818E-01  7680   0.528E+00    0.507E-01
RMM:   2    -0.404217458966E+02    0.11725E-02   -0.32719E-02  6860   0.880E-01    0.310E-01
RMM:   3    -0.404202909314E+02    0.14550E-02   -0.14461E-03  4855   0.356E-01    0.213E-01
RMM:   4    -0.404201269330E+02    0.16400E-03   -0.13196E-03  5085   0.256E-01
   5 F= -.40420127E+02 E0= -.40420127E+02  d E =-.665974E-02  mag=    -0.0000
       N       E                     dE             d eps       ncg     rms          rms(c)
DAV:   1    -0.404299714640E+02   -0.96805E-02   -0.32720E-01  9552   0.360E+00    0.621E-01
RMM:   2    -0.404254893367E+02    0.44821E-02   -0.22196E-02  6757   0.753E-01    0.343E-01
RMM:   3    -0.404235197264E+02    0.19696E-02   -0.17559E-03  4980   0.346E-01    0.206E-01
RMM:   4    -0.404230706702E+02    0.44906E-03   -0.21881E-03  5499   0.285E-01
   6 F= -.40423071E+02 E0= -.40423071E+02  d E =-.294374E-02  mag=    -0.0000
       N       E                     dE             d eps       ncg     rms          rms(c)
DAV:   1    -0.404377779789E+02   -0.14258E-01   -0.70101E-01  7680   0.526E+00    0.908E-01
RMM:   2    -0.404282966216E+02    0.94814E-02   -0.46558E-02  6751   0.112E+00    0.499E-01
RMM:   3    -0.404242187261E+02    0.40779E-02   -0.39871E-03  5778   0.500E-01    0.313E-01
RMM:   4    -0.404232718416E+02    0.94688E-03   -0.36234E-03  5958   0.356E-01    0.186E-01
RMM:   5    -0.404233338080E+02   -0.61966E-04   -0.11106E-03  4666   0.368E-01
   7 F= -.40423334E+02 E0= -.40423334E+02  d E =-.320687E-02  mag=    -0.0000
