       N       E                     dE             d eps       ncg     rms          rms(c)
DAV:   1    -0.579852118952E+01   -0.57985E+01   -0.37609E+03 15896   0.361E+02
DAV:   2    -0.357721735463E+02   -0.29974E+02   -0.27950E+02 20716   0.898E+01
DAV:   3    -0.370611811676E+02   -0.12890E+01   -0.12716E+01 19296   0.171E+01
DAV:   4    -0.370670844483E+02   -0.59033E-02   -0.59021E-02 18500   0.126E+00
DAV:   5    -0.370671136447E+02   -0.29196E-04   -0.29196E-04 19296   0.854E-02    0.719E+00
DAV:   6    -0.363376945526E+02    0.72942E+00   -0.24627E-01 18064   0.315E+00    0.394E+00
DAV:   7    -0.361454839720E+02    0.19221E+00   -0.36078E-01 18900   0.317E+00    0.102E+00
DAV:   8    -0.361464482998E+02   -0.96433E-03   -0.43962E-02 18864   0.115E+00    0.324E-01
DAV:   9    -0.361481092220E+02   -0.16609E-02   -0.38091E-03 18352   0.357E-01    0.742E-02
DAV:  10    -0.361484772338E+02   -0.36801E-03   -0.70786E-04 18164   0.133E-01    0.373E-02
DAV:  11    -0.361486330078E+02   -0.15577E-03   -0.71917E-05 15504   0.423E-02    0.162E-02
DAV:  12    -0.361486949137E+02   -0.61906E-04   -0.50319E-05 14888   0.334E-02
   1 F= -.36148695E+02 E0= -.36148647E+02  d E =-.361487E+02
       N       E                     dE             d eps       ncg     rms          rms(c)
DAV:   1    -0.380275887617E+02   -0.18790E+01   -0.14429E+02 15988   0.630E+01    0.401E+00
DAV:   2    -0.385969893436E+02   -0.56940E+00   -0.73291E+00 18636   0.143E+01    0.260E+00
DAV:   3    -0.385923553301E+02    0.46340E-02   -0.13799E-01 18124   0.209E+00    0.792E-01
DAV:   4    -0.386013327909E+02   -0.89775E-02   -0.25846E-02 18572   0.847E-01    0.306E-01
DAV:   5    -0.386028339909E+02   -0.15012E-02   -0.21010E-03 17820   0.277E-01    0.487E-02
DAV:   6    -0.386029097941E+02   -0.75803E-04   -0.37630E-04 18460   0.101E-01
   2 F= -.38602910E+02 E0= -.38603018E+02  d E =-.245421E+01
       N       E                     dE             d eps       ncg     rms          rms(c)
DAV:   1    -0.386420579035E+02   -0.39224E-01   -0.52566E-01 16140   0.393E+00    0.175E-01
DAV:   2    -0.386446756238E+02   -0.26177E-02   -0.28271E-02 18716   0.917E-01    0.961E-02
DAV:   3    -0.386447914410E+02   -0.11582E-03   -0.22256E-04 18080   0.827E-02    0.488E-02
DAV:   4    -0.386448558092E+02   -0.64368E-04   -0.48140E-05 10620   0.380E-02
   3 F= -.38644856E+02 E0= -.38644974E+02  d E =-.249616E+01
       N       E                     dE             d eps       ncg     rms          rms(c)
DAV:   1    -0.387165799713E+02   -0.71789E-01   -0.20590E+00 16104   0.783E+00    0.341E-01
DAV:   2    -0.387266420877E+02   -0.10062E-01   -0.10881E-01 18724   0.180E+00    0.184E-01
DAV:   3    -0.387270576864E+02   -0.41560E-03   -0.82982E-04 18128   0.160E-01    0.944E-02
DAV:   4    -0.387272954781E+02   -0.23779E-03   -0.18334E-04 18188   0.734E-02    0.181E-02
DAV:   5    -0.387273085236E+02   -0.13046E-04   -0.13858E-05  8820   0.223E-02
   4 F= -.38727309E+02 E0= -.38727362E+02  d E =-.257861E+01
       N       E                     dE             d eps       ncg     rms          rms(c)
DAV:   1    -0.388449714763E+02   -0.11768E+00   -0.80023E+00 16176   0.156E+01    0.637E-01
DAV:   2    -0.388841458192E+02   -0.39174E-01   -0.40971E-01 18732   0.347E+00    0.353E-01
DAV:   3    -0.388855159811E+02   -0.13702E-02   -0.26465E-03 18292   0.287E-01    0.179E-01
DAV:   4    -0.388863750099E+02   -0.85903E-03   -0.69724E-04 18392   0.144E-01    0.345E-02
DAV:   5    -0.388864233162E+02   -0.48306E-04   -0.60017E-05 11452   0.469E-02
   5 F= -.38886423E+02 E0= -.38886382E+02  d E =-.273773E+01
       N       E                     dE             d eps       ncg     rms          rms(c)
DAV:   1    -0.416150372383E+02   -0.27287E+01   -0.59550E+01 16768   0.435E+01    0.302E+00
DAV:   2    -0.418158588306E+02   -0.20082E+00   -0.30955E+00 18824   0.961E+00    0.213E+00
DAV:   3    -0.417577653370E+02    0.58093E-01   -0.99467E-02 18512   0.240E+00    0.309E-01
DAV:   4    -0.417622064738E+02   -0.44411E-02   -0.54240E-02 18440   0.117E+00    0.155E-01
DAV:   5    -0.417619341223E+02    0.27235E-03   -0.56386E-04 18572   0.200E-01    0.663E-02
DAV:   6    -0.417620073699E+02   -0.73248E-04   -0.41654E-04 18448   0.115E-01
   6 F= -.41762007E+02 E0= -.41761988E+02  d E =-.287558E+01
       N       E                     dE             d eps       ncg     rms          rms(c)
DAV:   1    -0.417713431492E+02   -0.94090E-02   -0.23030E-01 17112   0.281E+00    0.217E-01
DAV:   2    -0.417717542463E+02   -0.41110E-03   -0.10681E-02 18624   0.574E-01    0.161E-01
DAV:   3    -0.417714460160E+02    0.30823E-03   -0.63284E-04 18152   0.199E-01    0.153E-02
DAV:   4    -0.417714690274E+02   -0.23011E-04   -0.30731E-04 13076   0.880E-02
   7 F= -.41771469E+02 E0= -.41771440E+02  d E =-.288505E+01
       N       E                     dE             d eps       ncg     rms          rms(c)
DAV:   1    -0.426732282993E+02   -0.90178E+00   -0.62186E+00 16444   0.140E+01    0.967E-01
DAV:   2    -0.426800567744E+02   -0.68285E-02   -0.19246E-01 18688   0.244E+00    0.602E-01
DAV:   3    -0.426757986426E+02    0.42581E-02   -0.77029E-03 18608   0.620E-01    0.922E-02
DAV:   4    -0.426759055423E+02   -0.10690E-03   -0.29557E-03 18172   0.297E-01    0.529E-02
DAV:   5    -0.426759038298E+02    0.17125E-05   -0.81110E-05 14596   0.630E-02
   8 F= -.42675904E+02 E0= -.42675892E+02  d E =-.904435E+00
       N       E                     dE             d eps       ncg     rms          rms(c)
DAV:   1    -0.433519933335E+02   -0.67609E+00   -0.39876E+01 16680   0.366E+01    0.264E+00
DAV:   2    -0.433998312152E+02   -0.47838E-01   -0.14151E+00 18832   0.662E+00    0.181E+00
DAV:   3    -0.433546662599E+02    0.45165E-01   -0.79734E-02 18312   0.229E+00    0.178E-01
DAV:   4    -0.433568695949E+02   -0.22033E-02   -0.37679E-02 18260   0.108E+00    0.144E-01
DAV:   5    -0.433566986760E+02    0.17092E-03   -0.72990E-04 19132   0.226E-01    0.554E-02
DAV:   6    -0.433567789665E+02   -0.80291E-04   -0.43990E-04 17696   0.116E-01
   9 F= -.43356779E+02 E0= -.43356785E+02  d E =-.158531E+01
       N       E                     dE             d eps       ncg     rms          rms(c)
DAV:   1    -0.434920451956E+02   -0.13535E+00   -0.76798E+00 17052   0.163E+01    0.121E+00
DAV:   2    -0.434914375508E+02    0.60764E-03   -0.21034E-01 18444   0.263E+00    0.774E-01
DAV:   3    -0.434841280982E+02    0.73095E-02   -0.13872E-02 18336   0.883E-01    0.865E-02
DAV:   4    -0.434845053360E+02   -0.37724E-03   -0.57565E-03 18224   0.414E-01    0.574E-02
DAV:   5    -0.434844844963E+02    0.20840E-04   -0.10990E-04 17184   0.102E-01
  10 F= -.43484484E+02 E0= -.43484435E+02  d E =-.171302E+01
       N       E                     dE             d eps       ncg     rms          rms(c)
DAV:   1    -0.448869769979E+02   -0.14025E+01   -0.88828E+00 16964   0.182E+01    0.144E+00
DAV:   2    -0.449042387356E+02   -0.17262E-01   -0.51891E-01 18768   0.407E+00    0.111E+00
DAV:   3    -0.448869651991E+02    0.17274E-01   -0.29772E-02 18180   0.160E+00    0.102E-01
DAV:   4    -0.448879154400E+02   -0.95024E-03   -0.15677E-02 17928   0.664E-01    0.660E-02
DAV:   5    -0.448879028377E+02    0.12602E-04   -0.58787E-04 18620   0.184E-01
  11 F= -.44887903E+02 E0= -.44887938E+02  d E =-.140342E+01
       N       E                     dE             d eps       ncg     rms          rms(c)
DAV:   1    -0.451007599667E+02   -0.21284E+00   -0.76207E+00 17208   0.166E+01    0.127E+00
DAV:   2    -0.451118997199E+02   -0.11140E-01   -0.36505E-01 18748   0.345E+00    0.939E-01
DAV:   3    -0.450997853952E+02    0.12114E-01   -0.20813E-02 18312   0.136E+00    0.877E-02
DAV:   4    -0.451003841205E+02   -0.59873E-03   -0.11141E-02 17984   0.576E-01    0.574E-02
DAV:   5    -0.451003653444E+02    0.18776E-04   -0.39208E-04 18824   0.154E-01
  12 F= -.45100365E+02 E0= -.45100377E+02  d E =-.161588E+01
       N       E                     dE             d eps       ncg     rms          rms(c)
DAV:   1    -0.451371647293E+02   -0.36781E-01   -0.57341E-01 17152   0.452E+00    0.348E-01
DAV:   2    -0.451377008483E+02   -0.53612E-03   -0.24866E-02 18596   0.904E-01    0.251E-01
DAV:   3    -0.451367973184E+02    0.90353E-03   -0.15440E-03 18372   0.376E-01    0.241E-02
DAV:   4    -0.451368479921E+02   -0.50674E-04   -0.89066E-04 17920   0.162E-01
  13 F= -.45136848E+02 E0= -.45136860E+02  d E =-.165236E+01
       N       E                     dE             d eps       ncg     rms          rms(c)
DAV:   1    -0.459893145987E+02   -0.85252E+00   -0.30121E+00 16848   0.102E+01    0.804E-01
DAV:   2    -0.459929097872E+02   -0.35952E-02   -0.13142E-01 18756   0.208E+00    0.581E-01
DAV:   3    -0.459881581945E+02    0.47516E-02   -0.83215E-03 18392   0.837E-01    0.668E-02
DAV:   4    -0.459883666957E+02   -0.20850E-03   -0.42801E-03 17712   0.345E-01    0.380E-02
DAV:   5    -0.459883447206E+02    0.21975E-04   -0.15927E-04 18160   0.103E-01
  14 F= -.45988345E+02 E0= -.45988354E+02  d E =-.851497E+00
       N       E                     dE             d eps       ncg     rms          rms(c)
DAV:   1    -0.467474481233E+02   -0.75908E+00   -0.92555E+00 16628   0.177E+01    0.130E+00
DAV:   2    -0.467616181227E+02   -0.14170E-01   -0.37798E-01 18780   0.352E+00    0.927E-01
DAV:   3    -0.467494443403E+02    0.12174E-01   -0.18554E-02 18652   0.127E+00    0.764E-02
DAV:   4    -0.467501125722E+02   -0.66823E-03   -0.10085E-02 17872   0.521E-01    0.566E-02
DAV:   5    -0.467500490486E+02    0.63524E-04   -0.22780E-04 18648   0.142E-01
  15 F= -.46750049E+02 E0= -.46750062E+02  d E =-.161320E+01
       N       E                     dE             d eps       ncg     rms          rms(c)
DAV:   1    -0.468656094304E+02   -0.11550E+00   -0.22519E+00 16556   0.860E+00    0.616E-01
DAV:   2    -0.468693834679E+02   -0.37740E-02   -0.86098E-02 18784   0.168E+00    0.434E-01
DAV:   3    -0.468668248355E+02    0.25586E-02   -0.35507E-03 18892   0.581E-01    0.304E-02
DAV:   4    -0.468669915430E+02   -0.16671E-03   -0.21795E-03 17940   0.238E-01    0.261E-02
DAV:   5    -0.468669747516E+02    0.16791E-04   -0.28872E-05 13584   0.605E-02
  16 F= -.46866975E+02 E0= -.46867049E+02  d E =-.173013E+01
       N       E                     dE             d eps       ncg     rms          rms(c)
DAV:   1    -0.476295035103E+02   -0.76251E+00   -0.32777E+00 16436   0.102E+01    0.824E-01
DAV:   2    -0.476358301855E+02   -0.63267E-02   -0.13781E-01 18744   0.210E+00    0.551E-01
DAV:   3    -0.476322468490E+02    0.35833E-02   -0.55515E-03 19336   0.611E-01    0.472E-02
DAV:   4    -0.476324322859E+02   -0.18544E-03   -0.24026E-03 18216   0.259E-01    0.358E-02
DAV:   5    -0.476324049857E+02    0.27300E-04   -0.50244E-05 13352   0.674E-02
  17 F= -.47632405E+02 E0= -.47632513E+02  d E =-.765430E+00
       N       E                     dE             d eps       ncg     rms          rms(c)
DAV:   1    -0.486022343076E+02   -0.96980E+00   -0.32697E+01 16832   0.323E+01    0.281E+00
DAV:   2    -0.486472887964E+02   -0.45054E-01   -0.14649E+00 18772   0.679E+00    0.195E+00
DAV:   3    -0.485947499607E+02    0.52539E-01   -0.94737E-02 19004   0.279E+00    0.183E-01
DAV:   4    -0.485980668321E+02   -0.33169E-02   -0.50734E-02 18008   0.124E+00    0.137E-01
DAV:   5    -0.485977757096E+02    0.29112E-03   -0.12645E-03 19156   0.259E-01    0.605E-02
DAV:   6    -0.485978626165E+02   -0.86907E-04   -0.55773E-04 17412   0.127E-01
  18 F= -.48597863E+02 E0= -.48597880E+02  d E =-.173089E+01
       N       E                     dE             d eps       ncg     rms          rms(c)
DAV:   1    -0.486393180960E+02   -0.41542E-01   -0.33158E+00 17128   0.110E+01    0.927E-01
DAV:   2    -0.486438634871E+02   -0.45454E-02   -0.16475E-01 18556   0.232E+00    0.653E-01
DAV:   3    -0.486383978018E+02    0.54657E-02   -0.97480E-03 18808   0.861E-01    0.540E-02
DAV:   4    -0.486386837542E+02   -0.28595E-03   -0.45332E-03 18008   0.358E-01    0.417E-02
DAV:   5    -0.486386331699E+02    0.50584E-04   -0.13057E-04 17384   0.103E-01
  19 F= -.48638633E+02 E0= -.48638791E+02  d E =-.177166E+01
       N       E                     dE             d eps       ncg     rms          rms(c)
DAV:   1    -0.486730061166E+02   -0.34322E-01   -0.43767E-01 17056   0.393E+00    0.327E-01
DAV:   2    -0.486737219826E+02   -0.71587E-03   -0.21083E-02 18564   0.821E-01    0.231E-01
DAV:   3    -0.486730134623E+02    0.70852E-03   -0.11503E-03 18728   0.301E-01    0.164E-02
DAV:   4    -0.486730565056E+02   -0.43043E-04   -0.58015E-04 17316   0.126E-01
  20 F= -.48673057E+02 E0= -.48673059E+02  d E =-.180608E+01
       N       E                     dE             d eps       ncg     rms          rms(c)
DAV:   1    -0.492502208090E+02   -0.57721E+00   -0.43592E+00 16972   0.121E+01    0.997E-01
DAV:   2    -0.492584571944E+02   -0.82364E-02   -0.20886E-01 18688   0.257E+00    0.703E-01
DAV:   3    -0.492518085859E+02    0.66486E-02   -0.10648E-02 18872   0.910E-01    0.495E-02
DAV:   4    -0.492521915433E+02   -0.38296E-03   -0.50006E-03 18088   0.379E-01    0.438E-02
DAV:   5    -0.492521398910E+02    0.51652E-04   -0.98835E-05 17176   0.984E-02
  21 F= -.49252140E+02 E0= -.49252154E+02  d E =-.579083E+00
       N       E                     dE             d eps       ncg     rms          rms(c)
DAV:   1    -0.494320901249E+02   -0.17990E+00   -0.36785E+00 17096   0.112E+01    0.938E-01
DAV:   2    -0.494373218535E+02   -0.52317E-02   -0.16814E-01 18656   0.232E+00    0.654E-01
DAV:   3    -0.494314351178E+02    0.58867E-02   -0.99372E-03 18948   0.864E-01    0.442E-02
DAV:   4    -0.494317791000E+02   -0.34398E-03   -0.44438E-03 18008   0.368E-01    0.403E-02
DAV:   5    -0.494317441796E+02    0.34920E-04   -0.72961E-05 14660   0.838E-02
  22 F= -.49431744E+02 E0= -.49431779E+02  d E =-.758688E+00
       N       E                     dE             d eps       ncg     rms          rms(c)
DAV:   1    -0.497619946464E+02   -0.33022E+00   -0.22850E+00 16980   0.881E+00    0.632E-01
DAV:   2    -0.497673077951E+02   -0.53131E-02   -0.10516E-01 18436   0.182E+00    0.478E-01
DAV:   3    -0.497643074599E+02    0.30003E-02   -0.49769E-03 19052   0.637E-01    0.339E-02
DAV:   4    -0.497645284619E+02   -0.22100E-03   -0.26917E-03 18124   0.271E-01    0.304E-02
DAV:   5    -0.497645020740E+02    0.26388E-04   -0.38922E-05 13888   0.664E-02
  23 F= -.49764502E+02 E0= -.49764601E+02  d E =-.332758E+00
       N       E                     dE             d eps       ncg     rms          rms(c)
DAV:   1    -0.498729607134E+02   -0.10843E+00   -0.28497E+00 16964   0.970E+00    0.705E-01
DAV:   2    -0.498790091118E+02   -0.60484E-02   -0.12474E-01 18388   0.197E+00    0.522E-01
DAV:   3    -0.498754121693E+02    0.35969E-02   -0.59638E-03 19228   0.690E-01    0.365E-02
DAV:   4    -0.498756800144E+02   -0.26785E-03   -0.32666E-03 18064   0.302E-01    0.336E-02
DAV:   5    -0.498756514535E+02    0.28561E-04   -0.40349E-05 14352   0.671E-02
  24 F= -.49875651E+02 E0= -.49875778E+02  d E =-.443907E+00
       N       E                     dE             d eps       ncg     rms          rms(c)
DAV:   1    -0.501759297303E+02   -0.30025E+00   -0.17739E+00 16184   0.750E+00    0.515E-01
DAV:   2    -0.501786618726E+02   -0.27321E-02   -0.59727E-02 18900   0.130E+00    0.373E-01
DAV:   3    -0.501768836276E+02    0.17782E-02   -0.31005E-03 19124   0.442E-01    0.301E-02
DAV:   4    -0.501770067188E+02   -0.12309E-03   -0.14115E-03 18468   0.191E-01    0.272E-02
DAV:   5    -0.501769910594E+02    0.15659E-04   -0.19980E-05  9392   0.358E-02
  25 F= -.50176991E+02 E0= -.50177130E+02  d E =-.301340E+00
       N       E                     dE             d eps       ncg     rms          rms(c)
DAV:   1    -0.503681968309E+02   -0.19119E+00   -0.51703E+00 16120   0.127E+01    0.865E-01
DAV:   2    -0.503773037854E+02   -0.91070E-02   -0.18527E-01 18956   0.224E+00    0.639E-01
DAV:   3    -0.503717908985E+02    0.55129E-02   -0.89863E-03 19176   0.774E-01    0.529E-02
DAV:   4    -0.503722462885E+02   -0.45539E-03   -0.47693E-03 18552   0.342E-01    0.472E-02
DAV:   5    -0.503721998216E+02    0.46467E-04   -0.53687E-05 11580   0.619E-02
  26 F= -.50372200E+02 E0= -.50372381E+02  d E =-.496548E+00
       N       E                     dE             d eps       ncg     rms          rms(c)
DAV:   1    -0.506985539425E+02   -0.32631E+00   -0.36481E+00 16380   0.105E+01    0.883E-01
DAV:   2    -0.507014187572E+02   -0.28648E-02   -0.12990E-01 18744   0.189E+00    0.597E-01
DAV:   3    -0.506965009139E+02    0.49178E-02   -0.83826E-03 19092   0.669E-01    0.489E-02
DAV:   4    -0.506967257197E+02   -0.22481E-03   -0.30070E-03 18368   0.284E-01    0.407E-02
DAV:   5    -0.506966911578E+02    0.34562E-04   -0.52723E-05 12612   0.633E-02
  27 F= -.50696691E+02 E0= -.50696863E+02  d E =-.324491E+00
       N       E                     dE             d eps       ncg     rms          rms(c)
DAV:   1    -0.508312967964E+02   -0.13457E+00   -0.41512E+00 16480   0.112E+01    0.959E-01
DAV:   2    -0.508345760558E+02   -0.32793E-02   -0.15971E-01 18696   0.207E+00    0.662E-01
DAV:   3    -0.508282865499E+02    0.62895E-02   -0.10595E-02 18984   0.785E-01    0.496E-02
DAV:   4    -0.508286611729E+02   -0.37462E-03   -0.44759E-03 18288   0.338E-01    0.468E-02
DAV:   5    -0.508286136379E+02    0.47535E-04   -0.57745E-05 14072   0.689E-02
  28 F= -.50828614E+02 E0= -.50828820E+02  d E =-.456414E+00
       N       E                     dE             d eps       ncg     rms          rms(c)
DAV:   1    -0.509991475582E+02   -0.17049E+00   -0.33338E+00 16564   0.993E+00    0.827E-01
DAV:   2    -0.510002697277E+02   -0.11222E-02   -0.10402E-01 18616   0.170E+00    0.561E-01
DAV:   3    -0.509956309093E+02    0.46388E-02   -0.78010E-03 18968   0.637E-01    0.409E-02
DAV:   4    -0.509958496511E+02   -0.21874E-03   -0.25499E-03 18212   0.264E-01    0.364E-02
DAV:   5    -0.509958295504E+02    0.20101E-04   -0.28410E-05 10672   0.517E-02
  29 F= -.50995830E+02 E0= -.50996053E+02  d E =-.167216E+00
       N       E                     dE             d eps       ncg     rms          rms(c)
DAV:   1    -0.510121245524E+02   -0.16275E-01   -0.52458E-01 16628   0.396E+00    0.338E-01
DAV:   2    -0.510121932728E+02   -0.68720E-04   -0.16671E-02 18576   0.681E-01    0.227E-01
DAV:   3    -0.510114388130E+02    0.75446E-03   -0.12949E-03 18976   0.261E-01    0.159E-02
DAV:   4    -0.510114784033E+02   -0.39590E-04   -0.43503E-04 17316   0.109E-01
  30 F= -.51011478E+02 E0= -.51011650E+02  d E =-.182865E+00
       N       E                     dE             d eps       ncg     rms          rms(c)
DAV:   1    -0.510973033987E+02   -0.85865E-01   -0.13844E+00 16516   0.644E+00    0.421E-01
DAV:   2    -0.510999189851E+02   -0.26156E-02   -0.45297E-02 18648   0.110E+00    0.320E-01
DAV:   3    -0.510986948135E+02    0.12242E-02   -0.16777E-03 19776   0.373E-01    0.374E-02
DAV:   4    -0.510988409118E+02   -0.14610E-03   -0.13485E-03 18396   0.177E-01    0.243E-02
DAV:   5    -0.510988280608E+02    0.12851E-04   -0.11705E-05  9244   0.337E-02
  31 F= -.51098828E+02 E0= -.51099023E+02  d E =-.873497E-01
       N       E                     dE             d eps       ncg     rms          rms(c)
DAV:   1    -0.511102498236E+02   -0.11409E-01   -0.35302E-01 16520   0.325E+00    0.212E-01
DAV:   2    -0.511109456696E+02   -0.69585E-03   -0.11925E-02 18668   0.563E-01    0.161E-01
DAV:   3    -0.511106232326E+02    0.32244E-03   -0.42414E-04 19748   0.187E-01    0.208E-02
DAV:   4    -0.511106613410E+02   -0.38108E-04   -0.34957E-04 15412   0.898E-02
  32 F= -.51110661E+02 E0= -.51110869E+02  d E =-.991829E-01
       N       E                     dE             d eps       ncg     rms          rms(c)
DAV:   1    -0.511818531922E+02   -0.71230E-01   -0.14466E+00 16260   0.647E+00    0.437E-01
DAV:   2    -0.511838746432E+02   -0.20215E-02   -0.40287E-02 18768   0.103E+00    0.317E-01
DAV:   3    -0.511828407288E+02    0.10339E-02   -0.20472E-03 19340   0.346E-01    0.294E-02
DAV:   4    -0.511829362068E+02   -0.95478E-04   -0.10388E-03 18356   0.155E-01    0.260E-02
DAV:   5    -0.511829236122E+02    0.12595E-04   -0.13204E-05  9212   0.285E-02
  33 F= -.51182924E+02 E0= -.51183133E+02  d E =-.722623E-01
       N       E                     dE             d eps       ncg     rms          rms(c)
DAV:   1    -0.512018345694E+02   -0.18898E-01   -0.10549E+00 16224   0.553E+00    0.371E-01
DAV:   2    -0.512034239882E+02   -0.15894E-02   -0.30655E-02 18784   0.893E-01    0.272E-01
DAV:   3    -0.512026341533E+02    0.78983E-03   -0.14620E-03 19332   0.298E-01    0.256E-02
DAV:   4    -0.512027116544E+02   -0.77501E-04   -0.80321E-04 18172   0.135E-01
  34 F= -.51202712E+02 E0= -.51202930E+02  d E =-.920503E-01
       N       E                     dE             d eps       ncg     rms          rms(c)
DAV:   1    -0.512608181448E+02   -0.58184E-01   -0.11606E+00 16136   0.571E+00    0.402E-01
DAV:   2    -0.512617389002E+02   -0.92076E-03   -0.26108E-02 18784   0.818E-01    0.278E-01
DAV:   3    -0.512610462843E+02    0.69262E-03   -0.19616E-03 18760   0.267E-01    0.321E-02
DAV:   4    -0.512610545593E+02   -0.82751E-05   -0.36150E-04 18068   0.960E-02
  35 F= -.51261055E+02 E0= -.51261275E+02  d E =-.583429E-01
       N       E                     dE             d eps       ncg     rms          rms(c)
DAV:   1    -0.513010834543E+02   -0.40037E-01   -0.24521E+00 16140   0.829E+00    0.581E-01
DAV:   2    -0.513030074993E+02   -0.19240E-02   -0.55668E-02 18760   0.119E+00    0.405E-01
DAV:   3    -0.513014563242E+02    0.15512E-02   -0.42729E-03 18592   0.387E-01    0.473E-02
DAV:   4    -0.513014646199E+02   -0.82957E-05   -0.71709E-04 18356   0.136E-01
  36 F= -.51301465E+02 E0= -.51301788E+02  d E =-.987530E-01
       N       E                     dE             d eps       ncg     rms          rms(c)
DAV:   1    -0.513668423229E+02   -0.65386E-01   -0.19805E+00 16380   0.755E+00    0.490E-01
DAV:   2    -0.513707037716E+02   -0.38614E-02   -0.61400E-02 18716   0.127E+00    0.373E-01
DAV:   3    -0.513693317183E+02    0.13721E-02   -0.21935E-03 19280   0.410E-01    0.436E-02
DAV:   4    -0.513695100757E+02   -0.17836E-03   -0.15734E-03 18416   0.186E-01    0.299E-02
DAV:   5    -0.513694921111E+02    0.17965E-04   -0.17456E-05  9376   0.386E-02
  37 F= -.51369492E+02 E0= -.51369615E+02  d E =-.680275E-01
       N       E                     dE             d eps       ncg     rms          rms(c)
DAV:   1    -0.513764840815E+02   -0.69740E-02   -0.37446E-01 16372   0.328E+00    0.213E-01
DAV:   2    -0.513771841722E+02   -0.70009E-03   -0.11485E-02 18728   0.548E-01    0.162E-01
DAV:   3    -0.513769171516E+02    0.26702E-03   -0.41747E-04 19272   0.180E-01    0.179E-02
DAV:   4    -0.513769502253E+02   -0.33074E-04   -0.29755E-04 15488   0.810E-02
  38 F= -.51376950E+02 E0= -.51377047E+02  d E =-.754856E-01
       N       E                     dE             d eps       ncg     rms          rms(c)
DAV:   1    -0.514212157973E+02   -0.44299E-01   -0.13186E+00 16200   0.607E+00    0.410E-01
DAV:   2    -0.514228518245E+02   -0.16360E-02   -0.31338E-02 18732   0.872E-01    0.288E-01
DAV:   3    -0.514222978028E+02    0.55402E-03   -0.16558E-03 19008   0.269E-01    0.317E-02
DAV:   4    -0.514223559782E+02   -0.58175E-04   -0.54179E-04 18264   0.112E-01
  39 F= -.51422356E+02 E0= -.51422486E+02  d E =-.454058E-01
       N       E                     dE             d eps       ncg     rms          rms(c)
DAV:   1    -0.514364512488E+02   -0.14153E-01   -0.12629E+00 16180   0.595E+00    0.397E-01
DAV:   2    -0.514382429871E+02   -0.17917E-02   -0.31558E-02 18716   0.870E-01    0.281E-01
DAV:   3    -0.514377283032E+02    0.51468E-03   -0.15151E-03 19004   0.259E-01    0.327E-02
DAV:   4    -0.514377918543E+02   -0.63551E-04   -0.52987E-04 18244   0.110E-01
  40 F= -.51437792E+02 E0= -.51437965E+02  d E =-.608416E-01
       N       E                     dE             d eps       ncg     rms          rms(c)
DAV:   1    -0.514787896368E+02   -0.41061E-01   -0.87687E-01 15984   0.493E+00    0.323E-01
DAV:   2    -0.514798590041E+02   -0.10694E-02   -0.19658E-02 18756   0.696E-01    0.228E-01
DAV:   3    -0.514795764805E+02    0.28252E-03   -0.11778E-03 18644   0.217E-01    0.264E-02
DAV:   4    -0.514795984602E+02   -0.21980E-04   -0.34070E-04 17700   0.903E-02
  41 F= -.51479598E+02 E0= -.51479759E+02  d E =-.418066E-01
       N       E                     dE             d eps       ncg     rms          rms(c)
DAV:   1    -0.515285096378E+02   -0.48933E-01   -0.78666E+00 15964   0.148E+01    0.970E-01
DAV:   2    -0.515387114505E+02   -0.10202E-01   -0.18766E-01 18700   0.214E+00    0.686E-01
DAV:   3    -0.515356404603E+02    0.30710E-02   -0.98394E-03 18516   0.641E-01    0.770E-02
DAV:   4    -0.515359520632E+02   -0.31160E-03   -0.32087E-03 18456   0.274E-01    0.594E-02
DAV:   5    -0.515359026142E+02    0.49449E-04   -0.83620E-05 12568   0.607E-02
  42 F= -.51535903E+02 E0= -.51536271E+02  d E =-.981108E-01
       N       E                     dE             d eps       ncg     rms          rms(c)
DAV:   1    -0.515790729716E+02   -0.43121E-01   -0.12639E+00 15972   0.593E+00    0.381E-01
DAV:   2    -0.515804850654E+02   -0.14121E-02   -0.26840E-02 18764   0.813E-01    0.269E-01
DAV:   3    -0.515800922764E+02    0.39279E-03   -0.15992E-03 18244   0.248E-01    0.315E-02
DAV:   4    -0.515801178429E+02   -0.25566E-04   -0.45593E-04 17888   0.106E-01
  43 F= -.51580118E+02 E0= -.51580492E+02  d E =-.442152E-01
       N       E                     dE             d eps       ncg     rms          rms(c)
DAV:   1    -0.516179599486E+02   -0.37868E-01   -0.37219E+00 16008   0.102E+01    0.657E-01
DAV:   2    -0.516224171597E+02   -0.44572E-02   -0.81893E-02 18748   0.142E+00    0.463E-01
DAV:   3    -0.516212181619E+02    0.11990E-02   -0.44176E-03 18184   0.411E-01    0.513E-02
DAV:   4    -0.516213240136E+02   -0.10585E-03   -0.12632E-03 18376   0.177E-01    0.402E-02
DAV:   5    -0.516212980074E+02    0.26006E-04   -0.37045E-05  9672   0.423E-02
  44 F= -.51621298E+02 E0= -.51621384E+02  d E =-.853954E-01
       N       E                     dE             d eps       ncg     rms          rms(c)
DAV:   1    -0.516247039411E+02   -0.33799E-02   -0.63729E-01 16048   0.422E+00    0.274E-01
DAV:   2    -0.516254047383E+02   -0.70080E-03   -0.13686E-02 18740   0.582E-01    0.193E-01
DAV:   3    -0.516251958298E+02    0.20891E-03   -0.81678E-04 18140   0.177E-01    0.222E-02
DAV:   4    -0.516252077370E+02   -0.11907E-04   -0.22351E-04 16096   0.748E-02
  45 F= -.51625208E+02 E0= -.51625240E+02  d E =-.893051E-01
       N       E                     dE             d eps       ncg     rms          rms(c)
DAV:   1    -0.516611957938E+02   -0.36000E-01   -0.17152E+00 16232   0.698E+00    0.497E-01
DAV:   2    -0.516628857196E+02   -0.16899E-02   -0.42340E-02 18656   0.102E+00    0.341E-01
DAV:   3    -0.516619504890E+02    0.93523E-03   -0.21940E-03 18608   0.320E-01    0.369E-02
DAV:   4    -0.516620511674E+02   -0.10068E-03   -0.90940E-04 18300   0.149E-01    0.262E-02
DAV:   5    -0.516620423366E+02    0.88308E-05   -0.13826E-05  8984   0.292E-02
  46 F= -.51662042E+02 E0= -.51662077E+02  d E =-.368346E-01
       N       E                     dE             d eps       ncg     rms          rms(c)
DAV:   1    -0.516683229546E+02   -0.62718E-02   -0.63899E-01 16272   0.426E+00    0.301E-01
DAV:   2    -0.516689736919E+02   -0.65074E-03   -0.15854E-02 18664   0.623E-01    0.208E-01
DAV:   3    -0.516686181054E+02    0.35559E-03   -0.82593E-04 18564   0.195E-01    0.219E-02
DAV:   4    -0.516686534927E+02   -0.35387E-04   -0.33357E-04 17180   0.901E-02
  47 F= -.51668653E+02 E0= -.51668691E+02  d E =-.434458E-01
       N       E                     dE             d eps       ncg     rms          rms(c)
DAV:   1    -0.516869073693E+02   -0.18289E-01   -0.48656E-01 16016   0.373E+00    0.280E-01
DAV:   2    -0.516871348314E+02   -0.22746E-03   -0.11973E-02 18540   0.558E-01    0.191E-01
DAV:   3    -0.516867426192E+02    0.39221E-03   -0.81165E-04 18876   0.206E-01    0.166E-02
DAV:   4    -0.516867746350E+02   -0.32016E-04   -0.32051E-04 16624   0.889E-02
  48 F= -.51686775E+02 E0= -.51686807E+02  d E =-.181211E-01
       N       E                     dE             d eps       ncg     rms          rms(c)
DAV:   1    -0.516907667399E+02   -0.40241E-02   -0.24449E-01 15992   0.265E+00    0.197E-01
DAV:   2    -0.516909274975E+02   -0.16076E-03   -0.62660E-03 18652   0.404E-01    0.135E-01
DAV:   3    -0.516907375180E+02    0.18998E-03   -0.38377E-04 18884   0.143E-01    0.124E-02
DAV:   4    -0.516907541001E+02   -0.16582E-04   -0.15696E-04 12600   0.619E-02
  49 F= -.51690754E+02 E0= -.51690782E+02  d E =-.221006E-01
       N       E                     dE             d eps       ncg     rms          rms(c)
DAV:   1    -0.517087773825E+02   -0.18040E-01   -0.43377E-01 15936   0.352E+00    0.236E-01
DAV:   2    -0.517090081062E+02   -0.23072E-03   -0.85315E-03 18672   0.472E-01    0.162E-01
DAV:   3    -0.517087899683E+02    0.21814E-03   -0.50759E-04 18148   0.165E-01    0.156E-02
DAV:   4    -0.517088077757E+02   -0.17807E-04   -0.20441E-04 14416   0.715E-02
  50 F= -.51708808E+02 E0= -.51708827E+02  d E =-.180537E-01
       N       E                     dE             d eps       ncg     rms          rms(c)
DAV:   1    -0.517175889144E+02   -0.87989E-02   -0.79547E-01 15928   0.477E+00    0.322E-01
DAV:   2    -0.517180166515E+02   -0.42774E-03   -0.15891E-02 18684   0.645E-01    0.221E-01
DAV:   3    -0.517176091517E+02    0.40750E-03   -0.92145E-04 18064   0.222E-01    0.213E-02
DAV:   4    -0.517176424194E+02   -0.33268E-04   -0.36968E-04 17560   0.963E-02
  51 F= -.51717642E+02 E0= -.51717670E+02  d E =-.268883E-01
       N       E                     dE             d eps       ncg     rms          rms(c)
DAV:   1    -0.517305708647E+02   -0.12962E-01   -0.19116E-01 15960   0.231E+00    0.168E-01
DAV:   2    -0.517305768508E+02   -0.59862E-05   -0.31517E-03 18628   0.282E-01    0.109E-01
DAV:   3    -0.517304877792E+02    0.89072E-04   -0.25326E-04 17780   0.938E-02
  52 F= -.51730488E+02 E0= -.51730518E+02  d E =-.128454E-01
       N       E                     dE             d eps       ncg     rms          rms(c)
DAV:   1    -0.517588954532E+02   -0.28319E-01   -0.17201E+00 15956   0.696E+00    0.502E-01
DAV:   2    -0.517589074746E+02   -0.12021E-04   -0.28811E-02 18640   0.852E-01    0.325E-01
DAV:   3    -0.517580483833E+02    0.85909E-03   -0.21614E-03 17760   0.273E-01    0.297E-02
DAV:   4    -0.517580900478E+02   -0.41665E-04   -0.50262E-04 18272   0.114E-01
  53 F= -.51758090E+02 E0= -.51758126E+02  d E =-.404476E-01
       N       E                     dE             d eps       ncg     rms          rms(c)
DAV:   1    -0.517678124768E+02   -0.97641E-02   -0.69501E+00 15948   0.141E+01    0.104E+00
DAV:   2    -0.517676889104E+02    0.12357E-03   -0.12391E-01 18612   0.176E+00    0.665E-01
DAV:   3    -0.517639111629E+02    0.37777E-02   -0.85789E-03 17700   0.545E-01    0.667E-02
DAV:   4    -0.517641157985E+02   -0.20464E-03   -0.20654E-03 18632   0.231E-01    0.454E-02
DAV:   5    -0.517640858807E+02    0.29918E-04   -0.50142E-05 10436   0.514E-02
  54 F= -.51764086E+02 E0= -.51764130E+02  d E =-.464435E-01
       N       E                     dE             d eps       ncg     rms          rms(c)
DAV:   1    -0.517700741075E+02   -0.59583E-02   -0.11550E+00 15952   0.570E+00    0.407E-01
DAV:   2    -0.517700851973E+02   -0.11090E-04   -0.19022E-02 18540   0.695E-01    0.268E-01
DAV:   3    -0.517694111483E+02    0.67405E-03   -0.16096E-03 17664   0.229E-01    0.260E-02
DAV:   4    -0.517694231951E+02   -0.12047E-04   -0.31683E-04 17780   0.917E-02
  55 F= -.51769423E+02 E0= -.51769464E+02  d E =-.517808E-01
       N       E                     dE             d eps       ncg     rms          rms(c)
DAV:   1    -0.517894340890E+02   -0.20023E-01   -0.55017E-01 15948   0.394E+00    0.300E-01
DAV:   2    -0.517890958356E+02    0.33825E-03   -0.81609E-03 18548   0.453E-01    0.189E-01
DAV:   3    -0.517887202450E+02    0.37559E-03   -0.90820E-04 17584   0.161E-01    0.172E-02
DAV:   4    -0.517887234520E+02   -0.32070E-05   -0.11063E-04 12280   0.548E-02
  56 F= -.51788723E+02 E0= -.51788762E+02  d E =-.193003E-01
       N       E                     dE             d eps       ncg     rms          rms(c)
DAV:   1    -0.518144005969E+02   -0.25680E-01   -0.35574E+00 15976   0.101E+01    0.772E-01
DAV:   2    -0.518125011691E+02    0.18994E-02   -0.55509E-02 18564   0.118E+00    0.483E-01
DAV:   3    -0.518102369242E+02    0.22642E-02   -0.55516E-03 17568   0.399E-01    0.424E-02
DAV:   4    -0.518102748885E+02   -0.37964E-04   -0.69829E-04 18604   0.136E-01
  57 F= -.51810275E+02 E0= -.51810312E+02  d E =-.408517E-01
       N       E                     dE             d eps       ncg     rms          rms(c)
DAV:   1    -0.518209748424E+02   -0.10738E-01   -0.20361E-01 16016   0.244E+00    0.161E-01
DAV:   2    -0.518211500842E+02   -0.17524E-03   -0.46266E-03 18684   0.355E-01    0.114E-01
DAV:   3    -0.518210278561E+02    0.12223E-03   -0.21673E-04 18276   0.126E-01    0.105E-02
DAV:   4    -0.518210382269E+02   -0.10371E-04   -0.10590E-04  9028   0.526E-02
  58 F= -.51821038E+02 E0= -.51821073E+02  d E =-.107633E-01
       N       E                     dE             d eps       ncg     rms          rms(c)
DAV:   1    -0.518273396301E+02   -0.63118E-02   -0.54971E-01 16012   0.402E+00    0.260E-01
DAV:   2    -0.518277921314E+02   -0.45250E-03   -0.12366E-02 18656   0.581E-01    0.183E-01
DAV:   3    -0.518274448444E+02    0.34729E-03   -0.55806E-04 18296   0.204E-01    0.176E-02
DAV:   4    -0.518274731257E+02   -0.28281E-04   -0.28651E-04 16784   0.847E-02
  59 F= -.51827473E+02 E0= -.51827503E+02  d E =-.171982E-01
       N       E                     dE             d eps       ncg     rms          rms(c)
DAV:   1    -0.518373405476E+02   -0.98957E-02   -0.25842E-01 15932   0.272E+00    0.168E-01
DAV:   2    -0.518374979565E+02   -0.15741E-03   -0.42631E-03 18708   0.331E-01    0.113E-01
DAV:   3    -0.518374277657E+02    0.70191E-04   -0.21358E-04 17704   0.952E-02
  60 F= -.51837428E+02 E0= -.51837461E+02  d E =-.995464E-02
