   23   23   60    1
  0.8276955E+01  0.3487200E-09  0.6873500E-09  0.8105822E-09  0.5000000E-15
  1.000000000000000E-004
  CAR 
 unknown system                          
     81    166     52
 
  0.3742002E-15  0.3742002E-15  0.3742002E-15  0.3030303E-02
    1      -31.815351   1.000000
    2      -31.251005   1.000000
    3      -27.905748   1.000000
    4      -27.780030   1.000000
    5      -27.676328   1.000000
    6      -27.640317   1.000000
    7      -27.569110   1.000000
    8      -27.532988   1.000000
    9      -27.476926   1.000000
   10      -27.425652   1.000000
   11      -27.396030   1.000000
   12      -27.326651   1.000000
   13      -27.267228   1.000000
   14      -27.202718   1.000000
   15      -14.047981   1.000000
   16      -13.908781   1.000000
   17      -13.695917   1.000000
   18      -13.495389   1.000000
   19      -13.428042   1.000000
   20      -13.091224   1.000000
   21       -6.649737   1.000000
   22       -4.833206   1.000000
   23       -4.040396   1.000000
   24       -3.740860   1.000000
   25       -3.235694   1.000000
   26       -3.154963   1.000000
   27       -2.229712   1.000000
   28       -1.288810   1.000000
   29       -1.057664   1.000000
   30       -0.927225   1.000000
   31       -0.544029   1.000000
   32       -0.107012   1.000000
   33        0.366173   1.000000
   34        0.665147   1.000000
   35        1.586711   1.000000
   36        1.640756   1.000000
   37        2.934511   1.000000
   38        3.079649   1.000000
   39        3.145271   1.000000
   40        3.697770   0.998553
   41        4.004706  -0.025849
   42        4.522667   0.000000
   43        4.648855   0.000000
   44        4.837598   0.000000
   45        5.095685   0.000000
   46        5.329376   0.000000
   47        5.355483   0.000000
   48        5.456986   0.000000
   49        6.077260   0.000000
   50        6.106247   0.000000
   51        6.252582   0.000000
   52        6.355743   0.000000
 
  0.9090909E-01  0.3742327E-15  0.3744834E-15  0.6060606E-02
    1      -31.810224   1.000000
    2      -31.245297   1.000000
    3      -27.902544   1.000000
    4      -27.778243   1.000000
    5      -27.697508   1.000000
    6      -27.641179   1.000000
    7      -27.575723   1.000000
    8      -27.535678   1.000000
    9      -27.483631   1.000000
   10      -27.431376   1.000000
   11      -27.397258   1.000000
   12      -27.336788   1.000000
   13      -27.265618   1.000000
   14      -27.203639   1.000000
   15      -14.033948   1.000000
   16      -13.900281   1.000000
   17      -13.758606   1.000000
   18      -13.482862   1.000000
   19      -13.422347   1.000000
   20      -13.172386   1.000000
   21       -6.539967   1.000000
   22       -4.783601   1.000000
   23       -3.934807   1.000000
   24       -3.614570   1.000000
   25       -3.197428   1.000000
   26       -3.066738   1.000000
   27       -2.182119   1.000000
   28       -1.289167   1.000000
   29       -1.093633   1.000000
   30       -0.956394   1.000000
   31       -0.502535   1.000000
   32       -0.173254   1.000000
   33        0.238928   1.000000
   34        0.542626   1.000000
   35        1.317292   1.000000
   36        1.500361   1.000000
   37        2.667513   1.000000
   38        2.844895   1.000000
   39        3.150133   1.000000
   40        3.904296   0.186214
   41        4.236117   0.000009
   42        4.372209   0.000000
   43        4.712136   0.000000
   44        4.977876   0.000000
   45        5.286327   0.000000
   46        5.333101   0.000000
   47        5.452431   0.000000
   48        5.632601   0.000000
   49        5.941765   0.000000
   50        6.193588   0.000000
   51        6.336028   0.000000
   52        6.438268   0.000000
 
  0.1818182E+00  0.3744834E-15  0.3742666E-15  0.6060606E-02
    1      -31.796403   1.000000
    2      -31.229906   1.000000
    3      -27.894984   1.000000
    4      -27.783738   1.000000
    5      -27.737437   1.000000
    6      -27.656014   1.000000
    7      -27.591989   1.000000
    8      -27.537860   1.000000
    9      -27.505034   1.000000
   10      -27.437541   1.000000
   11      -27.405256   1.000000
   12      -27.356379   1.000000
   13      -27.264561   1.000000
   14      -27.206521   1.000000
   15      -13.998565   1.000000
   16      -13.929141   1.000000
   17      -13.866456   1.000000
   18      -13.466828   1.000000
   19      -13.407132   1.000000
   20      -13.361574   1.000000
   21       -6.234664   1.000000
   22       -4.654008   1.000000
   23       -3.657448   1.000000
   24       -3.264727   1.000000
   25       -3.143263   1.000000
   26       -2.771450   1.000000
   27       -2.047189   1.000000
   28       -1.371257   1.000000
   29       -1.140642   1.000000
   30       -1.035039   1.000000
   31       -0.416345   1.000000
   32       -0.276907   1.000000
   33       -0.040812   1.000000
   34        0.243759   1.000000
   35        0.744891   1.000000
   36        1.158779   1.000000
   37        2.243883   1.000000
   38        2.646950   1.000000
   39        3.158262   1.000000
   40        3.835577   0.849782
   41        3.907387   0.161324
   42        4.746153   0.000000
   43        4.961787   0.000000
   44        5.209915   0.000000
   45        5.281633   0.000000
   46        5.503338   0.000000
   47        5.691616   0.000000
   48        5.815599   0.000000
   49        6.055143   0.000000
   50        6.292513   0.000000
   51        6.593096   0.000000
   52        6.669959   0.000000
 
  0.2727273E+00  0.3742124E-15  0.3729655E-15  0.6060606E-02
    1      -31.778202   1.000000
    2      -31.209617   1.000000
    3      -27.889234   1.000000
    4      -27.828691   1.000000
    5      -27.749690   1.000000
    6      -27.693183   1.000000
    7      -27.605061   1.000000
    8      -27.544577   1.000000
    9      -27.521600   1.000000
   10      -27.448149   1.000000
   11      -27.408833   1.000000
   12      -27.372779   1.000000
   13      -27.268468   1.000000
   14      -27.211628   1.000000
   15      -14.139070   1.000000
   16      -13.939425   1.000000
   17      -13.840425   1.000000
   18      -13.656730   1.000000
   19      -13.392427   1.000000
   20      -13.371836   1.000000
   21       -5.805087   1.000000
   22       -4.498932   1.000000
   23       -3.428364   1.000000
   24       -3.001445   1.000000
   25       -2.762297   1.000000
   26       -2.374565   1.000000
   27       -1.868975   1.000000
   28       -1.546860   1.000000
   29       -1.221158   1.000000
   30       -1.079754   1.000000
   31       -0.521806   1.000000
   32       -0.318806   1.000000
   33       -0.166628   1.000000
   34       -0.068608   1.000000
   35        0.219229   1.000000
   36        0.764619   1.000000
   37        1.871848   1.000000
   38        2.536990   1.000000
   39        3.127062   1.000000
   40        3.463916   1.000000
   41        3.853069   0.696721
   42        4.790425   0.000000
   43        5.006600   0.000000
   44        5.196095   0.000000
   45        5.447120   0.000000
   46        5.733887   0.000000
   47        5.870497   0.000000
   48        5.974424   0.000000
   49        6.161228   0.000000
   50        6.268485   0.000000
   51        6.812452   0.000000
   52        6.955733   0.000000
 
  0.3636364E+00  0.3741040E-15  0.3738329E-15  0.6060606E-02
    1      -31.761370   1.000000
    2      -31.190844   1.000000
    3      -27.891887   1.000000
    4      -27.877907   1.000000
    5      -27.757136   1.000000
    6      -27.730907   1.000000
    7      -27.618269   1.000000
    8      -27.544723   1.000000
    9      -27.527305   1.000000
   10      -27.464784   1.000000
   11      -27.400254   1.000000
   12      -27.382410   1.000000
   13      -27.278241   1.000000
   14      -27.217545   1.000000
   15      -14.320512   1.000000
   16      -13.915476   1.000000
   17      -13.871595   1.000000
   18      -13.789518   1.000000
   19      -13.374207   1.000000
   20      -13.328693   1.000000
   21       -5.363393   1.000000
   22       -4.354677   1.000000
   23       -3.486484   1.000000
   24       -2.658423   1.000000
   25       -2.346215   1.000000
   26       -2.036248   1.000000
   27       -1.743243   1.000000
   28       -1.616309   1.000000
   29       -1.196562   1.000000
   30       -1.103306   1.000000
   31       -0.722602   1.000000
   32       -0.523687   1.000000
   33       -0.400495   1.000000
   34       -0.212307   1.000000
   35        0.149321   1.000000
   36        0.474666   1.000000
   37        1.545729   1.000000
   38        2.573829   1.000000
   39        3.034187   1.000000
   40        3.206822   1.000000
   41        3.621608   0.997962
   42        4.975321   0.000000
   43        5.096224   0.000000
   44        5.304439   0.000000
   45        5.586527   0.000000
   46        5.752170   0.000000
   47        5.877629   0.000000
   48        5.987267   0.000000
   49        6.124298   0.000000
   50        6.205357   0.000000
   51        6.697450   0.000000
   52        7.212953   0.000000
 
  0.4545455E+00  0.3744292E-15  0.3747003E-15  0.6060606E-02
    1      -31.751330   1.000000
    2      -31.179642   1.000000
    3      -27.912373   1.000000
    4      -27.891941   1.000000
    5      -27.767852   1.000000
    6      -27.751634   1.000000
    7      -27.624619   1.000000
    8      -27.538225   1.000000
    9      -27.527777   1.000000
   10      -27.478129   1.000000
   11      -27.402754   1.000000
   12      -27.373944   1.000000
   13      -27.289474   1.000000
   14      -27.221568   1.000000
   15      -14.425658   1.000000
   16      -14.021992   1.000000
   17      -13.855051   1.000000
   18      -13.777258   1.000000
   19      -13.364616   1.000000
   20      -13.300679   1.000000
   21       -5.072513   1.000000
   22       -4.228923   1.000000
   23       -3.638845   1.000000
   24       -2.427444   1.000000
   25       -2.217507   1.000000
   26       -1.909705   1.000000
   27       -1.669448   1.000000
   28       -1.411031   1.000000
   29       -1.156163   1.000000
   30       -1.026387   1.000000
   31       -0.910777   1.000000
   32       -0.748303   1.000000
   33       -0.553058   1.000000
   34       -0.302617   1.000000
   35        0.227301   1.000000
   36        0.345714   1.000000
   37        1.348613   1.000000
   38        2.723777   1.000000
   39        2.947330   1.000000
   40        3.071594   1.000000
   41        3.329245   1.000000
   42        5.254867   0.000000
   43        5.350599   0.000000
   44        5.440414   0.000000
   45        5.665245   0.000000
   46        5.718458   0.000000
   47        5.829780   0.000000
   48        5.954655   0.000000
   49        6.015586   0.000000
   50        6.156626   0.000000
   51        6.347879   0.000000
   52        7.397826   0.000000
 
  0.3741260E-15  0.1666667E+00  0.3608225E-15  0.6060606E-02
    1      -31.815260   1.000000
    2      -31.251130   1.000000
    3      -27.895885   1.000000
    4      -27.776455   1.000000
    5      -27.676305   1.000000
    6      -27.650388   1.000000
    7      -27.568138   1.000000
    8      -27.533685   1.000000
    9      -27.474400   1.000000
   10      -27.424881   1.000000
   11      -27.394035   1.000000
   12      -27.327572   1.000000
   13      -27.279125   1.000000
   14      -27.201875   1.000000
   15      -14.035311   1.000000
   16      -13.908029   1.000000
   17      -13.695774   1.000000
   18      -13.499662   1.000000
   19      -13.441880   1.000000
   20      -13.091639   1.000000
   21       -6.571366   1.000000
   22       -4.841870   1.000000
   23       -4.242450   1.000000
   24       -3.614432   1.000000
   25       -3.213927   1.000000
   26       -3.087885   1.000000
   27       -2.231604   1.000000
   28       -1.392831   1.000000
   29       -1.113585   1.000000
   30       -0.869015   1.000000
   31       -0.545321   1.000000
   32       -0.045464   1.000000
   33        0.339167   1.000000
   34        0.642156   1.000000
   35        1.459703   1.000000
   36        1.622460   1.000000
   37        2.787212   1.000000
   38        2.974958   1.000000
   39        3.142844   1.000000
   40        3.849412   0.731584
   41        4.030270  -0.005657
   42        4.231323   0.000012
   43        4.823446   0.000000
   44        5.014219   0.000000
   45        5.128351   0.000000
   46        5.305085   0.000000
   47        5.465869   0.000000
   48        5.523193   0.000000
   49        5.916457   0.000000
   50        6.003013   0.000000
   51        6.274311   0.000000
   52        6.408430   0.000000
 
  0.9090909E-01  0.1666667E+00  0.3677614E-15  0.6060606E-02
    1      -31.810130   1.000000
    2      -31.245401   1.000000
    3      -27.892604   1.000000
    4      -27.774954   1.000000
    5      -27.695377   1.000000
    6      -27.652875   1.000000
    7      -27.573881   1.000000
    8      -27.536721   1.000000
    9      -27.479663   1.000000
   10      -27.432977   1.000000
   11      -27.394799   1.000000
   12      -27.336222   1.000000
   13      -27.279157   1.000000
   14      -27.201482   1.000000
   15      -14.022068   1.000000
   16      -13.899588   1.000000
   17      -13.759289   1.000000
   18      -13.486967   1.000000
   19      -13.433965   1.000000
   20      -13.172006   1.000000
   21       -6.462865   1.000000
   22       -4.782634   1.000000
   23       -4.133358   1.000000
   24       -3.492090   1.000000
   25       -3.115983   1.000000
   26       -3.060271   1.000000
   27       -2.179173   1.000000
   28       -1.402582   1.000000
   29       -1.101271   1.000000
   30       -0.906675   1.000000
   31       -0.536499   1.000000
   32       -0.121528   1.000000
   33        0.233878   1.000000
   34        0.527383   1.000000
   35        1.278090   1.000000
   36        1.363767   1.000000
   37        2.590591   1.000000
   38        2.861926   1.000000
   39        3.176861   1.000000
   40        3.733557   1.020180
   41        4.193557   0.000104
   42        4.484738   0.000000
   43        4.780569   0.000000
   44        4.935987   0.000000
   45        5.253339   0.000000
   46        5.413586   0.000000
   47        5.493317   0.000000
   48        5.635584   0.000000
   49        5.882055   0.000000
   50        6.072356   0.000000
   51        6.438163   0.000000
   52        6.505104   0.000000
 
  0.1818182E+00  0.1666667E+00  0.3747003E-15  0.6060606E-02
    1      -31.796330   1.000000
    2      -31.229983   1.000000
    3      -27.885160   1.000000
    4      -27.781130   1.000000
    5      -27.734114   1.000000
    6      -27.662868   1.000000
    7      -27.597060   1.000000
    8      -27.537436   1.000000
    9      -27.502206   1.000000
   10      -27.438831   1.000000
   11      -27.403621   1.000000
   12      -27.354040   1.000000
   13      -27.278738   1.000000
   14      -27.203326   1.000000
   15      -13.990493   1.000000
   16      -13.930342   1.000000
   17      -13.866837   1.000000
   18      -13.469319   1.000000
   19      -13.413879   1.000000
   20      -13.360708   1.000000
   21       -6.165017   1.000000
   22       -4.634602   1.000000
   23       -3.834475   1.000000
   24       -3.172311   1.000000
   25       -3.048013   1.000000
   26       -2.773669   1.000000
   27       -2.053592   1.000000
   28       -1.457211   1.000000
   29       -1.158723   1.000000
   30       -0.959627   1.000000
   31       -0.493849   1.000000
   32       -0.243743   1.000000
   33       -0.025757   1.000000
   34        0.222045   1.000000
   35        0.745520   1.000000
   36        0.981722   1.000000
   37        2.303363   1.000000
   38        2.628117   1.000000
   39        3.190089   1.000000
   40        3.566654   0.999770
   41        4.045230   0.001016
   42        4.750832   0.000000
   43        4.951517   0.000000
   44        5.035444   0.000000
   45        5.297999   0.000000
   46        5.521306   0.000000
   47        5.617295   0.000000
   48        5.800731   0.000000
   49        6.072099   0.000000
   50        6.271174   0.000000
   51        6.638519   0.000000
   52        6.852224   0.000000
 
  0.2727273E+00  0.1666667E+00  0.3747003E-15  0.6060606E-02
    1      -31.778154   1.000000
    2      -31.209666   1.000000
    3      -27.879894   1.000000
    4      -27.826225   1.000000
    5      -27.745578   1.000000
    6      -27.694904   1.000000
    7      -27.613700   1.000000
    8      -27.547416   1.000000
    9      -27.519876   1.000000
   10      -27.448404   1.000000
   11      -27.407710   1.000000
   12      -27.368773   1.000000
   13      -27.281351   1.000000
   14      -27.209224   1.000000
   15      -14.140674   1.000000
   16      -13.941807   1.000000
   17      -13.841420   1.000000
   18      -13.646236   1.000000
   19      -13.397699   1.000000
   20      -13.372214   1.000000
   21       -5.746969   1.000000
   22       -4.456035   1.000000
   23       -3.485466   1.000000
   24       -3.045320   1.000000
   25       -2.657286   1.000000
   26       -2.366277   1.000000
   27       -1.902028   1.000000
   28       -1.594130   1.000000
   29       -1.226094   1.000000
   30       -1.039751   1.000000
   31       -0.575320   1.000000
   32       -0.306141   1.000000
   33       -0.189949   1.000000
   34       -0.112160   1.000000
   35        0.267015   1.000000
   36        0.599139   1.000000
   37        1.976926   1.000000
   38        2.466904   1.000000
   39        3.110037   1.000000
   40        3.363711   1.000000
   41        3.889238   0.323764
   42        4.697203   0.000000
   43        5.036845   0.000000
   44        5.164510   0.000000
   45        5.393442   0.000000
   46        5.568638   0.000000
   47        5.822041   0.000000
   48        6.020024   0.000000
   49        6.244701   0.000000
   50        6.392184   0.000000
   51        6.808342   0.000000
   52        7.094060   0.000000
 
  0.3636364E+00  0.1666667E+00  0.3642919E-15  0.6060606E-02
    1      -31.761347   1.000000
    2      -31.190864   1.000000
    3      -27.887221   1.000000
    4      -27.871408   1.000000
    5      -27.752684   1.000000
    6      -27.730439   1.000000
    7      -27.625488   1.000000
    8      -27.552971   1.000000
    9      -27.526592   1.000000
   10      -27.463381   1.000000
   11      -27.399577   1.000000
   12      -27.377516   1.000000
   13      -27.286863   1.000000
   14      -27.218382   1.000000
   15      -14.322459   1.000000
   16      -13.953542   1.000000
   17      -13.841340   1.000000
   18      -13.777489   1.000000
   19      -13.375044   1.000000
   20      -13.328843   1.000000
   21       -5.325279   1.000000
   22       -4.284274   1.000000
   23       -3.431510   1.000000
   24       -2.777687   1.000000
   25       -2.294091   1.000000
   26       -2.036165   1.000000
   27       -1.753820   1.000000
   28       -1.645582   1.000000
   29       -1.260568   1.000000
   30       -1.063668   1.000000
   31       -0.766308   1.000000
   32       -0.575969   1.000000
   33       -0.360292   1.000000
   34       -0.133673   1.000000
   35        0.076828   1.000000
   36        0.336292   1.000000
   37        1.654874   1.000000
   38        2.436502   1.000000
   39        2.959452   1.000000
   40        3.192942   1.000000
   41        3.703474   1.000507
   42        4.829181   0.000000
   43        5.162630   0.000000
   44        5.336852   0.000000
   45        5.498302   0.000000
   46        5.623117   0.000000
   47        5.848691   0.000000
   48        6.073277   0.000000
   49        6.152914   0.000000
   50        6.389586   0.000000
   51        6.832849   0.000000
   52        7.127226   0.000000
 
  0.4545455E+00  0.1666667E+00  0.3781697E-15  0.6060606E-02
    1      -31.751315   1.000000
    2      -31.179637   1.000000
    3      -27.911436   1.000000
    4      -27.882249   1.000000
    5      -27.764639   1.000000
    6      -27.748312   1.000000
    7      -27.631532   1.000000
    8      -27.548973   1.000000
    9      -27.528995   1.000000
   10      -27.473982   1.000000
   11      -27.400137   1.000000
   12      -27.372099   1.000000
   13      -27.291725   1.000000
   14      -27.226352   1.000000
   15      -14.427590   1.000000
   16      -14.043792   1.000000
   17      -13.835955   1.000000
   18      -13.772246   1.000000
   19      -13.362149   1.000000
   20      -13.300778   1.000000
   21       -5.054005   1.000000
   22       -4.134269   1.000000
   23       -3.562700   1.000000
   24       -2.500232   1.000000
   25       -2.273943   1.000000
   26       -1.887138   1.000000
   27       -1.650383   1.000000
   28       -1.432485   1.000000
   29       -1.343149   1.000000
   30       -0.969156   1.000000
   31       -0.895660   1.000000
   32       -0.709595   1.000000
   33       -0.565745   1.000000
   34       -0.235563   1.000000
   35        0.147956   1.000000
   36        0.222040   1.000000
   37        1.451163   1.000000
   38        2.482801   1.000000
   39        2.834157   1.000000
   40        3.115883   1.000000
   41        3.515681   0.999986
   42        5.124736   0.000000
   43        5.319295   0.000000
   44        5.460633   0.000000
   45        5.628635   0.000000
   46        5.726491   0.000000
   47        5.897673   0.000000
   48        5.967192   0.000000
   49        6.013702   0.000000
   50        6.261930   0.000000
   51        6.492344   0.000000
   52        7.343358   0.000000
 
 -0.4545455E+00  0.1666667E+00  0.3677614E-15  0.6060606E-02
    1      -31.751318   1.000000
    2      -31.179638   1.000000
    3      -27.911172   1.000000
    4      -27.882655   1.000000
    5      -27.765074   1.000000
    6      -27.747173   1.000000
    7      -27.631837   1.000000
    8      -27.549345   1.000000
    9      -27.530555   1.000000
   10      -27.472629   1.000000
   11      -27.399494   1.000000
   12      -27.373829   1.000000
   13      -27.289050   1.000000
   14      -27.227887   1.000000
   15      -14.427741   1.000000
   16      -14.044222   1.000000
   17      -13.835446   1.000000
   18      -13.772363   1.000000
   19      -13.362137   1.000000
   20      -13.300813   1.000000
   21       -5.056319   1.000000
   22       -4.138681   1.000000
   23       -3.548737   1.000000
   24       -2.511253   1.000000
   25       -2.264695   1.000000
   26       -1.870680   1.000000
   27       -1.722346   1.000000
   28       -1.510067   1.000000
   29       -1.127551   1.000000
   30       -1.026266   1.000000
   31       -0.858462   1.000000
   32       -0.748725   1.000000
   33       -0.560202   1.000000
   34       -0.333394   1.000000
   35        0.132360   1.000000
   36        0.309390   1.000000
   37        1.432188   1.000000
   38        2.482476   1.000000
   39        2.858793   1.000000
   40        3.098581   1.000000
   41        3.514571   0.999987
   42        5.192393   0.000000
   43        5.275000   0.000000
   44        5.452072   0.000000
   45        5.650200   0.000000
   46        5.697146   0.000000
   47        5.889890   0.000000
   48        5.938031   0.000000
   49        6.100199   0.000000
   50        6.222993   0.000000
   51        6.465443   0.000000
   52        7.349220   0.000000
 
 -0.3636364E+00  0.1666667E+00  0.3677614E-15  0.6060606E-02
    1      -31.761347   1.000000
    2      -31.190865   1.000000
    3      -27.885516   1.000000
    4      -27.873400   1.000000
    5      -27.753939   1.000000
    6      -27.726508   1.000000
    7      -27.626959   1.000000
    8      -27.555784   1.000000
    9      -27.527979   1.000000
   10      -27.460732   1.000000
   11      -27.394820   1.000000
   12      -27.383838   1.000000
   13      -27.281103   1.000000
   14      -27.221833   1.000000
   15      -14.322820   1.000000
   16      -13.955178   1.000000
   17      -13.839909   1.000000
   18      -13.776803   1.000000
   19      -13.374989   1.000000
   20      -13.328863   1.000000
   21       -5.329121   1.000000
   22       -4.291339   1.000000
   23       -3.396748   1.000000
   24       -2.799215   1.000000
   25       -2.289540   1.000000
   26       -2.025307   1.000000
   27       -1.773090   1.000000
   28       -1.743216   1.000000
   29       -1.144062   1.000000
   30       -0.963062   1.000000
   31       -0.795973   1.000000
   32       -0.599309   1.000000
   33       -0.383862   1.000000
   34       -0.286622   1.000000
   35        0.064720   1.000000
   36        0.487454   1.000000
   37        1.605791   1.000000
   38        2.447826   1.000000
   39        3.012200   1.000000
   40        3.158760   1.000000
   41        3.699936   0.999233
   42        4.913497   0.000000
   43        5.134011   0.000000
   44        5.253988   0.000000
   45        5.534998   0.000000
   46        5.655035   0.000000
   47        5.864676   0.000000
   48        6.034190   0.000000
   49        6.249030   0.000000
   50        6.307948   0.000000
   51        6.758316   0.000000
   52        7.177447   0.000000
 
 -0.2727273E+00  0.1666667E+00  0.3677614E-15  0.6060606E-02
    1      -31.778154   1.000000
    2      -31.209665   1.000000
    3      -27.879512   1.000000
    4      -27.826684   1.000000
    5      -27.747071   1.000000
    6      -27.687664   1.000000
    7      -27.618912   1.000000
    8      -27.551697   1.000000
    9      -27.520209   1.000000
   10      -27.444562   1.000000
   11      -27.404654   1.000000
   12      -27.373781   1.000000
   13      -27.275327   1.000000
   14      -27.212838   1.000000
   15      -14.141512   1.000000
   16      -13.941976   1.000000
   17      -13.841891   1.000000
   18      -13.644022   1.000000
   19      -13.398273   1.000000
   20      -13.371952   1.000000
   21       -5.748753   1.000000
   22       -4.462828   1.000000
   23       -3.446870   1.000000
   24       -3.064145   1.000000
   25       -2.665371   1.000000
   26       -2.353130   1.000000
   27       -1.932276   1.000000
   28       -1.645205   1.000000
   29       -1.157913   1.000000
   30       -0.991835   1.000000
   31       -0.518301   1.000000
   32       -0.453560   1.000000
   33       -0.223804   1.000000
   34       -0.058316   1.000000
   35        0.179766   1.000000
   36        0.738748   1.000000
   37        1.899863   1.000000
   38        2.501894   1.000000
   39        3.146875   1.000000
   40        3.357201   1.000000
   41        3.896341   0.255835
   42        4.740057   0.000000
   43        4.972949   0.000000
   44        5.162326   0.000000
   45        5.439734   0.000000
   46        5.626362   0.000000
   47        5.811205   0.000000
   48        6.018071   0.000000
   49        6.192024   0.000000
   50        6.390924   0.000000
   51        6.778058   0.000000
   52        7.070144   0.000000
 
 -0.1818182E+00  0.1666667E+00  0.3816392E-15  0.6060606E-02
    1      -31.796331   1.000000
    2      -31.229983   1.000000
    3      -27.885133   1.000000
    4      -27.779904   1.000000
    5      -27.737234   1.000000
    6      -27.651754   1.000000
    7      -27.608505   1.000000
    8      -27.537546   1.000000
    9      -27.505220   1.000000
   10      -27.431237   1.000000
   11      -27.404237   1.000000
   12      -27.358028   1.000000
   13      -27.273573   1.000000
   14      -27.206106   1.000000
   15      -13.993733   1.000000
   16      -13.926683   1.000000
   17      -13.868159   1.000000
   18      -13.467284   1.000000
   19      -13.414322   1.000000
   20      -13.361261   1.000000
   21       -6.165918   1.000000
   22       -4.641552   1.000000
   23       -3.818450   1.000000
   24       -3.167096   1.000000
   25       -3.063425   1.000000
   26       -2.759233   1.000000
   27       -2.077015   1.000000
   28       -1.476130   1.000000
   29       -1.147792   1.000000
   30       -0.942290   1.000000
   31       -0.455891   1.000000
   32       -0.235227   1.000000
   33       -0.117897   1.000000
   34        0.230489   1.000000
   35        0.713331   1.000000
   36        1.075536   1.000000
   37        2.215196   1.000000
   38        2.674490   1.000000
   39        3.221823   1.000000
   40        3.585876   0.999452
   41        4.076768   0.004916
   42        4.620950   0.000000
   43        4.970722   0.000000
   44        5.149180   0.000000
   45        5.360218   0.000000
   46        5.498248   0.000000
   47        5.622034   0.000000
   48        5.780272   0.000000
   49        6.032462   0.000000
   50        6.285731   0.000000
   51        6.567183   0.000000
   52        6.738596   0.000000
 
 -0.9090909E-01  0.1666667E+00  0.3747003E-15  0.6060606E-02
    1      -31.810131   1.000000
    2      -31.245403   1.000000
    3      -27.892615   1.000000
    4      -27.774230   1.000000
    5      -27.698205   1.000000
    6      -27.645841   1.000000
    7      -27.582479   1.000000
    8      -27.533634   1.000000
    9      -27.483637   1.000000
   10      -27.426045   1.000000
   11      -27.396579   1.000000
   12      -27.338773   1.000000
   13      -27.275741   1.000000
   14      -27.203036   1.000000
   15      -14.022703   1.000000
   16      -13.899372   1.000000
   17      -13.759296   1.000000
   18      -13.486615   1.000000
   19      -13.433752   1.000000
   20      -13.172009   1.000000
   21       -6.463692   1.000000
   22       -4.786591   1.000000
   23       -4.127215   1.000000
   24       -3.492726   1.000000
   25       -3.134664   1.000000
   26       -3.035346   1.000000
   27       -2.191072   1.000000
   28       -1.393963   1.000000
   29       -1.143689   1.000000
   30       -0.880119   1.000000
   31       -0.514257   1.000000
   32       -0.103501   1.000000
   33        0.187146   1.000000
   34        0.520164   1.000000
   35        1.265599   1.000000
   36        1.407332   1.000000
   37        2.546444   1.000000
   38        2.879977   1.000000