unknown system                          
           1
     3.132463   -0.239477   -0.088951
    -1.218175    6.589958    0.832248
    -1.328362   -1.362459    5.069913
   Sr   Nb   H 
   1   1  12
Direct configuration=     1
   0.89085600  0.01471200  0.61306200
   0.57569900  0.48127100  0.45791900
   0.43319100  0.65147100  0.15189200
   0.59006800  0.59471500  0.09953500
   0.19374600  0.92470700  0.22476800
   0.32707700  0.95457700  0.11599100
   0.80325000  0.66616100  0.74610200
   0.51941400  0.00389600  0.91581500
   0.57106700  0.29305900  0.68048000
   0.91933400  0.30317600  0.34307700
   0.12901100  0.26626000  0.03733800
   0.36412200  0.25826200  0.02528700
   0.16634800  0.48630000  0.67620600
   0.17182300  0.67054600  0.44281800
unknown system                          
           1
     3.166737   -0.242590   -0.089675
    -1.232852    6.656777    0.842264
    -1.342233   -1.374363    5.118929
   Sr   Nb   H 
   1   1  12
Direct configuration=     2
   0.89092107  0.01471002  0.61358933
   0.57608425  0.48160782  0.45911826
   0.43304002  0.65132114  0.15147132
   0.58962064  0.59511835  0.09952141
   0.19460557  0.92504939  0.22409733
   0.32627543  0.95446877  0.11684861
   0.80327216  0.66569821  0.74565260
   0.51950345  0.00383323  0.91575159
   0.57113729  0.29296464  0.68031272
   0.91939627  0.30330027  0.34297368
   0.12863069  0.26618312  0.03738748
   0.36443248  0.25846121  0.02524800
   0.16626069  0.48609962  0.67577844
   0.17182599  0.67029723  0.44253923
unknown system                          
           1
     3.241810   -0.249409   -0.091262
    -1.265002    6.803137    0.864204
    -1.372616   -1.400439    5.226292
   Sr   Nb   H 
   1   1  12
Direct configuration=     3
   0.89106237  0.01470554  0.61473337
   0.57692011  0.48233775  0.46171977
   0.43271247  0.65099632  0.15055877
   0.58865187  0.59599289  0.09949174
   0.19646804  0.92579217  0.22264201
   0.32453906  0.95423366  0.11870935
   0.80331931  0.66469489  0.74467793
   0.51969714  0.00369715  0.91561406
   0.57128935  0.29276009  0.67994987
   0.91953128  0.30356977  0.34274943
   0.12780660  0.26601634  0.03749491
   0.36510543  0.25889322  0.02516321
   0.16607101  0.48566528  0.67485098
   0.17183197  0.66975793  0.44193460
unknown system                          
           1
     3.218437   -0.247286   -0.090768
    -1.254992    6.757569    0.857373
    -1.363157   -1.392321    5.192865
   Sr   Nb   H 
   1   1  12
Direct configuration=     4
   0.89101920  0.01470703  0.61438449
   0.57666517  0.48211566  0.46092657
   0.43281237  0.65109518  0.15083699
   0.58894617  0.59572652  0.09950092
   0.19590158  0.92556567  0.22308604
   0.32506691  0.95430555  0.11814178
   0.80330552  0.66500041  0.74497498
   0.51963831  0.00373857  0.91565598
   0.57124325  0.29282235  0.68006049
   0.91949015  0.30348765  0.34281788
   0.12805727  0.26606719  0.03746208
   0.36490061  0.25876159  0.02518917
   0.16612903  0.48579749  0.67513373
   0.17183046  0.66992214  0.44211889
unknown system                          
           1
     3.196339   -0.243671   -0.089431
    -1.239694    6.740014    0.860337
    -1.352844   -1.387571    5.192663
   Sr   Nb   H 
   1   1  12
Direct configuration=     5
   0.89241448  0.01539864  0.61672756
   0.57907336  0.48180440  0.46500391
   0.43673135  0.64902299  0.15008911
   0.58466140  0.59722580  0.10171739
   0.19671892  0.92583314  0.22331576
   0.32483680  0.95442583  0.11891972
   0.80144489  0.66344349  0.74222292
   0.51862794  0.00378242  0.91335417
   0.57060514  0.29382641  0.67757381
   0.92122412  0.30599261  0.34430431
   0.14032875  0.26560182  0.03698210
   0.35257733  0.25925216  0.02573828
   0.16463942  0.48553392  0.67237510
   0.17112210  0.66796939  0.44196585
unknown system                          
           1
     3.209658   -0.245850   -0.090237
    -1.248915    6.750595    0.858551
    -1.359060   -1.390434    5.192785
   Sr   Nb   H 
   1   1  12
Direct configuration=     6
   0.89157458  0.01498226  0.61531568
   0.57761985  0.48199486  0.46254607
   0.43434634  0.65027511  0.15053887
   0.58726996  0.59632041  0.10038201
   0.19622415  0.92567183  0.22317750
   0.32497838  0.95435351  0.11845085
   0.80256403  0.66438229  0.74388078
   0.51923630  0.00375462  0.91474165
   0.57098973  0.29321856  0.67907334
   0.92018166  0.30448048  0.34340993
   0.13288027  0.26588500  0.03727181
   0.36005745  0.25895378  0.02540692
   0.16553681  0.48569151  0.67403773
   0.17154649  0.66914878  0.44205687
unknown system                          
           1
     3.207328   -0.245652   -0.091861
    -1.247663    6.752207    0.867093
    -1.359985   -1.387078    5.212125
   Sr   Nb   H 
   1   1  12
Direct configuration=     7
   0.89285525  0.01557660  0.61748293
   0.57915210  0.48176238  0.46500186
   0.43360972  0.64979078  0.15112663
   0.58750843  0.59625085  0.10104533
   0.19669102  0.92586259  0.22366262
   0.32508835  0.95454734  0.11900072
   0.80134079  0.66325140  0.74197746
   0.51823033  0.00372401  0.91239847
   0.57041682  0.29385615  0.67718168
   0.92197729  0.30684799  0.34488547
   0.13188286  0.26584006  0.03736159
   0.36086207  0.25908088  0.02521235
   0.16447686  0.48539819  0.67197624
   0.17091410  0.66732375  0.44197665
unknown system                          
           1
     3.204957   -0.245451   -0.093512
    -1.246391    6.753846    0.875780
    -1.360925   -1.383665    5.231794
   Sr   Nb   H 
   1   1  12
Direct configuration=     8
   0.89415437  0.01617795  0.61967880
   0.58070788  0.48152299  0.46749155
   0.43285951  0.64929769  0.15172284
   0.58775012  0.59617931  0.10171776
   0.19716519  0.92605589  0.22415412
   0.32519909  0.95474365  0.11955772
   0.80010038  0.66210435  0.74004994
   0.51721042  0.00369589  0.91002349
   0.56983607  0.29450664  0.67526338
   0.92379948  0.30925257  0.34637766
   0.13086745  0.26579420  0.03745233
   0.36168129  0.25921038  0.02501522
   0.16340185  0.48510267  0.66988713
   0.17027290  0.66546881  0.44189805
unknown system                          
           1
     3.204756   -0.245560   -0.094103
    -1.246269    6.757746    0.880416
    -1.361281   -1.382780    5.245813
   Sr   Nb   H 
   1   1  12
Direct configuration=     9
   0.89467606  0.01644000  0.62062377
   0.58078576  0.48156869  0.46739054
   0.43256546  0.64903862  0.15199964
   0.58780581  0.59616200  0.10209445
   0.19753009  0.92617227  0.22428014
   0.32514936  0.95480272  0.11994679
   0.79988218  0.66180210  0.73958090
   0.51676226  0.00368010  0.90899453
   0.56959439  0.29453284  0.67472956
   0.92464377  0.31026223  0.34706686
   0.13083955  0.26574838  0.03746063
   0.36158719  0.25927787  0.02494159
   0.16313035  0.48494494  0.66926450
   0.17005377  0.66468026  0.44191610
unknown system                          
           1
     3.204153   -0.245886   -0.095875
    -1.245904    6.769444    0.894325
    -1.362346   -1.380126    5.287870
   Sr   Nb   H 
   1   1  12
Direct configuration=    10
   0.89623725  0.01722360  0.62345095
   0.58101969  0.48170591  0.46708823
   0.43168269  0.64826136  0.15282841
   0.58797154  0.59610934  0.10322167
   0.19862424  0.92652091  0.22465708
   0.32499856  0.95497895  0.12111085
   0.79922986  0.66089700  0.73817803
   0.51542152  0.00363488  0.90591548
   0.56887122  0.29461246  0.67313207
   0.92717236  0.31328756  0.34912706
   0.13075589  0.26561099  0.03748555
   0.36130499  0.25948031  0.02472108
   0.16231842  0.48447340  0.66740168
   0.16939779  0.66231633  0.44197186
unknown system                          
           1
     3.202948   -0.246538   -0.099419
    -1.245174    6.792841    0.922144
    -1.364478   -1.374818    5.371984
   Sr   Nb   H 
   1   1  12
Direct configuration=    11
   0.89933656  0.01877582  0.62905938
   0.58148946  0.48198106  0.46648776
   0.42991333  0.64670667  0.15447622
   0.58829488  0.59599957  0.10545916
   0.20080916  0.92721533  0.22540429
   0.32468746  0.95532572  0.12342022
   0.79793880  0.65909661  0.73539753
   0.51276224  0.00355718  0.89980395
   0.56743597  0.29477784  0.66996077
   0.93220412  0.31931655  0.35320369
   0.13058886  0.26533673  0.03753558
   0.36074123  0.25988512  0.02428233
   0.16070974  0.48354002  0.66370625
   0.16809420  0.65759879  0.44209288
unknown system                          
           1
     3.207405   -0.247632   -0.099147
    -1.248373    6.801476    0.925760
    -1.364903   -1.375902    5.392317
   Sr   Nb   H 
   1   1  12
Direct configuration=    12
   0.89895020  0.01883875  0.62879741
   0.58083437  0.48291627  0.46520858
   0.43024897  0.64642540  0.15451901
   0.58784273  0.59612324  0.10608632
   0.20127896  0.92731227  0.22532810
   0.32459823  0.95530146  0.12398280
   0.79816996  0.65911875  0.73531037
   0.51280871  0.00354212  0.89986488
   0.56728813  0.29405217  0.67035971
   0.93224235  0.31892126  0.35296344
   0.13146576  0.26523557  0.03739885
   0.35960302  0.25992703  0.02425228
   0.16122146  0.48338988  0.66420977
   0.16845315  0.65800884  0.44200848
unknown system                          
           1
     3.212330   -0.248842   -0.098847
    -1.251908    6.811019    0.929757
    -1.365373   -1.377099    5.414790
   Sr   Nb   H 
   1   1  12
Direct configuration=    13
   0.89852430  0.01890835  0.62850896
   0.58011406  0.48394931  0.46379968
   0.43061922  0.64611496  0.15456623
   0.58734259  0.59625924  0.10677688
   0.20179764  0.92741937  0.22524412
   0.32449870  0.95527427  0.12460228
   0.79842525  0.65914327  0.73521436
   0.51285988  0.00352545  0.89993198
   0.56712400  0.29325095  0.67079935
   0.93228486  0.31848516  0.35269908
   0.13243377  0.26512412  0.03724826
   0.35834690  0.25997318  0.02421930
   0.16178523  0.48322386  0.66476422
   0.16884960  0.65846151  0.44191530
unknown system                          
           1
     3.219893   -0.250821   -0.099418
    -1.258461    6.818103    0.936441
    -1.367856   -1.375602    5.438541
   Sr   Nb   H 
   1   1  12
Direct configuration=    14
   0.89795390  0.01903976  0.62805486
   0.58037319  0.48434480  0.46455274
   0.42981349  0.64617346  0.15496828
   0.58797588  0.59602199  0.10740304
   0.20205153  0.92745891  0.22554973
   0.32483532  0.95536054  0.12509203
   0.79815547  0.65887880  0.73429085
   0.51284847  0.00348227  0.90002122
   0.56682990  0.29289141  0.67051005
   0.93219786  0.31792765  0.35218708
   0.13110929  0.26502651  0.03714230
   0.35918830  0.25996785  0.02398350
   0.16216630  0.48307636  0.66489980
   0.16950710  0.65946268  0.44163452
unknown system                          
           1
     3.226628   -0.252583   -0.099927
    -1.264298    6.824412    0.942393
    -1.370066   -1.374270    5.459692
   Sr   Nb   H 
   1   1  12
Direct configuration=    15
   0.89744781  0.01915700  0.62765204
   0.58060286  0.48469587  0.46522020
   0.42909712  0.64622494  0.15532474
   0.58853752  0.59581047  0.10795854
   0.20227675  0.92749381  0.22582072
   0.32513387  0.95543684  0.12552625
   0.79791670  0.65864444  0.73347213
   0.51283818  0.00344377  0.90010040
   0.56656860  0.29257185  0.67025382
   0.93212065  0.31743226  0.35173355
   0.12993251  0.26493955  0.03704839
   0.35993618  0.25996351  0.02377442
   0.16250455  0.48294510  0.66502016
   0.17009268  0.66035358  0.44138464
unknown system                          
           1
     3.229634   -0.253924   -0.100099
    -1.268023    6.826036    0.949269
    -1.370204   -1.371090    5.479370
   Sr   Nb   H 
   1   1  12
Direct configuration=    16
   0.89705571  0.01935259  0.62746442
   0.58106237  0.48461046  0.46631524
   0.42921485  0.64598962  0.15552892
   0.58828607  0.59583893  0.10899883
   0.20270144  0.92756792  0.22608536
   0.32537830  0.95552178  0.12611269
   0.79752993  0.65834768  0.73240080
   0.51263890  0.00338388  0.90000218
   0.56622218  0.29247850  0.66963589
   0.93213283  0.31713242  0.35138672
   0.13049703  0.26477329  0.03680009
   0.35880824  0.25997318  0.02360014
   0.16268639  0.48280511  0.66484395
   0.17079178  0.66133764  0.44111476
unknown system                          
           1
     3.236257   -0.256881   -0.100478
    -1.276233    6.829614    0.964423
    -1.370506   -1.364084    5.522735
   Sr   Nb   H 
   1   1  12
Direct configuration=    17
   0.89619339  0.01978378  0.62705190
   0.58206943  0.48441953  0.46872028
   0.42947296  0.64547078  0.15597795
   0.58772813  0.59589871  0.11128339
   0.20363546  0.92773060  0.22666636
   0.32591413  0.95570738  0.12740035
   0.79668250  0.65769676  0.73004880
   0.51220047  0.00325217  0.89978665
   0.56546192  0.29227443  0.66827907
   0.93216075  0.31647293  0.35062580
   0.13174079  0.26440794  0.03625522
   0.35632556  0.25999455  0.02321740
   0.16308733  0.48249730  0.66445731
   0.17233316  0.66350614  0.44051952
unknown system                          
           1
     3.234536   -0.257879   -0.101048
    -1.277973    6.824617    0.972627
    -1.369234   -1.359026    5.545122
   Sr   Nb   H 
   1   1  12
Direct configuration=    18
   0.89614512  0.02002981  0.62751376
   0.58234420  0.48424822  0.46862758
   0.42937949  0.64523399  0.15641352
   0.58775257  0.59583512  0.11259925
   0.20429306  0.92784665  0.22704371
   0.32616857  0.95584316  0.12809078
   0.79646408  0.65754133  0.72917826
   0.51150124  0.00311282  0.89912353
   0.56498164  0.29212925  0.66764492
   0.93255569  0.31671568  0.35080313
   0.13094913  0.26420121  0.03596523
   0.35629948  0.25993246  0.02282611
   0.16310922  0.48225681  0.66404322
   0.17306250  0.66418649  0.44041703
unknown system                          
           1
     3.229373   -0.260874   -0.102761
    -1.283194    6.809627    0.997241
    -1.365418   -1.343852    5.612284
   Sr   Nb   H 
   1   1  12
Direct configuration=    19
   0.89599658  0.02076596  0.62889291
   0.58316973  0.48373464  0.46835138
   0.42909544  0.64452119  0.15771633
   0.58781550  0.59563798  0.11653210
   0.20626416  0.92819354  0.22817107
   0.32692695  0.95624751  0.13015361
   0.79581525  0.65707889  0.72657724
   0.50940744  0.00269737  0.89714221
   0.56354486  0.29169629  0.66575025
   0.93373989  0.31744361  0.35133207
   0.12857491  0.26358171  0.03509936
   0.35622430  0.25974798  0.02165698
   0.16317816  0.48153701  0.66280678
   0.17525284  0.66622931  0.44010773
unknown system                          
           1
     3.221270   -0.260760   -0.104037
    -1.281074    6.798687    0.995278
    -1.364128   -1.344226    5.617291
   Sr   Nb   H 
   1   1  12
Direct configuration=    20
   0.89621995  0.02063942  0.62990759
   0.58402455  0.48541897  0.46782872
   0.42660336  0.64520359  0.15872679
   0.59056433  0.59483537  0.11657950
   0.20632210  0.92818953  0.22880730
   0.32744714  0.95647325  0.13008149
   0.79539494  0.65652733  0.72574004
   0.50858000  0.00253674  0.89627538
   0.56336516  0.29132240  0.66587504
   0.93421644  0.31807365  0.35195174
   0.12994387  0.26340038  0.03471975
   0.35424431  0.25967927  0.02140789
   0.16282517  0.48124473  0.66208132
   0.17525467  0.66556839  0.44030745
unknown system                          
           1
     3.222600   -0.260779   -0.103828
    -1.281421    6.800482    0.995600
    -1.364340   -1.344165    5.616470
   Sr   Nb   H 
   1   1  12
Direct configuration=    21
   0.89618335  0.02066023  0.62974129
   0.58388388  0.48514221  0.46791432
   0.42701336  0.64509155  0.15856129
   0.59011224  0.59496717  0.11657163
   0.20631266  0.92819020  0.22870303
   0.32736158  0.95643615  0.13009328
   0.79546396  0.65661794  0.72587727
   0.50871597  0.00256313  0.89641747
   0.56339473  0.29138383  0.66585460
   0.93413815  0.31797015  0.35185016
   0.12971867  0.26343013  0.03478191
   0.35456992  0.25969059  0.02144879
   0.16288313  0.48129274  0.66220023
   0.17525440  0.66567698  0.44027473
unknown system                          
           1
     3.212560   -0.259906   -0.104315
    -1.276992    6.785571    0.994104
    -1.361136   -1.343107    5.618995
   Sr   Nb   H 
   1   1  12
Direct configuration=    22
   0.89638776  0.02050678  0.63112959
   0.58448441  0.48645908  0.46696372
   0.42724708  0.64489298  0.15910934
   0.59026205  0.59494013  0.11780550
   0.20701469  0.92834832  0.22916017
   0.32758025  0.95665086  0.13046935
   0.79520913  0.65608149  0.72499653
   0.50753821  0.00227709  0.89536155
   0.56322760  0.29120743  0.66573519
   0.93478357  0.31895351  0.35266263
   0.12793961  0.26321040  0.03439554
   0.35535389  0.25953610  0.02083609
   0.16245192  0.48095793  0.66114684
   0.17552583  0.66509090  0.44051797
unknown system                          
           1
     3.207217   -0.259441   -0.104575
    -1.274636    6.777637    0.993309
    -1.359432   -1.342544    5.620339
   Sr   Nb   H 
   1   1  12
Direct configuration=    23
   0.89649598  0.02042474  0.63186810
   0.58480526  0.48716153  0.46645801
   0.42737153  0.64478699  0.15940089
   0.59034119  0.59492553  0.11846185
   0.20738911  0.92843258  0.22940338
   0.32769666  0.95676531  0.13066940
   0.79507385  0.65579552  0.72452805
   0.50691027  0.00212469  0.89479980
   0.56313851  0.29111337  0.66567167
   0.93512728  0.31947783  0.35309479
   0.12699018  0.26309325  0.03418990
   0.35577289  0.25945381  0.02051025
   0.16222254  0.48077953  0.66058649
   0.17567076  0.66477831  0.44064743
