  10  10   0   0
  0.8598926E+01  0.3356293E-09  0.3378412E-09  0.7924326E-09  0.5000000E-15
  1.000000000000000E-004
  CAR 
 unknown system                          
     11.87913961    -33.38444899  301      4.18518409      1.00000000
    -33.384  0.0000E+00  0.0000E+00
    -33.234  0.0000E+00  0.0000E+00
    -33.083  0.0000E+00  0.0000E+00
    -32.932  0.0000E+00  0.0000E+00
    -32.781  0.0000E+00  0.0000E+00
    -32.630  0.0000E+00  0.0000E+00
    -32.479  0.0000E+00  0.0000E+00
    -32.328  0.0000E+00  0.0000E+00
    -32.177  0.1481E-31  0.2235E-32
    -32.027  0.1422E-21  0.2145E-22
    -31.876  0.1296E-13  0.1955E-14
    -31.725  0.1029E-07  0.1552E-08
    -31.574  0.5426E-04  0.8188E-05
    -31.423 -0.1225E-02 -0.1767E-03
    -31.272  0.5445E-01  0.8038E-02
    -31.121  0.1680E+00  0.3338E-01
    -30.970 -0.7441E-03  0.3327E-01
    -30.820  0.4005E-03  0.3333E-01
    -30.669  0.1582E-05  0.3333E-01
    -30.518  0.2342E-10  0.3333E-01
    -30.367  0.2725E-17  0.3333E-01
    -30.216  0.0000E+00  0.3333E-01
    -30.065  0.0000E+00  0.3333E-01
    -29.914  0.0000E+00  0.3333E-01
    -29.763  0.0000E+00  0.3333E-01
    -29.612  0.0000E+00  0.3333E-01
    -29.462  0.0000E+00  0.3333E-01
    -29.311  0.0000E+00  0.3333E-01
    -29.160  0.0000E+00  0.3333E-01
    -29.009  0.0000E+00  0.3333E-01
    -28.858  0.0000E+00  0.3333E-01
    -28.707  0.0000E+00  0.3333E-01
    -28.556  0.0000E+00  0.3333E-01
    -28.405  0.0000E+00  0.3333E-01
    -28.255  0.0000E+00  0.3333E-01
    -28.104  0.5146E-30  0.3333E-01
    -27.953  0.2799E-20  0.3333E-01
    -27.802  0.1470E-12  0.3333E-01
    -27.651  0.6764E-07  0.3333E-01
    -27.500  0.1881E-03  0.3336E-01
    -27.349 -0.4124E-02  0.3274E-01
    -27.198  0.1327E+00  0.5276E-01
    -27.048  0.3087E+00  0.9934E-01
    -26.897  0.3602E+00  0.1537E+00
    -26.746  0.4894E+00  0.2275E+00
    -26.595  0.3771E-01  0.2332E+00
    -26.444  0.7697E-03  0.2333E+00
    -26.293  0.1942E-04  0.2333E+00
    -26.142  0.5786E-09  0.2333E+00
    -25.991  0.1222E-15  0.2333E+00
    -25.841  0.0000E+00  0.2333E+00
    -25.690  0.0000E+00  0.2333E+00
    -25.539  0.0000E+00  0.2333E+00
    -25.388  0.0000E+00  0.2333E+00
    -25.237  0.0000E+00  0.2333E+00
    -25.086  0.0000E+00  0.2333E+00
    -24.935  0.0000E+00  0.2333E+00
    -24.784  0.0000E+00  0.2333E+00
    -24.633  0.0000E+00  0.2333E+00
    -24.483  0.0000E+00  0.2333E+00
    -24.332  0.0000E+00  0.2333E+00
    -24.181  0.0000E+00  0.2333E+00
    -24.030  0.0000E+00  0.2333E+00
    -23.879  0.0000E+00  0.2333E+00
    -23.728  0.0000E+00  0.2333E+00
    -23.577  0.0000E+00  0.2333E+00
    -23.426  0.0000E+00  0.2333E+00
    -23.276  0.0000E+00  0.2333E+00
    -23.125  0.0000E+00  0.2333E+00
    -22.974  0.0000E+00  0.2333E+00
    -22.823  0.0000E+00  0.2333E+00
    -22.672  0.0000E+00  0.2333E+00
    -22.521  0.0000E+00  0.2333E+00
    -22.370  0.0000E+00  0.2333E+00
    -22.219  0.0000E+00  0.2333E+00
    -22.069  0.0000E+00  0.2333E+00
    -21.918  0.0000E+00  0.2333E+00
    -21.767  0.0000E+00  0.2333E+00
    -21.616  0.0000E+00  0.2333E+00
    -21.465  0.0000E+00  0.2333E+00
    -21.314  0.0000E+00  0.2333E+00
    -21.163  0.0000E+00  0.2333E+00
    -21.012  0.0000E+00  0.2333E+00
    -20.862  0.0000E+00  0.2333E+00
    -20.711  0.0000E+00  0.2333E+00
    -20.560  0.0000E+00  0.2333E+00
    -20.409  0.0000E+00  0.2333E+00
    -20.258  0.0000E+00  0.2333E+00
    -20.107  0.0000E+00  0.2333E+00
    -19.956  0.0000E+00  0.2333E+00
    -19.805  0.0000E+00  0.2333E+00
    -19.654  0.0000E+00  0.2333E+00
    -19.504  0.0000E+00  0.2333E+00
    -19.353  0.0000E+00  0.2333E+00
    -19.202  0.0000E+00  0.2333E+00
    -19.051  0.0000E+00  0.2333E+00
    -18.900  0.0000E+00  0.2333E+00
    -18.749  0.0000E+00  0.2333E+00
    -18.598  0.0000E+00  0.2333E+00
    -18.447  0.0000E+00  0.2333E+00
    -18.297  0.0000E+00  0.2333E+00
    -18.146  0.0000E+00  0.2333E+00
    -17.995  0.0000E+00  0.2333E+00
    -17.844  0.0000E+00  0.2333E+00
    -17.693  0.0000E+00  0.2333E+00
    -17.542  0.0000E+00  0.2333E+00
    -17.391  0.0000E+00  0.2333E+00
    -17.240  0.0000E+00  0.2333E+00
    -17.090  0.0000E+00  0.2333E+00
    -16.939  0.0000E+00  0.2333E+00
    -16.788  0.0000E+00  0.2333E+00
    -16.637  0.0000E+00  0.2333E+00
    -16.486  0.0000E+00  0.2333E+00
    -16.335  0.0000E+00  0.2333E+00
    -16.184  0.0000E+00  0.2333E+00
    -16.033  0.0000E+00  0.2333E+00
    -15.883  0.0000E+00  0.2333E+00
    -15.732  0.0000E+00  0.2333E+00
    -15.581  0.0000E+00  0.2333E+00
    -15.430  0.0000E+00  0.2333E+00
    -15.279  0.0000E+00  0.2333E+00
    -15.128  0.0000E+00  0.2333E+00
    -14.977  0.3751E-35  0.2333E+00
    -14.826  0.1314E-24  0.2333E+00
    -14.675  0.4383E-16  0.2333E+00
    -14.525  0.1291E-09  0.2333E+00
    -14.374  0.2700E-05  0.2333E+00
    -14.223  0.6028E-04  0.2333E+00
    -14.072  0.3979E-02  0.2339E+00
    -13.921  0.5429E-01  0.2421E+00
    -13.770  0.8157E-01  0.2544E+00
    -13.619  0.4301E-01  0.2609E+00
    -13.468  0.6748E-01  0.2711E+00
    -13.318  0.1314E+00  0.2909E+00
    -13.167  0.1567E+00  0.3146E+00
    -13.016  0.8377E-01  0.3272E+00
    -12.865  0.4163E-01  0.3335E+00
    -12.714 -0.1128E-02  0.3333E+00
    -12.563  0.6194E-04  0.3333E+00
    -12.412  0.3601E-07  0.3333E+00
    -12.261  0.1168E-12  0.3333E+00
    -12.111  0.0000E+00  0.3333E+00
    -11.960  0.0000E+00  0.3333E+00
    -11.809  0.0000E+00  0.3333E+00
    -11.658  0.0000E+00  0.3333E+00
    -11.507  0.0000E+00  0.3333E+00
    -11.356  0.0000E+00  0.3333E+00
    -11.205  0.0000E+00  0.3333E+00
    -11.054  0.0000E+00  0.3333E+00
    -10.904  0.0000E+00  0.3333E+00
    -10.753  0.0000E+00  0.3333E+00
    -10.602  0.0000E+00  0.3333E+00
    -10.451  0.0000E+00  0.3333E+00
    -10.300  0.0000E+00  0.3333E+00
    -10.149  0.0000E+00  0.3333E+00
     -9.998  0.0000E+00  0.3333E+00
     -9.847  0.0000E+00  0.3333E+00
     -9.697  0.0000E+00  0.3333E+00
     -9.546  0.0000E+00  0.3333E+00
     -9.395  0.0000E+00  0.3333E+00
     -9.244  0.0000E+00  0.3333E+00
     -9.093  0.0000E+00  0.3333E+00
     -8.942  0.0000E+00  0.3333E+00
     -8.791  0.0000E+00  0.3333E+00
     -8.640  0.0000E+00  0.3333E+00
     -8.489  0.0000E+00  0.3333E+00
     -8.339  0.0000E+00  0.3333E+00
     -8.188  0.0000E+00  0.3333E+00
     -8.037  0.0000E+00  0.3333E+00
     -7.886  0.0000E+00  0.3333E+00
     -7.735  0.0000E+00  0.3333E+00
     -7.584  0.0000E+00  0.3333E+00
     -7.433  0.0000E+00  0.3333E+00
     -7.282  0.0000E+00  0.3333E+00
     -7.132  0.0000E+00  0.3333E+00
     -6.981  0.0000E+00  0.3333E+00
     -6.830  0.0000E+00  0.3333E+00
     -6.679  0.0000E+00  0.3333E+00
     -6.528  0.0000E+00  0.3333E+00
     -6.377  0.1063E-34  0.3333E+00
     -6.226  0.1898E-24  0.3333E+00
     -6.075  0.3070E-16  0.3333E+00
     -5.925  0.3989E-10  0.3333E+00
     -5.774  0.2822E-06  0.3333E+00
     -5.623 -0.6669E-05  0.3333E+00
     -5.472  0.1571E-03  0.3334E+00
     -5.321  0.2294E-02  0.3337E+00
     -5.170  0.4093E-02  0.3343E+00
     -5.019  0.3940E-02  0.3349E+00
     -4.868  0.8369E-02  0.3362E+00
     -4.718  0.7063E-02  0.3372E+00
     -4.567  0.5755E-02  0.3381E+00
     -4.416  0.9554E-02  0.3396E+00
     -4.265  0.8634E-02  0.3409E+00
     -4.114  0.1128E-01  0.3426E+00
     -3.963  0.8857E-02  0.3439E+00
     -3.812  0.1397E-01  0.3460E+00
     -3.661  0.1768E-01  0.3487E+00
     -3.510  0.2020E-01  0.3517E+00
     -3.360  0.1694E-01  0.3543E+00
     -3.209  0.2492E-01  0.3580E+00
     -3.058  0.2875E-01  0.3624E+00
     -2.907  0.2853E-01  0.3667E+00
     -2.756  0.2612E-01  0.3706E+00
     -2.605  0.3097E-01  0.3753E+00
     -2.454  0.3020E-01  0.3798E+00
     -2.303  0.4048E-01  0.3860E+00
     -2.153  0.3698E-01  0.3915E+00
     -2.002  0.3953E-01  0.3975E+00
     -1.851  0.2804E-01  0.4017E+00
     -1.700  0.4746E-01  0.4089E+00
     -1.549  0.5024E-01  0.4165E+00
     -1.398  0.8426E-01  0.4292E+00
     -1.247  0.4003E-01  0.4352E+00
     -1.096  0.2252E-01  0.4386E+00
     -0.946  0.4628E-01  0.4456E+00
     -0.795  0.8007E-01  0.4577E+00
     -0.644  0.7285E-01  0.4687E+00
     -0.493  0.2849E-01  0.4730E+00
     -0.342  0.7422E-01  0.4842E+00
     -0.191  0.1001E+00  0.4993E+00
     -0.040  0.6125E-01  0.5085E+00
      0.111  0.4544E-01  0.5154E+00
      0.261  0.3878E-01  0.5212E+00
      0.412  0.5687E-01  0.5298E+00
      0.563  0.3596E-01  0.5352E+00
      0.714  0.4603E-01  0.5422E+00
      0.865  0.3282E-01  0.5471E+00
      1.016  0.1999E-01  0.5501E+00
      1.167  0.1736E-01  0.5528E+00
      1.318  0.1453E-01  0.5549E+00
      1.469  0.1234E-01  0.5568E+00
      1.619  0.1423E-01  0.5590E+00
      1.770  0.6915E-02  0.5600E+00
      1.921  0.9739E-02  0.5615E+00
      2.072  0.1116E-01  0.5632E+00
      2.223  0.3770E-02  0.5637E+00
      2.374  0.2976E-01  0.5682E+00
      2.525  0.5335E-01  0.5763E+00
      2.676  0.3444E-01  0.5815E+00
      2.826  0.7287E-01  0.5925E+00
      2.977  0.3524E-01  0.5978E+00
      3.128  0.6598E-01  0.6077E+00
      3.279  0.3191E-01  0.6125E+00
      3.430  0.2112E-01  0.6157E+00
      3.581  0.3373E-01  0.6208E+00
      3.732  0.3267E-01  0.6257E+00
      3.883  0.4804E-01  0.6330E+00
      4.033  0.5558E-01  0.6414E+00
      4.184  0.5685E-01  0.6500E+00
      4.335  0.4372E-01  0.6566E+00
      4.486  0.1834E-01  0.6593E+00
      4.637  0.2356E-01  0.6629E+00
      4.788  0.1746E-01  0.6655E+00
      4.939  0.9300E-02  0.6669E+00
      5.090  0.1621E-01  0.6694E+00
      5.240  0.4026E-01  0.6754E+00
      5.391  0.5593E-01  0.6839E+00
      5.542  0.5792E-01  0.6926E+00
      5.693  0.8228E-01  0.7050E+00
      5.844  0.8086E-01  0.7172E+00
      5.995  0.5601E-01  0.7257E+00
      6.146  0.7431E-01  0.7369E+00
      6.297  0.9444E-01  0.7511E+00
      6.448  0.6729E-01  0.7613E+00
      6.598  0.6931E-01  0.7717E+00
      6.749  0.5250E-01  0.7797E+00
      6.900  0.6335E-01  0.7892E+00
      7.051  0.7513E-01  0.8006E+00
      7.202  0.7551E-01  0.8119E+00
      7.353  0.4358E-01  0.8185E+00
      7.504  0.5809E-01  0.8273E+00
      7.655  0.4206E-01  0.8336E+00
      7.805  0.4160E-01  0.8399E+00
      7.956  0.3776E-01  0.8456E+00
      8.107  0.2400E-01  0.8492E+00
      8.258  0.3735E-01  0.8549E+00
      8.409  0.6685E-01  0.8650E+00
      8.560  0.7659E-01  0.8765E+00
      8.711  0.7034E-01  0.8871E+00
      8.862  0.8123E-01  0.8994E+00
      9.012  0.5717E-01  0.9080E+00
      9.163  0.5039E-01  0.9156E+00
      9.314  0.4961E-01  0.9231E+00
      9.465  0.4437E-01  0.9298E+00
      9.616  0.1888E-01  0.9326E+00
      9.767  0.3861E-02  0.9332E+00
      9.918  0.8135E-03  0.9333E+00
     10.069 -0.2778E-04  0.9333E+00
     10.219  0.1499E-05  0.9333E+00
     10.370  0.5791E-09  0.9333E+00
     10.521  0.1071E-14  0.9333E+00
     10.672  0.0000E+00  0.9333E+00
     10.823  0.0000E+00  0.9333E+00
     10.974  0.0000E+00  0.9333E+00
     11.125  0.0000E+00  0.9333E+00
     11.276  0.0000E+00  0.9333E+00
     11.427  0.0000E+00  0.9333E+00
     11.577  0.0000E+00  0.9333E+00
     11.728  0.0000E+00  0.9333E+00
     11.879  0.0000E+00  0.9333E+00
