   15   15   99    2
  0.8559845E+01  0.3813741E-09  0.5404345E-09  0.6231705E-09  0.5000000E-15
  1.000000000000000E-004
  CAR 
 unknown system                          
     44     48     48
 
  0.8333333E-01  0.1250000E+00  0.1250000E+00  0.2083333E-01
    1      -33.964538    -33.964538   1.000000   1.000000
    2      -30.144353    -30.144353   1.000000   1.000000
    3      -30.084287    -30.084288   1.000000   1.000000
    4      -29.925755    -29.925755   1.000000   1.000000
    5      -29.770618    -29.770617   1.000000   1.000000
    6      -29.652155    -29.652154   1.000000   1.000000
    7      -29.575286    -29.575286   1.000000   1.000000
    8      -16.023117    -16.023117   1.000000   1.000000
    9      -16.002756    -16.002756   1.000000   1.000000
   10      -15.937310    -15.937310   1.000000   1.000000
   11       -7.104885     -7.104885   1.000000   1.000000
   12       -4.293063     -4.293063   1.000000   1.000000
   13       -3.909989     -3.909989   1.000000   1.000000
   14       -3.209217     -3.209217   1.000000   1.000000
   15       -2.931793     -2.931793   1.000000   1.000000
   16       -2.770709     -2.770709   1.000000   1.000000
   17       -2.626879     -2.626878   1.000000   1.000000
   18       -2.139998     -2.139997   1.000000   1.000000
   19       -1.516705     -1.516704   1.000000   1.000000
   20       -0.900382     -0.900382   1.000000   1.000000
   21       -0.712297     -0.712297   1.000000   1.000000
   22       -0.414143     -0.414143   1.000000   1.000000
   23        2.300510      2.300510   0.000000   0.000000
   24        2.839685      2.839685   0.000000   0.000000
   25        3.074729      3.074728   0.000000   0.000000
   26        4.051022      4.051022   0.000000   0.000000
   27        4.682925      4.682925   0.000000   0.000000
   28        5.276706      5.276706   0.000000   0.000000
   29        5.500945      5.500945   0.000000   0.000000
   30        5.860681      5.860681   0.000000   0.000000
   31        6.207429      6.207429   0.000000   0.000000
   32        6.424148      6.424148   0.000000   0.000000
   33        6.685763      6.685763   0.000000   0.000000
   34        6.895977      6.895976   0.000000   0.000000
   35        7.658957      7.658957   0.000000   0.000000
   36        8.006252      8.006252   0.000000   0.000000
   37        8.641395      8.641395   0.000000   0.000000
   38        8.895193      8.895193   0.000000   0.000000
   39        9.287738      9.287738   0.000000   0.000000
   40       10.155457     10.155457   0.000000   0.000000
   41       10.729035     10.729035   0.000000   0.000000
   42       11.183619     11.183619   0.000000   0.000000
   43       12.291410     12.291410   0.000000   0.000000
   44       12.401669     12.401669   0.000000   0.000000
   45       12.979129     12.979129   0.000000   0.000000
   46       13.524023     13.524023   0.000000   0.000000
   47       14.032148     14.032147   0.000000   0.000000
   48       14.517818     14.517820   0.000000   0.000000
 
  0.2500000E+00  0.1250000E+00  0.1250000E+00  0.2083333E-01
    1      -33.957831    -33.957831   1.000000   1.000000
    2      -30.141794    -30.141794   1.000000   1.000000
    3      -30.093007    -30.093007   1.000000   1.000000
    4      -29.938671    -29.938671   1.000000   1.000000
    5      -29.786341    -29.786341   1.000000   1.000000
    6      -29.651334    -29.651334   1.000000   1.000000
    7      -29.576304    -29.576304   1.000000   1.000000
    8      -16.079638    -16.079638   1.000000   1.000000
    9      -15.992919    -15.992918   1.000000   1.000000
   10      -15.985813    -15.985813   1.000000   1.000000
   11       -6.559966     -6.559966   1.000000   1.000000
   12       -4.042396     -4.042397   1.000000   1.000000
   13       -3.740108     -3.740108   1.000000   1.000000
   14       -3.304901     -3.304901   1.000000   1.000000
   15       -3.005175     -3.005176   1.000000   1.000000
   16       -2.730085     -2.730085   1.000000   1.000000
   17       -2.589647     -2.589647   1.000000   1.000000
   18       -1.897253     -1.897252   1.000000   1.000000
   19       -1.546462     -1.546462   1.000000   1.000000
   20       -1.350510     -1.350509   1.000000   1.000000
   21       -0.951299     -0.951300   1.000000   1.000000
   22       -0.798878     -0.798878   1.000000   1.000000
   23        2.227588      2.227588   0.000000   0.000000
   24        2.903428      2.903428   0.000000   0.000000
   25        3.223619      3.223618   0.000000   0.000000
   26        4.016449      4.016450   0.000000   0.000000
   27        4.636227      4.636227   0.000000   0.000000
   28        4.830444      4.830444   0.000000   0.000000
   29        5.309116      5.309116   0.000000   0.000000
   30        5.875875      5.875875   0.000000   0.000000
   31        6.146170      6.146170   0.000000   0.000000
   32        6.864755      6.864755   0.000000   0.000000
   33        7.037335      7.037335   0.000000   0.000000
   34        7.365749      7.365749   0.000000   0.000000
   35        7.552203      7.552203   0.000000   0.000000
   36        7.963391      7.963391   0.000000   0.000000
   37        8.415554      8.415554   0.000000   0.000000
   38        8.863565      8.863565   0.000000   0.000000
   39        9.424616      9.424617   0.000000   0.000000
   40        9.856358      9.856358   0.000000   0.000000
   41       10.412869     10.412869   0.000000   0.000000
   42       11.045135     11.045135   0.000000   0.000000
   43       11.986587     11.986586   0.000000   0.000000
   44       12.616345     12.616345   0.000000   0.000000
   45       12.822958     12.822958   0.000000   0.000000
   46       13.290844     13.290844   0.000000   0.000000
   47       13.835110     13.835110   0.000000   0.000000
   48       14.117294     14.117294   0.000000   0.000000
 
  0.4166667E+00  0.1250000E+00  0.1250000E+00  0.2083333E-01
    1      -33.951095    -33.951095   1.000000   1.000000
    2      -30.139309    -30.139309   1.000000   1.000000
    3      -30.103527    -30.103527   1.000000   1.000000
    4      -29.949627    -29.949627   1.000000   1.000000
    5      -29.802531    -29.802530   1.000000   1.000000
    6      -29.650353    -29.650353   1.000000   1.000000
    7      -29.576909    -29.576909   1.000000   1.000000
    8      -16.201294    -16.201294   1.000000   1.000000
    9      -15.977538    -15.977537   1.000000   1.000000
   10      -15.968640    -15.968640   1.000000   1.000000
   11       -5.772265     -5.772265   1.000000   1.000000
   12       -4.322257     -4.322257   1.000000   1.000000
   13       -3.518655     -3.518656   1.000000   1.000000
   14       -3.348819     -3.348819   1.000000   1.000000
   15       -2.946087     -2.946087   1.000000   1.000000
   16       -2.613794     -2.613794   1.000000   1.000000
   17       -2.421441     -2.421441   1.000000   1.000000
   18       -2.159886     -2.159886   1.000000   1.000000
   19       -1.880598     -1.880598   1.000000   1.000000
   20       -1.490900     -1.490900   1.000000   1.000000
   21       -0.959396     -0.959396   1.000000   1.000000
   22       -0.565360     -0.565360   1.000000   1.000000
   23        2.208332      2.208332   0.000000   0.000000
   24        2.652117      2.652118   0.000000   0.000000
   25        3.161003      3.161004   0.000000   0.000000
   26        3.586663      3.586664   0.000000   0.000000
   27        4.421485      4.421485   0.000000   0.000000
   28        5.003400      5.003400   0.000000   0.000000
   29        5.117318      5.117318   0.000000   0.000000
   30        5.834468      5.834468   0.000000   0.000000
   31        6.142257      6.142257   0.000000   0.000000
   32        6.927787      6.927787   0.000000   0.000000
   33        7.250867      7.250867   0.000000   0.000000
   34        7.553737      7.553737   0.000000   0.000000
   35        7.710332      7.710332   0.000000   0.000000
   36        8.075237      8.075238   0.000000   0.000000
   37        8.221457      8.221457   0.000000   0.000000
   38        8.520788      8.520788   0.000000   0.000000
   39        8.973125      8.973125   0.000000   0.000000
   40       10.144484     10.144484   0.000000   0.000000
   41       10.614883     10.614883   0.000000   0.000000
   42       10.993423     10.993423   0.000000   0.000000
   43       11.936506     11.936506   0.000000   0.000000
   44       12.533320     12.533320   0.000000   0.000000
   45       12.762406     12.762405   0.000000   0.000000
   46       13.205435     13.205435   0.000000   0.000000
   47       13.785597     13.785596   0.000000   0.000000
   48       14.572288     14.572289   0.000000   0.000000
 
 -0.4166667E+00  0.1250000E+00  0.1250000E+00  0.2083333E-01
    1      -33.951083    -33.951083   1.000000   1.000000
    2      -30.139352    -30.139352   1.000000   1.000000
    3      -30.103398    -30.103398   1.000000   1.000000
    4      -29.949738    -29.949738   1.000000   1.000000
    5      -29.802592    -29.802591   1.000000   1.000000
    6      -29.650270    -29.650270   1.000000   1.000000
    7      -29.576943    -29.576943   1.000000   1.000000
    8      -16.201400    -16.201400   1.000000   1.000000
    9      -15.977119    -15.977119   1.000000   1.000000
   10      -15.968128    -15.968128   1.000000   1.000000
   11       -5.829841     -5.829841   1.000000   1.000000
   12       -4.251154     -4.251155   1.000000   1.000000
   13       -3.511559     -3.511560   1.000000   1.000000
   14       -3.306104     -3.306105   1.000000   1.000000
   15       -3.007234     -3.007234   1.000000   1.000000
   16       -2.591540     -2.591540   1.000000   1.000000
   17       -2.400507     -2.400507   1.000000   1.000000
   18       -2.236888     -2.236887   1.000000   1.000000
   19       -1.926604     -1.926604   1.000000   1.000000
   20       -1.412306     -1.412306   1.000000   1.000000
   21       -0.889572     -0.889573   1.000000   1.000000
   22       -0.553000     -0.553000   1.000000   1.000000
   23        2.194246      2.194246   0.000000   0.000000
   24        2.655080      2.655081   0.000000   0.000000
   25        3.103520      3.103520   0.000000   0.000000
   26        3.520027      3.520027   0.000000   0.000000
   27        4.435091      4.435091   0.000000   0.000000
   28        4.937078      4.937078   0.000000   0.000000
   29        5.107302      5.107302   0.000000   0.000000
   30        5.813243      5.813243   0.000000   0.000000
   31        6.097498      6.097498   0.000000   0.000000
   32        6.817187      6.817187   0.000000   0.000000
   33        7.213108      7.213108   0.000000   0.000000
   34        7.395589      7.395589   0.000000   0.000000
   35        7.797058      7.797058   0.000000   0.000000
   36        8.302396      8.302396   0.000000   0.000000
   37        8.416262      8.416262   0.000000   0.000000
   38        8.647581      8.647581   0.000000   0.000000
   39        9.050424      9.050424   0.000000   0.000000
   40       10.155048     10.155048   0.000000   0.000000
   41       10.480412     10.480412   0.000000   0.000000
   42       10.851702     10.851702   0.000000   0.000000
   43       11.975570     11.975570   0.000000   0.000000
   44       12.386311     12.386311   0.000000   0.000000
   45       12.870590     12.870590   0.000000   0.000000
   46       13.426923     13.426923   0.000000   0.000000
   47       13.988912     13.988912   0.000000   0.000000
   48       14.250609     14.250610   0.000000   0.000000
 
 -0.2500000E+00  0.1250000E+00  0.1250000E+00  0.2083333E-01
    1      -33.957807    -33.957807   1.000000   1.000000
    2      -30.141878    -30.141878   1.000000   1.000000
    3      -30.092760    -30.092760   1.000000   1.000000
    4      -29.938886    -29.938886   1.000000   1.000000
    5      -29.786468    -29.786467   1.000000   1.000000
    6      -29.651164    -29.651164   1.000000   1.000000
    7      -29.576371    -29.576371   1.000000   1.000000
    8      -16.080840    -16.080840   1.000000   1.000000
    9      -15.991071    -15.991070   1.000000   1.000000
   10      -15.984792    -15.984792   1.000000   1.000000
   11       -6.610943     -6.610943   1.000000   1.000000
   12       -3.984660     -3.984660   1.000000   1.000000
   13       -3.754020     -3.754020   1.000000   1.000000
   14       -3.253162     -3.253162   1.000000   1.000000
   15       -3.002010     -3.002009   1.000000   1.000000
   16       -2.779971     -2.779971   1.000000   1.000000
   17       -2.570788     -2.570788   1.000000   1.000000
   18       -2.022181     -2.022181   1.000000   1.000000
   19       -1.480794     -1.480794   1.000000   1.000000
   20       -1.329863     -1.329863   1.000000   1.000000
   21       -0.861200     -0.861200   1.000000   1.000000
   22       -0.698488     -0.698488   1.000000   1.000000
   23        2.196503      2.196503   0.000000   0.000000
   24        2.876531      2.876533   0.000000   0.000000
   25        3.071244      3.071243   0.000000   0.000000
   26        4.013671      4.013671   0.000000   0.000000
   27        4.541679      4.541678   0.000000   0.000000
   28        4.764267      4.764268   0.000000   0.000000
   29        5.307190      5.307190   0.000000   0.000000
   30        5.891486      5.891486   0.000000   0.000000
   31        6.172671      6.172670   0.000000   0.000000
   32        6.593697      6.593697   0.000000   0.000000
   33        6.890350      6.890349   0.000000   0.000000
   34        7.143067      7.143067   0.000000   0.000000
   35        7.790761      7.790761   0.000000   0.000000
   36        8.192100      8.192100   0.000000   0.000000
   37        8.542588      8.542588   0.000000   0.000000
   38        9.185611      9.185612   0.000000   0.000000
   39        9.314720      9.314721   0.000000   0.000000
   40       10.000817     10.000817   0.000000   0.000000
   41       10.727221     10.727221   0.000000   0.000000
   42       10.892400     10.892400   0.000000   0.000000
   43       11.891020     11.891020   0.000000   0.000000
   44       12.463820     12.463820   0.000000   0.000000
   45       12.928461     12.928461   0.000000   0.000000
   46       13.310293     13.310293   0.000000   0.000000
   47       13.867791     13.867792   0.000000   0.000000
   48       14.599855     14.599857   0.000000   0.000000
 
 -0.8333333E-01  0.1250000E+00  0.1250000E+00  0.2083333E-01
    1      -33.964526    -33.964526   1.000000   1.000000
    2      -30.144393    -30.144393   1.000000   1.000000
    3      -30.084170    -30.084170   1.000000   1.000000
    4      -29.925853    -29.925853   1.000000   1.000000
    5      -29.770683    -29.770683   1.000000   1.000000
    6      -29.652067    -29.652067   1.000000   1.000000
    7      -29.575318    -29.575318   1.000000   1.000000
    8      -16.023638    -16.023637   1.000000   1.000000
    9      -16.002517    -16.002517   1.000000   1.000000
   10      -15.936158    -15.936158   1.000000   1.000000
   11       -7.122423     -7.122423   1.000000   1.000000
   12       -4.254525     -4.254525   1.000000   1.000000
   13       -3.963829     -3.963829   1.000000   1.000000
   14       -3.142214     -3.142214   1.000000   1.000000
   15       -2.948840     -2.948840   1.000000   1.000000
   16       -2.804346     -2.804346   1.000000   1.000000
   17       -2.608781     -2.608781   1.000000   1.000000
   18       -2.168131     -2.168131   1.000000   1.000000
   19       -1.463379     -1.463379   1.000000   1.000000
   20       -0.936153     -0.936153   1.000000   1.000000
   21       -0.653361     -0.653362   1.000000   1.000000
   22       -0.383553     -0.383552   1.000000   1.000000
   23        2.284011      2.284011   0.000000   0.000000
   24        2.834967      2.834967   0.000000   0.000000
   25        3.035578      3.035578   0.000000   0.000000
   26        4.025842      4.025843   0.000000   0.000000
   27        4.645486      4.645486   0.000000   0.000000
   28        5.078918      5.078918   0.000000   0.000000
   29        5.586581      5.586581   0.000000   0.000000
   30        5.863569      5.863569   0.000000   0.000000
   31        6.222902      6.222902   0.000000   0.000000
   32        6.574769      6.574769   0.000000   0.000000
   33        6.663550      6.663550   0.000000   0.000000
   34        6.728390      6.728390   0.000000   0.000000
   35        7.629733      7.629733   0.000000   0.000000
   36        7.971729      7.971729   0.000000   0.000000
   37        8.517490      8.517490   0.000000   0.000000
   38        9.090019      9.090019   0.000000   0.000000
   39        9.473727      9.473728   0.000000   0.000000
   40       10.085503     10.085503   0.000000   0.000000
   41       10.756706     10.756706   0.000000   0.000000
   42       11.641095     11.641095   0.000000   0.000000
   43       12.080615     12.080615   0.000000   0.000000
   44       12.436341     12.436341   0.000000   0.000000
   45       13.075731     13.075730   0.000000   0.000000
   46       13.426518     13.426517   0.000000   0.000000
   47       14.009280     14.009280   0.000000   0.000000
   48       14.501748     14.501748   0.000000   0.000000
 
  0.8333333E-01  0.3750000E+00  0.1250000E+00  0.2083333E-01
    1      -33.964480    -33.964480   1.000000   1.000000
    2      -30.104010    -30.104010   1.000000   1.000000
    3      -30.071932    -30.071932   1.000000   1.000000
    4      -29.953696    -29.953696   1.000000   1.000000
    5      -29.773928    -29.773927   1.000000   1.000000
    6      -29.697264    -29.697264   1.000000   1.000000
    7      -29.553526    -29.553526   1.000000   1.000000
    8      -16.022748    -16.022748   1.000000   1.000000
    9      -16.010791    -16.010791   1.000000   1.000000
   10      -15.936726    -15.936727   1.000000   1.000000
   11       -6.458500     -6.458500   1.000000   1.000000
   12       -5.292680     -5.292680   1.000000   1.000000
   13       -4.002638     -4.002637   1.000000   1.000000
   14       -3.231073     -3.231073   1.000000   1.000000
   15       -3.014809     -3.014810   1.000000   1.000000
   16       -2.759839     -2.759839   1.000000   1.000000
   17       -2.534253     -2.534253   1.000000   1.000000
   18       -2.423509     -2.423508   1.000000   1.000000
   19       -1.139444     -1.139444   1.000000   1.000000
   20       -0.870748     -0.870748   1.000000   1.000000
   21       -0.432725     -0.432725   1.000000   1.000000
   22       -0.164730     -0.164730   1.000000   1.000000
   23        2.051844      2.051844   0.000000   0.000000
   24        2.648762      2.648762   0.000000   0.000000
   25        3.205070      3.205070   0.000000   0.000000
   26        4.480619      4.480619   0.000000   0.000000
   27        4.531394      4.531394   0.000000   0.000000
   28        4.991102      4.991101   0.000000   0.000000
   29        5.555322      5.555322   0.000000   0.000000
   30        5.833902      5.833902   0.000000   0.000000
   31        6.213175      6.213175   0.000000   0.000000
   32        6.565810      6.565810   0.000000   0.000000
   33        7.082661      7.082662   0.000000   0.000000
   34        7.306492      7.306492   0.000000   0.000000
   35        7.499075      7.499075   0.000000   0.000000
   36        7.876403      7.876403   0.000000   0.000000
   37        8.391917      8.391917   0.000000   0.000000
   38        8.774482      8.774482   0.000000   0.000000
   39        9.132786      9.132786   0.000000   0.000000
   40       10.312754     10.312754   0.000000   0.000000
   41       10.899686     10.899685   0.000000   0.000000
   42       11.320500     11.320501   0.000000   0.000000
   43       11.895131     11.895131   0.000000   0.000000
   44       12.447965     12.447965   0.000000   0.000000
   45       12.932022     12.932022   0.000000   0.000000
   46       13.355964     13.355964   0.000000   0.000000
   47       13.751468     13.751468   0.000000   0.000000
   48       14.528871     14.528870   0.000000   0.000000
 
  0.2500000E+00  0.3750000E+00  0.1250000E+00  0.2083333E-01
    1      -33.957749    -33.957749   1.000000   1.000000
    2      -30.105663    -30.105664   1.000000   1.000000
    3      -30.074825    -30.074824   1.000000   1.000000
    4      -29.967788    -29.967788   1.000000   1.000000
    5      -29.789984    -29.789984   1.000000   1.000000
    6      -29.696599    -29.696599   1.000000   1.000000
    7      -29.554508    -29.554508   1.000000   1.000000
    8      -16.078167    -16.078168   1.000000   1.000000
    9      -15.998721    -15.998720   1.000000   1.000000
   10      -15.986992    -15.986993   1.000000   1.000000
   11       -5.921214     -5.921214   1.000000   1.000000
   12       -4.878940     -4.878940   1.000000   1.000000
   13       -3.840507     -3.840506   1.000000   1.000000
   14       -3.384827     -3.384827   1.000000   1.000000
   15       -3.114419     -3.114419   1.000000   1.000000
   16       -2.738433     -2.738433   1.000000   1.000000
   17       -2.507948     -2.507948   1.000000   1.000000
   18       -2.352564     -2.352563   1.000000   1.000000
   19       -1.433489     -1.433489   1.000000   1.000000
   20       -1.130218     -1.130217   1.000000   1.000000
   21       -0.620060     -0.620060   1.000000   1.000000
   22       -0.458821     -0.458821   1.000000   1.000000
   23        2.105455      2.105456   0.000000   0.000000
   24        2.834750      2.834750   0.000000   0.000000
   25        3.466814      3.466814   0.000000   0.000000
   26        4.148290      4.148290   0.000000   0.000000
   27        4.422301      4.422301   0.000000   0.000000
   28        5.007899      5.007899   0.000000   0.000000
   29        5.297010      5.297011   0.000000   0.000000
   30        5.870256      5.870256   0.000000   0.000000
   31        6.243234      6.243234   0.000000   0.000000
   32        6.519435      6.519435   0.000000   0.000000
   33        6.795660      6.795660   0.000000   0.000000
   34        7.222201      7.222201   0.000000   0.000000
   35        7.568820      7.568820   0.000000   0.000000
   36        8.010494      8.010495   0.000000   0.000000
   37        8.306134      8.306134   0.000000   0.000000
   38        8.967513      8.967513   0.000000   0.000000
   39        9.423491      9.423492   0.000000   0.000000
   40       10.127582     10.127582   0.000000   0.000000
   41       10.732079     10.732079   0.000000   0.000000
   42       11.568777     11.568777   0.000000   0.000000
   43       11.811811     11.811811   0.000000   0.000000
   44       12.247012     12.247011   0.000000   0.000000
   45       12.790755     12.790755   0.000000   0.000000
   46       12.955365     12.955365   0.000000   0.000000
   47       13.875401     13.875401   0.000000   0.000000
   48       14.795819     14.795842   0.000000   0.000000
 
  0.4166667E+00  0.3750000E+00  0.1250000E+00  0.2083333E-01
    1      -33.950987    -33.950987   1.000000   1.000000
    2      -30.109898    -30.109899   1.000000   1.000000
    3      -30.077367    -30.077367   1.000000   1.000000
    4      -29.979765    -29.979765   1.000000   1.000000
    5      -29.806356    -29.806355   1.000000   1.000000
    6      -29.695676    -29.695676   1.000000   1.000000
    7      -29.555116    -29.555116   1.000000   1.000000
    8      -16.198999    -16.198999   1.000000   1.000000
    9      -15.983170    -15.983170   1.000000   1.000000
   10      -15.969448    -15.969448   1.000000   1.000000
   11       -5.134757     -5.134757   1.000000   1.000000
   12       -4.271040     -4.271040   1.000000   1.000000
   13       -4.068764     -4.068765   1.000000   1.000000
   14       -3.614281     -3.614281   1.000000   1.000000
   15       -3.288745     -3.288745   1.000000   1.000000
   16       -2.641096     -2.641096   1.000000   1.000000
   17       -2.528845     -2.528845   1.000000   1.000000
   18       -2.361682     -2.361682   1.000000   1.000000
   19       -1.899898     -1.899898   1.000000   1.000000
   20       -1.331203     -1.331202   1.000000   1.000000
   21       -0.649514     -0.649514   1.000000   1.000000
   22       -0.048057     -0.048057   1.000000   1.000000
   23        2.335184      2.335185   0.000000   0.000000
   24        2.786308      2.786309   0.000000   0.000000
   25        3.130305      3.130305   0.000000   0.000000
   26        3.437422      3.437422   0.000000   0.000000
   27        4.216641      4.216641   0.000000   0.000000
   28        4.839977      4.839977   0.000000   0.000000
   29        5.482375      5.482375   0.000000   0.000000
   30        5.757308      5.757307   0.000000   0.000000
   31        6.232263      6.232263   0.000000   0.000000
   32        6.550891      6.550891   0.000000   0.000000
   33        6.700287      6.700287   0.000000   0.000000
   34        7.139735      7.139735   0.000000   0.000000
   35        7.510554      7.510554   0.000000   0.000000
   36        8.019654      8.019655   0.000000   0.000000
   37        8.611383      8.611383   0.000000   0.000000
   38        9.050762      9.050763   0.000000   0.000000
   39        9.302855      9.302855   0.000000   0.000000
   40       10.283644     10.283644   0.000000   0.000000
   41       10.587084     10.587084   0.000000   0.000000
   42       11.361780     11.361780   0.000000   0.000000
   43       11.717857     11.717857   0.000000   0.000000
   44       12.924119     12.924119   0.000000   0.000000
   45       13.168927     13.168927   0.000000   0.000000
   46       13.385322     13.385322   0.000000   0.000000
   47       13.698519     13.698519   0.000000   0.000000
   48       14.473710     14.473710   0.000000   0.000000
 
 -0.4166667E+00  0.3750000E+00  0.1250000E+00  0.2083333E-01
    1      -33.950973    -33.950973   1.000000   1.000000
    2      -30.109896    -30.109897   1.000000   1.000000
    3      -30.077290    -30.077290   1.000000   1.000000
    4      -29.979933    -29.979933   1.000000   1.000000
    5      -29.806410    -29.806409   1.000000   1.000000
    6      -29.695566    -29.695566   1.000000   1.000000
    7      -29.555121    -29.555121   1.000000   1.000000
    8      -16.199138    -16.199138   1.000000   1.000000
    9      -15.982888    -15.982888   1.000000   1.000000
   10      -15.968863    -15.968863   1.000000   1.000000
   11       -5.224652     -5.224652   1.000000   1.000000
   12       -4.225151     -4.225151   1.000000   1.000000
   13       -3.984046     -3.984046   1.000000   1.000000
   14       -3.619364     -3.619364   1.000000   1.000000
   15       -3.308375     -3.308375   1.000000   1.000000
   16       -2.635504     -2.635504   1.000000   1.000000
   17       -2.541514     -2.541514   1.000000   1.000000
   18       -2.426392     -2.426392   1.000000   1.000000
   19       -1.883368     -1.883368   1.000000   1.000000
   20       -1.284477     -1.284477   1.000000   1.000000
   21       -0.571044     -0.571044   1.000000   1.000000
   22       -0.020465     -0.020465   1.000000   1.000000
   23        2.337882      2.337882   0.000000   0.000000
   24        2.741867      2.741868   0.000000   0.000000
   25        3.038081      3.038082   0.000000   0.000000
   26        3.432242      3.432242   0.000000   0.000000
   27        4.171369      4.171370   0.000000   0.000000
   28        4.766694      4.766695   0.000000   0.000000
   29        5.608291      5.608291   0.000000   0.000000
   30        5.768074      5.768074   0.000000   0.000000
   31        6.106653      6.106654   0.000000   0.000000
   32        6.465407      6.465407   0.000000   0.000000
   33        6.690537      6.690538   0.000000   0.000000
   34        7.050681      7.050680   0.000000   0.000000
   35        7.369361      7.369361   0.000000   0.000000
   36        8.083926      8.083927   0.000000   0.000000
   37        8.835393      8.835393   0.000000   0.000000
   38        9.221713      9.221713   0.000000   0.000000
   39        9.455332      9.455332   0.000000   0.000000
   40       10.286904     10.286904   0.000000   0.000000
   41       10.694338     10.694337   0.000000   0.000000
   42       11.336987     11.336987   0.000000   0.000000
   43       11.639126     11.639126   0.000000   0.000000
   44       13.003173     13.003173   0.000000   0.000000
   45       13.213693     13.213693   0.000000   0.000000
   46       13.531246     13.531246   0.000000   0.000000
   47       13.867786     13.867786   0.000000   0.000000
   48       14.610241     14.610238   0.000000   0.000000
 
 -0.2500000E+00  0.3750000E+00  0.1250000E+00  0.2083333E-01
    1      -33.957722    -33.957722   1.000000   1.000000
    2      -30.105749    -30.105749   1.000000   1.000000
    3      -30.074594    -30.074594   1.000000   1.000000
    4      -29.968107    -29.968107   1.000000   1.000000
    5      -29.790100    -29.790099   1.000000   1.000000
    6      -29.696368    -29.696368   1.000000   1.000000
    7      -29.554520    -29.554520   1.000000   1.000000
    8      -16.079396    -16.079397   1.000000   1.000000
    9      -15.997795    -15.997795   1.000000   1.000000
   10      -15.985189    -15.985189   1.000000   1.000000
   11       -5.997381     -5.997381   1.000000   1.000000
   12       -4.827284     -4.827284   1.000000   1.000000
   13       -3.867560     -3.867560   1.000000   1.000000
   14       -3.357672     -3.357672   1.000000   1.000000
   15       -2.980239     -2.980239   1.000000   1.000000
   16       -2.771146     -2.771146   1.000000   1.000000
   17       -2.574146     -2.574145   1.000000   1.000000
   18       -2.464852     -2.464852   1.000000   1.000000
   19       -1.411996     -1.411996   1.000000   1.000000
   20       -0.989989     -0.989988   1.000000   1.000000
   21       -0.600557     -0.600556   1.000000   1.000000