  15  15   1   0
  0.5665237E+01  0.4715609E-09  0.4620080E-09  0.4475399E-09  0.5000000E-15
  1.000000000000000E-004
  CAR 
 unknown system                          
     18.22761214    -13.41141836  301     -2.30294629      1.00000000
    -13.411  0.0000E+00  0.0000E+00  0.0000E+00  0.0000E+00
    -13.306  0.0000E+00  0.0000E+00  0.0000E+00  0.0000E+00
    -13.200  0.0000E+00  0.0000E+00  0.0000E+00  0.0000E+00
    -13.095  0.0000E+00  0.0000E+00  0.0000E+00  0.0000E+00
    -12.990  0.0000E+00  0.0000E+00  0.0000E+00  0.0000E+00
    -12.884  0.0000E+00  0.0000E+00  0.0000E+00  0.0000E+00
    -12.779  0.0000E+00  0.0000E+00  0.0000E+00  0.0000E+00
    -12.673  0.0000E+00  0.0000E+00  0.0000E+00  0.0000E+00
    -12.568  0.0000E+00  0.0000E+00  0.0000E+00  0.0000E+00
    -12.462  0.0000E+00  0.0000E+00  0.0000E+00  0.0000E+00
    -12.357  0.0000E+00  0.0000E+00  0.0000E+00  0.0000E+00
    -12.251  0.0000E+00  0.0000E+00  0.0000E+00  0.0000E+00
    -12.146  0.0000E+00  0.0000E+00  0.0000E+00  0.0000E+00
    -12.040  0.0000E+00  0.0000E+00  0.0000E+00  0.0000E+00
    -11.935  0.3039E-03  0.3042E-03  0.3883E-05  0.3889E-05
    -11.829  0.3409E-02  0.3409E-02  0.1895E-03  0.1896E-03
    -11.724  0.7079E-02  0.7080E-02  0.7376E-03  0.7377E-03
    -11.619  0.1382E-01  0.1382E-01  0.1799E-02  0.1799E-02
    -11.513  0.1341E-01  0.1341E-01  0.3310E-02  0.3311E-02
    -11.408  0.8534E-02  0.8534E-02  0.4521E-02  0.4521E-02
    -11.302  0.5982E-02  0.5982E-02  0.5208E-02  0.5208E-02
    -11.197  0.5978E-02  0.5978E-02  0.5838E-02  0.5838E-02
    -11.091  0.6165E-02  0.6166E-02  0.6469E-02  0.6470E-02
    -10.986  0.8728E-02  0.8727E-02  0.7281E-02  0.7282E-02
    -10.880  0.7949E-02  0.7949E-02  0.8139E-02  0.8140E-02
    -10.775  0.1215E-01  0.1215E-01  0.9047E-02  0.9047E-02
    -10.669  0.2748E-03  0.2744E-03  0.1010E-01  0.1010E-01
    -10.564  0.0000E+00  0.0000E+00  0.1010E-01  0.1010E-01
    -10.458  0.0000E+00  0.0000E+00  0.1010E-01  0.1010E-01
    -10.353  0.0000E+00  0.0000E+00  0.1010E-01  0.1010E-01
    -10.248  0.0000E+00  0.0000E+00  0.1010E-01  0.1010E-01
    -10.142  0.0000E+00  0.0000E+00  0.1010E-01  0.1010E-01
    -10.037  0.0000E+00  0.0000E+00  0.1010E-01  0.1010E-01
     -9.931  0.3677E-02  0.3678E-02  0.1037E-01  0.1037E-01
     -9.826  0.7678E-02  0.7679E-02  0.1091E-01  0.1091E-01
     -9.720  0.1737E-01  0.1737E-01  0.1215E-01  0.1215E-01
     -9.615  0.2893E-01  0.2893E-01  0.1460E-01  0.1460E-01
     -9.509  0.2451E-01  0.2453E-01  0.1752E-01  0.1752E-01
     -9.404  0.1491E-01  0.1490E-01  0.1972E-01  0.1972E-01
     -9.298  0.2932E-04  0.2880E-04  0.2020E-01  0.2020E-01
     -9.193  0.1210E-02  0.1213E-02  0.2021E-01  0.2021E-01
     -9.087  0.8365E-02  0.8370E-02  0.2072E-01  0.2072E-01
     -8.982  0.2360E-01  0.2359E-01  0.2284E-01  0.2284E-01
     -8.876  0.2293E-01  0.2292E-01  0.2526E-01  0.2526E-01
     -8.771  0.1601E-01  0.1601E-01  0.2727E-01  0.2727E-01
     -8.666  0.1580E-01  0.1580E-01  0.2883E-01  0.2883E-01
     -8.560  0.1381E-01  0.1381E-01  0.3059E-01  0.3059E-01
     -8.455  0.1360E-01  0.1360E-01  0.3202E-01  0.3202E-01
     -8.349  0.2027E-01  0.2027E-01  0.3374E-01  0.3374E-01
     -8.244  0.2802E-01  0.2802E-01  0.3625E-01  0.3625E-01
     -8.138  0.2868E-01  0.2868E-01  0.3949E-01  0.3949E-01
     -8.033  0.2861E-01  0.2861E-01  0.4241E-01  0.4241E-01
     -7.927  0.2656E-01  0.2656E-01  0.4528E-01  0.4528E-01
     -7.822  0.2975E-01  0.2976E-01  0.4819E-01  0.4819E-01
     -7.716  0.3751E-01  0.3751E-01  0.5206E-01  0.5206E-01
     -7.611  0.1709E-01  0.1709E-01  0.5479E-01  0.5479E-01
     -7.505  0.2074E-01  0.2074E-01  0.5680E-01  0.5680E-01
     -7.400  0.3152E-01  0.3152E-01  0.5944E-01  0.5945E-01
     -7.295  0.3397E-01  0.3395E-01  0.6355E-01  0.6356E-01
     -7.189  0.1263E-01  0.1263E-01  0.6581E-01  0.6581E-01
     -7.084  0.4287E-02  0.4287E-02  0.6671E-01  0.6671E-01
     -6.978  0.2598E-02  0.2598E-02  0.6704E-01  0.6704E-01
     -6.873  0.2598E-02  0.2598E-02  0.6731E-01  0.6731E-01
     -6.767  0.2598E-02  0.2598E-02  0.6758E-01  0.6758E-01
     -6.662  0.2598E-02  0.2598E-02  0.6786E-01  0.6786E-01
     -6.556  0.2598E-02  0.2598E-02  0.6813E-01  0.6813E-01
     -6.451  0.2597E-02  0.2597E-02  0.6841E-01  0.6841E-01
     -6.345  0.2597E-02  0.2597E-02  0.6868E-01  0.6868E-01
     -6.240  0.2597E-02  0.2597E-02  0.6895E-01  0.6895E-01
     -6.134  0.2597E-02  0.2597E-02  0.6923E-01  0.6923E-01
     -6.029  0.2597E-02  0.2597E-02  0.6950E-01  0.6950E-01
     -5.924  0.2597E-02  0.2597E-02  0.6977E-01  0.6977E-01
     -5.818  0.2597E-02  0.2597E-02  0.7005E-01  0.7005E-01
     -5.713  0.2597E-02  0.2597E-02  0.7032E-01  0.7032E-01
     -5.607  0.1792E-02  0.1792E-02  0.7058E-01  0.7058E-01
     -5.502  0.5157E-03  0.5157E-03  0.7069E-01  0.7069E-01
     -5.396  0.1316E-02  0.1316E-02  0.7078E-01  0.7078E-01
     -5.291  0.1686E-02  0.1686E-02  0.7095E-01  0.7095E-01
     -5.185  0.1686E-02  0.1686E-02  0.7113E-01  0.7113E-01
     -5.080  0.1686E-02  0.1686E-02  0.7131E-01  0.7131E-01
     -4.974  0.1686E-02  0.1686E-02  0.7148E-01  0.7148E-01
     -4.869  0.1686E-02  0.1686E-02  0.7166E-01  0.7166E-01
     -4.763  0.1686E-02  0.1686E-02  0.7184E-01  0.7184E-01
     -4.658  0.1686E-02  0.1686E-02  0.7202E-01  0.7202E-01
     -4.552  0.1686E-02  0.1686E-02  0.7219E-01  0.7219E-01
     -4.447  0.1686E-02  0.1686E-02  0.7237E-01  0.7237E-01
     -4.342  0.1686E-02  0.1686E-02  0.7255E-01  0.7255E-01
     -4.236  0.1686E-02  0.1686E-02  0.7273E-01  0.7273E-01
     -4.131  0.1686E-02  0.1686E-02  0.7291E-01  0.7291E-01
     -4.025  0.1686E-02  0.1686E-02  0.7308E-01  0.7308E-01
     -3.920  0.1686E-02  0.1686E-02  0.7326E-01  0.7326E-01
     -3.814  0.1686E-02  0.1686E-02  0.7344E-01  0.7344E-01
     -3.709  0.1686E-02  0.1686E-02  0.7362E-01  0.7362E-01
     -3.603  0.1686E-02  0.1686E-02  0.7380E-01  0.7380E-01
     -3.498  0.1686E-02  0.1686E-02  0.7397E-01  0.7397E-01
     -3.392  0.1686E-02  0.1686E-02  0.7415E-01  0.7415E-01
     -3.287  0.1686E-02  0.1686E-02  0.7433E-01  0.7433E-01
     -3.181  0.1686E-02  0.1686E-02  0.7451E-01  0.7451E-01
     -3.076  0.1686E-02  0.1686E-02  0.7468E-01  0.7468E-01
     -2.971  0.1373E-02  0.1373E-02  0.7484E-01  0.7484E-01
     -2.865  0.1373E-02  0.1373E-02  0.7499E-01  0.7499E-01
     -2.760  0.1373E-02  0.1373E-02  0.7513E-01  0.7513E-01
     -2.654  0.1373E-02  0.1373E-02  0.7528E-01  0.7528E-01
     -2.549  0.1373E-02  0.1373E-02  0.7542E-01  0.7542E-01
     -2.443  0.1373E-02  0.1373E-02  0.7557E-01  0.7557E-01
     -2.338  0.1373E-02  0.1373E-02  0.7571E-01  0.7571E-01
     -2.232  0.1373E-02  0.1373E-02  0.7585E-01  0.7585E-01
     -2.127  0.1373E-02  0.1373E-02  0.7600E-01  0.7600E-01
     -2.021  0.1373E-02  0.1373E-02  0.7614E-01  0.7614E-01
     -1.916  0.1373E-02  0.1373E-02  0.7629E-01  0.7629E-01
     -1.810  0.1373E-02  0.1373E-02  0.7643E-01  0.7643E-01
     -1.705  0.1373E-02  0.1373E-02  0.7658E-01  0.7658E-01
     -1.600  0.1373E-02  0.1373E-02  0.7672E-01  0.7672E-01
     -1.494  0.1373E-02  0.1373E-02  0.7687E-01  0.7687E-01
     -1.389  0.1373E-02  0.1373E-02  0.7701E-01  0.7701E-01
     -1.283  0.1373E-02  0.1373E-02  0.7716E-01  0.7716E-01
     -1.178  0.1373E-02  0.1373E-02  0.7730E-01  0.7730E-01
     -1.072  0.1373E-02  0.1373E-02  0.7745E-01  0.7745E-01
     -0.967  0.1373E-02  0.1373E-02  0.7759E-01  0.7759E-01
     -0.861  0.1373E-02  0.1373E-02  0.7774E-01  0.7774E-01
     -0.756  0.1373E-02  0.1373E-02  0.7788E-01  0.7788E-01
     -0.650  0.1373E-02  0.1373E-02  0.7803E-01  0.7803E-01
     -0.545  0.1373E-02  0.1373E-02  0.7817E-01  0.7817E-01
     -0.439  0.1373E-02  0.1373E-02  0.7832E-01  0.7832E-01
     -0.334  0.1373E-02  0.1373E-02  0.7846E-01  0.7846E-01
     -0.228  0.1373E-02  0.1373E-02  0.7860E-01  0.7860E-01
     -0.123  0.8091E-02  0.8101E-02  0.7879E-01  0.7879E-01
     -0.018  0.0000E+00  0.0000E+00  0.8081E-01  0.8081E-01
      0.088  0.0000E+00  0.0000E+00  0.8081E-01  0.8081E-01
      0.193  0.0000E+00  0.0000E+00  0.8081E-01  0.8081E-01
      0.299  0.0000E+00  0.0000E+00  0.8081E-01  0.8081E-01
      0.404  0.0000E+00  0.0000E+00  0.8081E-01  0.8081E-01
      0.510  0.0000E+00  0.0000E+00  0.8081E-01  0.8081E-01
      0.615  0.0000E+00  0.0000E+00  0.8081E-01  0.8081E-01
      0.721  0.0000E+00  0.0000E+00  0.8081E-01  0.8081E-01
      0.826  0.0000E+00  0.0000E+00  0.8081E-01  0.8081E-01
      0.932  0.0000E+00  0.0000E+00  0.8081E-01  0.8081E-01
      1.037  0.0000E+00  0.0000E+00  0.8081E-01  0.8081E-01
      1.143  0.0000E+00  0.0000E+00  0.8081E-01  0.8081E-01
      1.248  0.0000E+00  0.0000E+00  0.8081E-01  0.8081E-01
      1.353  0.0000E+00  0.0000E+00  0.8081E-01  0.8081E-01
      1.459  0.1269E-04  0.1268E-04  0.8081E-01  0.8081E-01
      1.564  0.8283E-03  0.8287E-03  0.8084E-01  0.8084E-01
      1.670  0.6222E-02  0.6461E-02  0.8103E-01  0.8104E-01
      1.775  0.1731E-01  0.1728E-01  0.8251E-01  0.8251E-01
      1.881  0.1977E-01  0.1977E-01  0.8445E-01  0.8445E-01
      1.986  0.2082E-01  0.2082E-01  0.8660E-01  0.8661E-01
      2.092  0.1697E-01  0.1696E-01  0.8856E-01  0.8857E-01
      2.197  0.1103E-01  0.1099E-01  0.9034E-01  0.9035E-01
      2.303  0.5003E-03  0.4939E-03  0.9091E-01  0.9091E-01
      2.408  0.9730E-02  0.9750E-02  0.9139E-01  0.9139E-01
      2.514  0.2465E-01  0.2470E-01  0.9310E-01  0.9311E-01
      2.619  0.2527E-01  0.2528E-01  0.9608E-01  0.9609E-01
      2.724  0.1390E-01  0.1389E-01  0.9794E-01  0.9795E-01
      2.830  0.1376E-01  0.1378E-01  0.9932E-01  0.9932E-01
      2.935  0.2155E-01  0.2157E-01  0.1011E+00  0.1011E+00
      3.041  0.2493E-01  0.2494E-01  0.1038E+00  0.1038E+00
      3.146  0.2562E-01  0.2562E-01  0.1065E+00  0.1065E+00
      3.252  0.2923E-01  0.2927E-01  0.1092E+00  0.1092E+00
      3.357  0.1884E-01  0.1881E-01  0.1118E+00  0.1118E+00
      3.463  0.9596E-02  0.9580E-02  0.1132E+00  0.1132E+00
      3.568  0.8950E-02  0.8950E-02  0.1141E+00  0.1141E+00
      3.674  0.1369E-01  0.1369E-01  0.1154E+00  0.1154E+00
      3.779  0.1608E-01  0.1608E-01  0.1170E+00  0.1170E+00
      3.885  0.1836E-01  0.1837E-01  0.1188E+00  0.1189E+00
      3.990  0.1911E-01  0.1897E-01  0.1208E+00  0.1209E+00
      4.096  0.1574E-01  0.1573E-01  0.1226E+00  0.1226E+00
      4.201  0.1479E-01  0.1478E-01  0.1242E+00  0.1242E+00
      4.306  0.1495E-01  0.1495E-01  0.1258E+00  0.1258E+00
      4.412  0.1478E-01  0.1478E-01  0.1274E+00  0.1274E+00
      4.517  0.1540E-01  0.1540E-01  0.1290E+00  0.1290E+00
      4.623  0.1597E-01  0.1597E-01  0.1306E+00  0.1306E+00
      4.728  0.1284E-01  0.1282E-01  0.1322E+00  0.1322E+00
      4.834  0.1037E-01  0.1037E-01  0.1334E+00  0.1334E+00
      4.939  0.1159E-01  0.1159E-01  0.1346E+00  0.1346E+00
      5.045  0.1711E-01  0.1712E-01  0.1360E+00  0.1360E+00
      5.150  0.1592E-01  0.1591E-01  0.1378E+00  0.1378E+00
      5.256  0.1527E-01  0.1527E-01  0.1394E+00  0.1394E+00
      5.361  0.1504E-01  0.1504E-01  0.1409E+00  0.1409E+00
      5.467  0.1459E-01  0.1459E-01  0.1425E+00  0.1425E+00
      5.572  0.1066E-01  0.1065E-01  0.1439E+00  0.1439E+00
      5.677  0.9738E-02  0.9741E-02  0.1449E+00  0.1449E+00
      5.783  0.1266E-01  0.1267E-01  0.1461E+00  0.1461E+00
      5.888  0.1698E-01  0.1697E-01  0.1477E+00  0.1477E+00
      5.994  0.2079E-01  0.2078E-01  0.1497E+00  0.1497E+00
      6.099  0.1298E-01  0.1298E-01  0.1515E+00  0.1515E+00
      6.205  0.1074E-01  0.1075E-01  0.1527E+00  0.1527E+00
      6.310  0.1078E-01  0.1078E-01  0.1538E+00  0.1538E+00
      6.416  0.1305E-01  0.1306E-01  0.1550E+00  0.1550E+00
      6.521  0.1428E-01  0.1426E-01  0.1565E+00  0.1565E+00
      6.627  0.1568E-01  0.1568E-01  0.1581E+00  0.1581E+00
      6.732  0.1731E-01  0.1731E-01  0.1598E+00  0.1598E+00
      6.838  0.1937E-01  0.1938E-01  0.1618E+00  0.1618E+00
      6.943  0.1877E-01  0.1877E-01  0.1638E+00  0.1638E+00
      7.048  0.1343E-01  0.1343E-01  0.1654E+00  0.1654E+00
      7.154  0.1391E-01  0.1391E-01  0.1669E+00  0.1669E+00
      7.259  0.1396E-01  0.1396E-01  0.1683E+00  0.1683E+00
      7.365  0.1640E-01  0.1639E-01  0.1699E+00  0.1699E+00
      7.470  0.1811E-01  0.1811E-01  0.1717E+00  0.1717E+00
      7.576  0.2053E-01  0.2053E-01  0.1738E+00  0.1738E+00
      7.681  0.1918E-01  0.1918E-01  0.1759E+00  0.1759E+00
      7.787  0.1742E-01  0.1742E-01  0.1779E+00  0.1779E+00
      7.892  0.1323E-01  0.1322E-01  0.1795E+00  0.1795E+00
      7.998  0.1270E-01  0.1270E-01  0.1808E+00  0.1808E+00
      8.103  0.1645E-01  0.1646E-01  0.1824E+00  0.1824E+00
      8.209  0.2128E-01  0.2130E-01  0.1843E+00  0.1843E+00
      8.314  0.1812E-01  0.1811E-01  0.1865E+00  0.1865E+00
      8.420  0.1574E-01  0.1573E-01  0.1883E+00  0.1883E+00
      8.525  0.9408E-02  0.9397E-02  0.1896E+00  0.1896E+00
      8.630  0.7802E-02  0.7803E-02  0.1905E+00  0.1905E+00
      8.736  0.9202E-02  0.9215E-02  0.1914E+00  0.1914E+00
      8.841  0.1527E-01  0.1529E-01  0.1925E+00  0.1925E+00
      8.947  0.2345E-01  0.2346E-01  0.1946E+00  0.1946E+00
      9.052  0.2186E-01  0.2186E-01  0.1971E+00  0.1971E+00
      9.158  0.1460E-01  0.1458E-01  0.1990E+00  0.1990E+00
      9.263  0.1106E-01  0.1106E-01  0.2003E+00  0.2003E+00
      9.369  0.1040E-01  0.1039E-01  0.2015E+00  0.2015E+00
      9.474  0.1373E-01  0.1374E-01  0.2026E+00  0.2026E+00
      9.580  0.1628E-01  0.1626E-01  0.2043E+00  0.2043E+00
      9.685  0.1738E-01  0.1738E-01  0.2060E+00  0.2060E+00
      9.791  0.1736E-01  0.1735E-01  0.2079E+00  0.2079E+00
      9.896  0.1511E-01  0.1511E-01  0.2096E+00  0.2096E+00
     10.001  0.1672E-01  0.1671E-01  0.2113E+00  0.2113E+00
     10.107  0.1412E-01  0.1414E-01  0.2131E+00  0.2131E+00
     10.212  0.1686E-01  0.1684E-01  0.2146E+00  0.2146E+00
     10.318  0.1634E-01  0.1634E-01  0.2165E+00  0.2165E+00
     10.423  0.1497E-01  0.1500E-01  0.2181E+00  0.2181E+00
     10.529  0.1800E-01  0.1802E-01  0.2198E+00  0.2198E+00
     10.634  0.1772E-01  0.1771E-01  0.2217E+00  0.2217E+00
     10.740  0.1669E-01  0.1670E-01  0.2235E+00  0.2235E+00
     10.845  0.1568E-01  0.1568E-01  0.2253E+00  0.2253E+00
     10.951  0.1616E-01  0.1617E-01  0.2269E+00  0.2269E+00
     11.056  0.1877E-01  0.1871E-01  0.2287E+00  0.2287E+00
     11.162  0.1802E-01  0.1802E-01  0.2307E+00  0.2307E+00
     11.267  0.1570E-01  0.1570E-01  0.2324E+00  0.2324E+00
     11.372  0.1964E-01  0.1964E-01  0.2343E+00  0.2343E+00
     11.478  0.1926E-01  0.1926E-01  0.2363E+00  0.2363E+00
     11.583  0.1735E-01  0.1736E-01  0.2383E+00  0.2383E+00
     11.689  0.1639E-01  0.1640E-01  0.2401E+00  0.2401E+00
     11.794  0.1864E-01  0.1866E-01  0.2419E+00  0.2419E+00
     11.900  0.2291E-01  0.2288E-01  0.2442E+00  0.2442E+00
     12.005  0.1415E-01  0.1414E-01  0.2462E+00  0.2462E+00
     12.111  0.1346E-01  0.1347E-01  0.2476E+00  0.2476E+00
     12.216  0.1541E-01  0.1542E-01  0.2491E+00  0.2491E+00
     12.322  0.1884E-01  0.1882E-01  0.2509E+00  0.2509E+00
     12.427  0.2410E-01  0.2412E-01  0.2531E+00  0.2531E+00
     12.533  0.1838E-01  0.1837E-01  0.2555E+00  0.2555E+00
     12.638  0.1419E-01  0.1418E-01  0.2572E+00  0.2572E+00
     12.744  0.1653E-01  0.1658E-01  0.2586E+00  0.2586E+00
     12.849  0.1807E-01  0.1807E-01  0.2604E+00  0.2604E+00
     12.954  0.1967E-01  0.1968E-01  0.2624E+00  0.2624E+00
     13.060  0.1968E-01  0.1968E-01  0.2645E+00  0.2645E+00
     13.165  0.1744E-01  0.1744E-01  0.2665E+00  0.2665E+00
     13.271  0.1609E-01  0.1609E-01  0.2683E+00  0.2683E+00
     13.376  0.1599E-01  0.1599E-01  0.2700E+00  0.2700E+00
     13.482  0.1762E-01  0.1761E-01  0.2717E+00  0.2717E+00
     13.587  0.2123E-01  0.2125E-01  0.2739E+00  0.2739E+00
     13.693  0.1859E-01  0.1858E-01  0.2759E+00  0.2759E+00
     13.798  0.1693E-01  0.1693E-01  0.2778E+00  0.2778E+00
     13.904  0.1588E-01  0.1588E-01  0.2795E+00  0.2795E+00
     14.009  0.2023E-01  0.2025E-01  0.2814E+00  0.2814E+00
     14.115  0.2060E-01  0.2058E-01  0.2837E+00  0.2837E+00
     14.220  0.1691E-01  0.1691E-01  0.2856E+00  0.2856E+00
     14.325  0.1774E-01  0.1774E-01  0.2874E+00  0.2874E+00
     14.431  0.1977E-01  0.1978E-01  0.2894E+00  0.2894E+00
     14.536  0.2028E-01  0.2028E-01  0.2915E+00  0.2915E+00
     14.642  0.2170E-01  0.2170E-01  0.2937E+00  0.2937E+00
     14.747  0.2030E-01  0.2030E-01  0.2960E+00  0.2960E+00
     14.853  0.2011E-01  0.2011E-01  0.2981E+00  0.2981E+00
     14.958  0.1999E-01  0.1999E-01  0.3002E+00  0.3002E+00
     15.064  0.2073E-01  0.2072E-01  0.3023E+00  0.3024E+00
     15.169  0.1969E-01  0.1968E-01  0.3045E+00  0.3045E+00
     15.275  0.1767E-01  0.1765E-01  0.3064E+00  0.3064E+00
     15.380  0.1933E-01  0.1932E-01  0.3084E+00  0.3085E+00
     15.486  0.1772E-01  0.1773E-01  0.3104E+00  0.3104E+00
     15.591  0.1651E-01  0.1652E-01  0.3122E+00  0.3122E+00
     15.696  0.1797E-01  0.1797E-01  0.3140E+00  0.3140E+00
     15.802  0.1841E-01  0.1840E-01  0.3159E+00  0.3160E+00
     15.907  0.1437E-01  0.1437E-01  0.3177E+00  0.3177E+00
     16.013  0.1041E-01  0.1041E-01  0.3190E+00  0.3190E+00
     16.118  0.1008E-01  0.1010E-01  0.3200E+00  0.3200E+00
     16.224  0.9671E-02  0.9668E-02  0.3212E+00  0.3212E+00
     16.329  0.7151E-02  0.7146E-02  0.3220E+00  0.3220E+00
     16.435  0.4492E-02  0.4486E-02  0.3226E+00  0.3226E+00
     16.540  0.2401E-02  0.2395E-02  0.3231E+00  0.3231E+00
     16.646  0.4614E-03  0.4590E-03  0.3232E+00  0.3232E+00
     16.751  0.3288E-04  0.3216E-04  0.3232E+00  0.3232E+00
     16.857  0.0000E+00  0.0000E+00  0.3232E+00  0.3232E+00
     16.962  0.0000E+00  0.0000E+00  0.3232E+00  0.3232E+00
     17.068  0.0000E+00  0.0000E+00  0.3232E+00  0.3232E+00
     17.173  0.0000E+00  0.0000E+00  0.3232E+00  0.3232E+00
     17.278  0.0000E+00  0.0000E+00  0.3232E+00  0.3232E+00
     17.384  0.0000E+00  0.0000E+00  0.3232E+00  0.3232E+00
     17.489  0.0000E+00  0.0000E+00  0.3232E+00  0.3232E+00
     17.595  0.0000E+00  0.0000E+00  0.3232E+00  0.3232E+00
     17.700  0.0000E+00  0.0000E+00  0.3232E+00  0.3232E+00
     17.806  0.0000E+00  0.0000E+00  0.3232E+00  0.3232E+00
     17.911  0.0000E+00  0.0000E+00  0.3232E+00  0.3232E+00
     18.017  0.0000E+00  0.0000E+00  0.3232E+00  0.3232E+00
     18.122  0.0000E+00  0.0000E+00  0.3232E+00  0.3232E+00
     18.228  0.0000E+00  0.0000E+00  0.3232E+00  0.3232E+00
     18.22761214    -13.41141836  301     -2.30294629      1.00000000
    -13.411  0.0000E+00  0.0000E+00  0.0000E+00  0.0000E+00  0.0000E+00  0.0000E+00  0.0000E+00  0.0000E+00  0.0000E+00  0.0000E+00  0.0000E+00  0.0000E+00  0.0000E+00  0.0000E+00  0.0000E+00  0.0000E+00  0.0000E+00  0.0000E+00
    -13.306  0.0000E+00  0.0000E+00  0.0000E+00  0.0000E+00  0.0000E+00  0.0000E+00  0.0000E+00  0.0000E+00  0.0000E+00  0.0000E+00  0.0000E+00  0.0000E+00  0.0000E+00  0.0000E+00  0.0000E+00  0.0000E+00  0.0000E+00  0.0000E+00
    -13.200  0.0000E+00  0.0000E+00  0.0000E+00  0.0000E+00  0.0000E+00  0.0000E+00  0.0000E+00  0.0000E+00  0.0000E+00  0.0000E+00  0.0000E+00  0.0000E+00  0.0000E+00  0.0000E+00  0.0000E+00  0.0000E+00  0.0000E+00  0.0000E+00
    -13.095  0.0000E+00  0.0000E+00  0.0000E+00  0.0000E+00  0.0000E+00  0.0000E+00  0.0000E+00  0.0000E+00  0.0000E+00  0.0000E+00  0.0000E+00  0.0000E+00  0.0000E+00  0.0000E+00  0.0000E+00  0.0000E+00  0.0000E+00  0.0000E+00
    -12.990  0.0000E+00  0.0000E+00  0.0000E+00  0.0000E+00  0.0000E+00  0.0000E+00  0.0000E+00  0.0000E+00  0.0000E+00  0.0000E+00  0.0000E+00  0.0000E+00  0.0000E+00  0.0000E+00  0.0000E+00  0.0000E+00  0.0000E+00  0.0000E+00
    -12.884  0.0000E+00  0.0000E+00  0.0000E+00  0.0000E+00  0.0000E+00  0.0000E+00  0.0000E+00  0.0000E+00  0.0000E+00  0.0000E+00  0.0000E+00  0.0000E+00  0.0000E+00  0.0000E+00  0.0000E+00  0.0000E+00  0.0000E+00  0.0000E+00
    -12.779  0.0000E+00  0.0000E+00  0.0000E+00  0.0000E+00  0.0000E+00  0.0000E+00  0.0000E+00  0.0000E+00  0.0000E+00  0.0000E+00  0.0000E+00  0.0000E+00  0.0000E+00  0.0000E+00  0.0000E+00  0.0000E+00  0.0000E+00  0.0000E+00
    -12.673  0.0000E+00  0.0000E+00  0.0000E+00  0.0000E+00  0.0000E+00  0.0000E+00  0.0000E+00  0.0000E+00  0.0000E+00  0.0000E+00  0.0000E+00  0.0000E+00  0.0000E+00  0.0000E+00  0.0000E+00  0.0000E+00  0.0000E+00  0.0000E+00
    -12.568  0.0000E+00  0.0000E+00  0.0000E+00  0.0000E+00  0.0000E+00  0.0000E+00  0.0000E+00  0.0000E+00  0.0000E+00  0.0000E+00  0.0000E+00  0.0000E+00  0.0000E+00  0.0000E+00  0.0000E+00  0.0000E+00  0.0000E+00  0.0000E+00
    -12.462  0.0000E+00  0.0000E+00  0.0000E+00  0.0000E+00  0.0000E+00  0.0000E+00  0.0000E+00  0.0000E+00  0.0000E+00  0.0000E+00  0.0000E+00  0.0000E+00  0.0000E+00  0.0000E+00  0.0000E+00  0.0000E+00  0.0000E+00  0.0000E+00
    -12.357  0.0000E+00  0.0000E+00  0.0000E+00  0.0000E+00  0.0000E+00  0.0000E+00  0.0000E+00  0.0000E+00  0.0000E+00  0.0000E+00  0.0000E+00  0.0000E+00  0.0000E+00  0.0000E+00  0.0000E+00  0.0000E+00  0.0000E+00  0.0000E+00
    -12.251  0.0000E+00  0.0000E+00  0.0000E+00  0.0000E+00  0.0000E+00  0.0000E+00  0.0000E+00  0.0000E+00  0.0000E+00  0.0000E+00  0.0000E+00  0.0000E+00  0.0000E+00  0.0000E+00  0.0000E+00  0.0000E+00  0.0000E+00  0.0000E+00
    -12.146  0.0000E+00  0.0000E+00  0.0000E+00  0.0000E+00  0.0000E+00  0.0000E+00  0.0000E+00  0.0000E+00  0.0000E+00  0.0000E+00  0.0000E+00  0.0000E+00  0.0000E+00  0.0000E+00  0.0000E+00  0.0000E+00  0.0000E+00  0.0000E+00
    -12.040  0.0000E+00  0.0000E+00  0.0000E+00  0.0000E+00  0.0000E+00  0.0000E+00  0.0000E+00  0.0000E+00  0.0000E+00  0.0000E+00  0.0000E+00  0.0000E+00  0.0000E+00  0.0000E+00  0.0000E+00  0.0000E+00  0.0000E+00  0.0000E+00
    -11.935  0.2156E-03  0.2159E-03  0.4041E-05  0.4046E-05  0.5690E-06  0.5695E-06  0.2230E-05  0.2232E-05  0.0000E+00  0.0000E+00  0.0000E+00  0.0000E+00  0.0000E+00  0.0000E+00  0.0000E+00  0.0000E+00  0.0000E+00  0.0000E+00
    -11.829  0.2210E-02  0.2210E-02  0.4195E-04  0.4196E-04  0.6268E-05  0.6267E-05  0.2300E-04  0.2300E-04  0.0000E+00  0.0000E+00  0.0000E+00  0.0000E+00  0.0000E+00  0.0000E+00  0.0000E+00  0.0000E+00  0.0000E+00  0.0000E+00
    -11.724  0.3917E-02  0.3917E-02  0.7620E-04  0.7621E-04  0.1238E-04  0.1238E-04  0.4103E-04  0.4103E-04  0.0000E+00  0.0000E+00  0.0000E+00  0.0000E+00  0.0000E+00  0.0000E+00  0.0000E+00  0.0000E+00  0.0000E+00  0.0000E+00
    -11.619  0.4859E-02  0.4859E-02  0.1032E-03  0.1033E-03  0.2001E-04  0.2001E-04  0.5069E-04  0.5069E-04  0.0000E+00  0.0000E+00  0.0000E+00  0.0000E+00  0.0000E+00  0.0000E+00  0.0000E+00  0.0000E+00  0.0000E+00  0.0000E+00
    -11.513  0.4245E-02  0.4245E-02  0.9273E-04  0.9274E-04  0.1789E-04  0.1789E-04  0.4547E-04  0.4547E-04  0.0000E+00  0.0000E+00  0.0000E+00  0.0000E+00  0.0000E+00  0.0000E+00  0.0000E+00  0.0000E+00  0.0000E+00  0.0000E+00
    -11.408  0.3024E-02  0.3024E-02  0.6570E-04  0.6571E-04  0.1148E-04  0.1147E-04  0.3501E-04  0.3502E-04  0.0000E+00  0.0000E+00  0.0000E+00  0.0000E+00  0.0000E+00  0.0000E+00  0.0000E+00  0.0000E+00  0.0000E+00  0.0000E+00
    -11.302  0.2486E-02  0.2486E-02  0.5426E-04  0.5426E-04  0.9389E-05  0.9389E-05  0.3127E-04  0.3127E-04  0.0000E+00  0.0000E+00  0.0000E+00  0.0000E+00  0.0000E+00  0.0000E+00  0.0000E+00  0.0000E+00  0.0000E+00  0.0000E+00
    -11.197  0.2513E-02  0.2513E-02  0.5521E-04  0.5522E-04  0.9484E-05  0.9484E-05  0.3234E-04  0.3234E-04  0.0000E+00  0.0000E+00  0.0000E+00  0.0000E+00  0.0000E+00  0.0000E+00  0.0000E+00  0.0000E+00  0.0000E+00  0.0000E+00
    -11.091  0.2701E-02  0.2702E-02  0.5957E-04  0.5959E-04  0.1005E-04  0.1005E-04  0.3587E-04  0.3588E-04  0.0000E+00  0.0000E+00  0.0000E+00  0.0000E+00  0.0000E+00  0.0000E+00  0.0000E+00  0.0000E+00  0.0000E+00  0.0000E+00
    -10.986  0.4687E-02  0.4687E-02  0.1028E-03  0.1028E-03  0.1626E-04  0.1625E-04  0.6689E-04  0.6689E-04  0.0000E+00  0.0000E+00  0.0000E+00  0.0000E+00  0.0000E+00  0.0000E+00  0.0000E+00  0.0000E+00  0.0000E+00  0.0000E+00
    -10.880  0.3553E-02  0.3553E-02  0.8027E-04  0.8027E-04  0.1356E-04  0.1356E-04  0.4955E-04  0.4955E-04  0.0000E+00  0.0000E+00  0.0000E+00  0.0000E+00  0.0000E+00  0.0000E+00  0.0000E+00  0.0000E+00  0.0000E+00  0.0000E+00
    -10.775  0.3774E-02  0.3774E-02  0.9134E-04  0.9135E-04  0.1878E-04  0.1878E-04  0.5245E-04  0.5246E-04  0.0000E+00  0.0000E+00  0.0000E+00  0.0000E+00  0.0000E+00  0.0000E+00  0.0000E+00  0.0000E+00  0.0000E+00  0.0000E+00
    -10.669  0.6713E-04  0.6704E-04  0.1523E-05  0.1521E-05  0.2459E-06  0.2456E-06  0.8570E-06  0.8558E-06  0.0000E+00  0.0000E+00  0.0000E+00  0.0000E+00  0.0000E+00  0.0000E+00  0.0000E+00  0.0000E+00  0.0000E+00  0.0000E+00
    -10.564  0.0000E+00  0.0000E+00  0.0000E+00  0.0000E+00  0.0000E+00  0.0000E+00  0.0000E+00  0.0000E+00  0.0000E+00  0.0000E+00  0.0000E+00  0.0000E+00  0.0000E+00  0.0000E+00  0.0000E+00  0.0000E+00  0.0000E+00  0.0000E+00
    -10.458  0.0000E+00  0.0000E+00  0.0000E+00  0.0000E+00  0.0000E+00  0.0000E+00  0.0000E+00  0.0000E+00  0.0000E+00  0.0000E+00  0.0000E+00  0.0000E+00  0.0000E+00  0.0000E+00  0.0000E+00  0.0000E+00  0.0000E+00  0.0000E+00
    -10.353  0.0000E+00  0.0000E+00  0.0000E+00  0.0000E+00  0.0000E+00  0.0000E+00  0.0000E+00  0.0000E+00  0.0000E+00  0.0000E+00  0.0000E+00  0.0000E+00  0.0000E+00  0.0000E+00  0.0000E+00  0.0000E+00  0.0000E+00  0.0000E+00
    -10.248  0.0000E+00  0.0000E+00  0.0000E+00  0.0000E+00  0.0000E+00  0.0000E+00  0.0000E+00  0.0000E+00  0.0000E+00  0.0000E+00  0.0000E+00  0.0000E+00  0.0000E+00  0.0000E+00  0.0000E+00  0.0000E+00  0.0000E+00  0.0000E+00
    -10.142  0.0000E+00  0.0000E+00  0.0000E+00  0.0000E+00  0.0000E+00  0.0000E+00  0.0000E+00  0.0000E+00  0.0000E+00  0.0000E+00  0.0000E+00  0.0000E+00  0.0000E+00  0.0000E+00  0.0000E+00  0.0000E+00  0.0000E+00  0.0000E+00
    -10.037  0.0000E+00  0.0000E+00  0.0000E+00  0.0000E+00  0.0000E+00  0.0000E+00  0.0000E+00  0.0000E+00  0.0000E+00  0.0000E+00  0.0000E+00  0.0000E+00  0.0000E+00  0.0000E+00  0.0000E+00  0.0000E+00  0.0000E+00  0.0000E+00
     -9.931  0.4480E-02  0.4481E-02  0.1045E-03  0.1045E-03  0.1683E-04  0.1683E-04  0.6999E-04  0.7000E-04  0.0000E+00  0.0000E+00  0.0000E+00  0.0000E+00  0.0000E+00  0.0000E+00  0.0000E+00  0.0000E+00  0.0000E+00  0.0000E+00
     -9.826  0.1564E-01  0.1565E-01  0.3460E-03  0.3461E-03  0.6750E-04  0.6753E-04  0.2099E-03  0.2100E-03  0.0000E+00  0.0000E+00  0.0000E+00  0.0000E+00  0.0000E+00  0.0000E+00  0.0000E+00  0.0000E+00  0.0000E+00  0.0000E+00
     -9.720  0.4339E-01  0.4340E-01  0.9642E-03  0.9644E-03  0.1978E-03  0.1979E-03  0.5572E-03  0.5573E-03  0.0000E+00  0.0000E+00  0.0000E+00  0.0000E+00  0.0000E+00  0.0000E+00  0.0000E+00  0.0000E+00  0.0000E+00  0.0000E+00
     -9.615  0.6798E-01  0.6800E-01  0.1600E-02  0.1600E-02  0.3541E-03  0.3542E-03  0.8575E-03  0.8577E-03  0.0000E+00  0.0000E+00  0.0000E+00  0.0000E+00  0.0000E+00  0.0000E+00  0.0000E+00  0.0000E+00  0.0000E+00  0.0000E+00
     -9.509  0.8528E-01  0.8538E-01  0.2030E-02  0.2033E-02  0.4374E-03  0.4378E-03  0.1065E-02  0.1067E-02  0.0000E+00  0.0000E+00  0.0000E+00  0.0000E+00  0.0000E+00  0.0000E+00  0.0000E+00  0.0000E+00  0.0000E+00  0.0000E+00
     -9.404  0.6381E-01  0.6379E-01  0.1486E-02  0.1485E-02  0.2764E-03  0.2763E-03  0.7924E-03  0.7921E-03  0.0000E+00  0.0000E+00  0.0000E+00  0.0000E+00  0.0000E+00  0.0000E+00  0.0000E+00  0.0000E+00  0.0000E+00  0.0000E+00
     -9.298  0.1347E-03  0.1323E-03  0.3086E-05  0.3031E-05  0.5162E-06  0.5070E-06  0.1631E-05  0.1601E-05  0.0000E+00  0.0000E+00  0.0000E+00  0.0000E+00  0.0000E+00  0.0000E+00  0.0000E+00  0.0000E+00  0.0000E+00  0.0000E+00
     -9.193  0.6141E-02  0.6157E-02  0.1358E-03  0.1361E-03  0.3042E-04  0.3049E-04  0.7448E-04  0.7466E-04  0.0000E+00  0.0000E+00  0.0000E+00  0.0000E+00  0.0000E+00  0.0000E+00  0.0000E+00  0.0000E+00  0.0000E+00  0.0000E+00
     -9.087  0.4187E-01  0.4190E-01  0.1021E-02  0.1022E-02  0.2214E-03  0.2215E-03  0.5532E-03  0.5535E-03  0.0000E+00  0.0000E+00  0.0000E+00  0.0000E+00  0.0000E+00  0.0000E+00  0.0000E+00  0.0000E+00  0.0000E+00  0.0000E+00
     -8.982  0.1167E+00  0.1166E+00  0.3031E-02  0.3031E-02  0.6196E-03  0.6196E-03  0.1650E-02  0.1649E-02  0.0000E+00  0.0000E+00  0.0000E+00  0.0000E+00  0.0000E+00  0.0000E+00  0.0000E+00  0.0000E+00  0.0000E+00  0.0000E+00
     -8.876  0.1262E+00  0.1262E+00  0.3179E-02  0.3179E-02  0.6391E-03  0.6390E-03  0.1671E-02  0.1670E-02  0.0000E+00  0.0000E+00  0.0000E+00  0.0000E+00  0.0000E+00  0.0000E+00  0.0000E+00  0.0000E+00  0.0000E+00  0.0000E+00
     -8.771  0.9184E-01  0.9183E-01  0.2294E-02  0.2294E-02  0.4394E-03  0.4394E-03  0.1191E-02  0.1191E-02  0.0000E+00  0.0000E+00  0.0000E+00  0.0000E+00  0.0000E+00  0.0000E+00  0.0000E+00  0.0000E+00  0.0000E+00  0.0000E+00
     -8.666  0.9514E-01  0.9517E-01  0.2461E-02  0.2462E-02  0.4635E-03  0.4636E-03  0.1231E-02  0.1231E-02  0.0000E+00  0.0000E+00  0.0000E+00  0.0000E+00  0.0000E+00  0.0000E+00  0.0000E+00  0.0000E+00  0.0000E+00  0.0000E+00
     -8.560  0.9033E-01  0.9032E-01  0.2402E-02  0.2402E-02  0.4557E-03  0.4556E-03  0.1224E-02  0.1224E-02  0.0000E+00  0.0000E+00  0.0000E+00  0.0000E+00  0.0000E+00  0.0000E+00  0.0000E+00  0.0000E+00  0.0000E+00  0.0000E+00
     -8.455  0.8886E-01  0.8886E-01  0.2380E-02  0.2380E-02  0.4449E-03  0.4449E-03  0.1235E-02  0.1235E-02  0.0000E+00  0.0000E+00  0.0000E+00  0.0000E+00  0.0000E+00  0.0000E+00  0.0000E+00  0.0000E+00  0.0000E+00  0.0000E+00
     -8.349  0.1217E+00  0.1217E+00  0.3240E-02  0.3241E-02  0.5850E-03  0.5851E-03  0.1725E-02  0.1725E-02  0.0000E+00  0.0000E+00  0.0000E+00  0.0000E+00  0.0000E+00  0.0000E+00  0.0000E+00  0.0000E+00  0.0000E+00  0.0000E+00
     -8.244  0.1624E+00  0.1625E+00  0.4213E-02  0.4214E-02  0.7327E-03  0.7329E-03  0.2194E-02  0.2195E-02  0.0000E+00  0.0000E+00  0.0000E+00  0.0000E+00  0.0000E+00  0.0000E+00  0.0000E+00  0.0000E+00  0.0000E+00  0.0000E+00
     -8.138  0.1563E+00  0.1562E+00  0.3917E-02  0.3916E-02  0.6638E-03  0.6637E-03  0.2001E-02  0.2001E-02  0.0000E+00  0.0000E+00  0.0000E+00  0.0000E+00  0.0000E+00  0.0000E+00  0.0000E+00  0.0000E+00  0.0000E+00  0.0000E+00