 running on   16 total cores
 distrk:  each k-point on   16 cores,    1 groups
 distr:  one band on    1 cores,   16 groups
 using from now: INCAR     
 vasp.5.4.4.18Apr17-6-g9f103f2a35 (build Nov 01 2019 12:17:22) complex          
  
 POSCAR found type information on POSCAR  H 
 POSCAR found :  1 types and      15 ions

 ----------------------------------------------------------------------------- 
|                                                                             |
|           W    W    AA    RRRRR   N    N  II  N    N   GGGG   !!!           |
|           W    W   A  A   R    R  NN   N  II  NN   N  G    G  !!!           |
|           W    W  A    A  R    R  N N  N  II  N N  N  G       !!!           |
|           W WW W  AAAAAA  RRRRR   N  N N  II  N  N N  G  GGG   !            |
|           WW  WW  A    A  R   R   N   NN  II  N   NN  G    G                |
|           W    W  A    A  R    R  N    N  II  N    N   GGGG   !!!           |
|                                                                             |
|      For optimal performance we recommend to set                            |
|        NCORE= 4 - approx SQRT( number of cores)                             |
|      NCORE specifies how many cores store one orbital (NPAR=cpu/NCORE).     |
|      This setting can  greatly improve the performance of VASP for DFT.     |
|      The default,   NCORE=1            might be grossly inefficient         |
|      on modern multi-core architectures or massively parallel machines.     |
|      Do your own testing !!!!                                               |
|      Unfortunately you need to use the default for GW and RPA calculations. |
|      (for HF NCORE is supported but not extensively tested yet)             |
|                                                                             |
 ----------------------------------------------------------------------------- 

 LDA part: xc-table for Pade appr. of Perdew
 POSCAR, INCAR and KPOINTS ok, starting setup
 FFT: planning ...
 WAVECAR not read
 entering main loop
       N       E                     dE             d eps       ncg     rms          rms(c)
DAV:   1    -0.113542072539E+02   -0.11354E+02   -0.62334E+03  8064   0.393E+02
DAV:   2    -0.427573981559E+02   -0.31403E+02   -0.30493E+02 10880   0.744E+01
DAV:   3    -0.436586824178E+02   -0.90128E+00   -0.90073E+00  9872   0.102E+01
DAV:   4    -0.436598800475E+02   -0.11976E-02   -0.11978E-02 10448   0.461E-01
DAV:   5    -0.436598823516E+02   -0.23041E-05   -0.23043E-05  8128   0.208E-02    0.164E+01
RMM:   6    -0.481224730444E+02   -0.44626E+01   -0.99486E-01  8064   0.265E+00    0.647E+00
RMM:   7    -0.477898441181E+02    0.33263E+00   -0.62067E-01  8064   0.259E+00    0.310E+00
RMM:   8    -0.477515872077E+02    0.38257E-01   -0.23190E-01  8064   0.160E+00    0.795E-01
RMM:   9    -0.477646970756E+02   -0.13110E-01   -0.14124E-02  8064   0.459E-01    0.355E-01
RMM:  10    -0.477673855109E+02   -0.26884E-02   -0.80976E-04  7319   0.112E-01    0.166E-01
RMM:  11    -0.477693542001E+02   -0.19687E-02   -0.14064E-03  8006   0.146E-01    0.434E-02
RMM:  12    -0.477695082906E+02   -0.15409E-03   -0.11345E-04  5532   0.437E-02
   1 F= -.47769508E+02 E0= -.47769508E+02  d E =-.477695E+02  mag=    -0.0004
 curvature:   0.00 expect dE= 0.000E+00 dE for cont linesearch  0.000E+00
 trial: gam= 0.00000 g(F)=  0.392E-02 g(S)=  0.115E+00 ort = 0.000E+00 (trialstep = 0.100E+01)
 search vector abs. value=  0.119E+00
 bond charge predicted
       N       E                     dE             d eps       ncg     rms          rms(c)
DAV:   1    -0.478802430403E+02   -0.11089E+00   -0.30669E-01 10768   0.204E+00    0.433E-01
RMM:   2    -0.478781830814E+02    0.20600E-02   -0.37024E-03  8050   0.218E-01    0.249E-01
RMM:   3    -0.478771348391E+02    0.10482E-02   -0.88899E-04  5904   0.859E-02    0.141E-02
RMM:   4    -0.478771406286E+02   -0.57895E-05   -0.16848E-05  3903   0.173E-02
   2 F= -.47877141E+02 E0= -.47877141E+02  d E =-.107632E+00  mag=     0.0000
 ZBRENT: can't locate minimum, use default step
 trial-energy change:   -0.107632  1 .order   -0.108318   -0.118869   -0.097766
 step:   4.0000(harm=  5.6330)  dis= 0.01626  next Energy=   -48.104301 (dE=-0.335E+00)
 bond charge predicted
       N       E                     dE             d eps       ncg     rms          rms(c)
DAV:   1    -0.481034348072E+02   -0.22630E+00   -0.26379E+00  9600   0.580E+00    0.125E+00
RMM:   2    -0.480853707080E+02    0.18064E-01   -0.34395E-02  8064   0.641E-01    0.721E-01
RMM:   3    -0.480760864906E+02    0.92842E-02   -0.82761E-03  8064   0.251E-01    0.417E-02
RMM:   4    -0.480761151523E+02   -0.28662E-04   -0.51775E-05  4681   0.295E-02
   3 F= -.48076115E+02 E0= -.48076115E+02  d E =-.306607E+00  mag=     0.0000
 curvature:  -2.47 expect dE=-0.701E+00 dE for cont linesearch -0.325E-01
 ZBRENT: increasing intervall
 opt :  10.0000  next Energy=   -47.964369 (dE=-0.195E+00)
 bond charge predicted
       N       E                     dE             d eps       ncg     rms          rms(c)
DAV:   1    -0.481143398694E+02   -0.38253E-01   -0.96567E+00  9856   0.105E+01    0.233E+00
RMM:   2    -0.480463438301E+02    0.67996E-01   -0.14823E-01  8064   0.124E+00    0.134E+00
RMM:   3    -0.480106862019E+02    0.35658E-01   -0.34952E-02  8064   0.488E-01    0.882E-02
RMM:   4    -0.480108144032E+02   -0.12820E-03   -0.23194E-04  5685   0.607E-02
   4 F= -.48010814E+02 E0= -.48010814E+02  d E =-.241306E+00  mag=     0.0000
 curvature:   8.48 expect dE= 0.107E+02 dE for cont linesearch  0.249E+00
 ZBRENT: bracketing found
 ZBRENT: interpolating
 opt :   6.4060  next Energy=   -48.123720 (dE=-0.354E+00)
 bond charge predicted
       N       E                     dE             d eps       ncg     rms          rms(c)
DAV:   1    -0.481578330335E+02   -0.14715E+00   -0.36962E+00  9744   0.693E+00    0.149E+00
RMM:   2    -0.481300601818E+02    0.27773E-01   -0.43663E-02  8064   0.709E-01    0.847E-01
RMM:   3    -0.481172233598E+02    0.12837E-01   -0.12037E-02  8064   0.294E-01    0.493E-02
RMM:   4    -0.481172301369E+02   -0.67771E-05   -0.14999E-04  6439   0.522E-02
   5 F= -.48117230E+02 E0= -.48117230E+02  d E =-.347722E+00  mag=     0.0000
 curvature:  -1.62 expect dE=-0.984E+00 dE for cont linesearch -0.147E-03
 trial: gam= 5.13642 g(F)=  0.543E+00 g(S)=  0.647E-01 ort =-0.328E-02 (trialstep = 0.667E-01)
 search vector abs. value=  0.371E+01
 bond charge predicted
       N       E                     dE             d eps       ncg     rms          rms(c)
DAV:   1    -0.481555816441E+02   -0.38358E-01   -0.11329E-01 11024   0.109E+00    0.222E-01
RMM:   2    -0.481549909182E+02    0.59073E-03   -0.18950E-03  7896   0.156E-01
   6 F= -.48154991E+02 E0= -.48154991E+02  d E =-.377608E-01  mag=    -0.0000
 ZBRENT: can't locate minimum, use default step
 trial-energy change:   -0.037761  1 .order   -0.038375   -0.039375   -0.037375
 step:   0.2668(harm=  1.3130)  dis= 0.02175  next Energy=   -48.504842 (dE=-0.388E+00)
 bond charge predicted
       N       E                     dE             d eps       ncg     rms          rms(c)
DAV:   1    -0.482481782038E+02   -0.92597E-01   -0.98442E-01 10272   0.321E+00    0.673E-01
RMM:   2    -0.482428113596E+02    0.53668E-02   -0.15916E-02  8064   0.439E-01    0.393E-01
RMM:   3    -0.482404075582E+02    0.24038E-02   -0.32954E-03  8064   0.167E-01    0.368E-02
RMM:   4    -0.482400529289E+02    0.35463E-03   -0.67777E-04  7321   0.110E-01
   7 F= -.48240053E+02 E0= -.48240053E+02  d E =-.122823E+00  mag=    -0.0000
 curvature:  -1.22 expect dE=-0.236E+00 dE for cont linesearch -0.333E-01
 ZBRENT: increasing intervall
 opt :   0.6669  next Energy=   -48.270775 (dE=-0.154E+00)
 bond charge predicted
       N       E                     dE             d eps       ncg     rms          rms(c)
DAV:   1    -0.483035974572E+02   -0.63190E-01   -0.41409E+00 10352   0.649E+00    0.138E+00
RMM:   2    -0.482815165111E+02    0.22081E-01   -0.76747E-02  8064   0.930E-01    0.807E-01
RMM:   3    -0.482690789125E+02    0.12438E-01   -0.13022E-02  8064   0.283E-01    0.529E-02
RMM:   4    -0.482690634419E+02    0.15471E-04   -0.12485E-04  6551   0.465E-02
   8 F= -.48269063E+02 E0= -.48269063E+02  d E =-.151833E+00  mag=    -0.0000
 curvature:  -1.12 expect dE=-0.213E+00 dE for cont linesearch -0.108E-01
 ZBRENT: bracketing found
 ZBRENT: interpolating
 opt :   0.5179  next Energy=   -48.283145 (dE=-0.166E+00)
 bond charge predicted
       N       E                     dE             d eps       ncg     rms          rms(c)
DAV:   1    -0.482878111905E+02   -0.18732E-01   -0.59722E-01 10016   0.253E+00    0.529E-01
RMM:   2    -0.482842916071E+02    0.35196E-02   -0.94707E-03  8064   0.340E-01    0.307E-01
RMM:   3    -0.482829369380E+02    0.13547E-02   -0.21926E-03  7953   0.138E-01    0.264E-02
RMM:   4    -0.482826356999E+02    0.30124E-03   -0.55859E-04  7225   0.978E-02
   9 F= -.48282636E+02 E0= -.48282636E+02  d E =-.165406E+00  mag=    -0.0000
 curvature:  -1.46 expect dE=-0.901E-01 dE for cont linesearch -0.541E-04
 trial: gam= 0.09747 g(F)=  0.286E-01 g(S)=  0.330E-01 ort = 0.117E-01 (trialstep = 0.157E+00)
 search vector abs. value=  0.992E-01
 bond charge predicted
       N       E                     dE             d eps       ncg     rms          rms(c)
DAV:   1    -0.482919697307E+02   -0.90328E-02   -0.20380E-02 11440   0.490E-01    0.641E-02
RMM:   2    -0.482919654522E+02    0.42786E-05   -0.53431E-04  5663   0.873E-02
  10 F= -.48291965E+02 E0= -.48291965E+02  d E =-.932975E-02  mag=    -0.0000
 ZBRENT: can't locate minimum, use default step
 trial-energy change:   -0.009330  1 .order   -0.009480   -0.009855   -0.009105
 step:   0.6277(harm=  2.0620)  dis= 0.00859  next Energy=   -48.347380 (dE=-0.647E-01)
 bond charge predicted
       N       E                     dE             d eps       ncg     rms          rms(c)
DAV:   1    -0.483153330505E+02   -0.23363E-01   -0.18050E-01 11568   0.146E+00    0.203E-01
RMM:   2    -0.483153010917E+02    0.31959E-04   -0.43570E-03  8064   0.240E-01
  11 F= -.48315301E+02 E0= -.48315301E+02  d E =-.326654E-01  mag=    -0.0000
 curvature:  -0.71 expect dE=-0.387E-01 dE for cont linesearch -0.135E-01
 ZBRENT: increasing intervall
 opt :   1.5693  next Energy=   -48.342854 (dE=-0.602E-01)
 bond charge predicted
       N       E                     dE             d eps       ncg     rms          rms(c)
DAV:   1    -0.483388711802E+02   -0.23538E-01   -0.71596E-01 11680   0.290E+00    0.401E-01
RMM:   2    -0.483386763030E+02    0.19488E-03   -0.15881E-02  8064   0.457E-01    0.254E-01
RMM:   3    -0.483384641166E+02    0.21219E-03   -0.16493E-03  8054   0.137E-01
  12 F= -.48338464E+02 E0= -.48338464E+02  d E =-.558284E-01  mag=     0.0000
 curvature:  -1.43 expect dE=-0.276E+00 dE for cont linesearch -0.746E-03
 trial: gam= 2.99281 g(F)=  0.172E+00 g(S)=  0.203E-01 ort = 0.718E-02 (trialstep = 0.388E-01)
 search vector abs. value=  0.112E+01
 bond charge predicted
       N       E                     dE             d eps       ncg     rms          rms(c)
DAV:   1    -0.483461681775E+02   -0.74919E-02   -0.13808E-02 11120   0.396E-01    0.540E-02
RMM:   2    -0.483460865542E+02    0.81623E-04   -0.48234E-04  7087   0.879E-02
  13 F= -.48346087E+02 E0= -.48346087E+02  d E =-.762244E-02  mag=     0.0000
 ZBRENT: can't locate minimum, use default step
 trial-energy change:   -0.007622  1 .order   -0.008177   -0.008283   -0.008072
 step:   0.1552(harm=  1.5246)  dis= 0.00761  next Energy=   -48.501210 (dE=-0.163E+00)
 bond charge predicted
       N       E                     dE             d eps       ncg     rms          rms(c)
DAV:   1    -0.483692940658E+02   -0.23126E-01   -0.11582E-01 11504   0.113E+00    0.148E-01
RMM:   2    -0.483690617227E+02    0.23234E-03   -0.28720E-03  8050   0.200E-01
  14 F= -.48369062E+02 E0= -.48369062E+02  d E =-.305976E-01  mag=     0.0001
 curvature:  -0.60 expect dE=-0.784E-01 dE for cont linesearch -0.195E-01
 ZBRENT: increasing intervall
 opt :   0.3880  next Energy=   -48.409266 (dE=-0.708E-01)
 bond charge predicted
       N       E                     dE             d eps       ncg     rms          rms(c)
DAV:   1    -0.484082107014E+02   -0.38917E-01   -0.45839E-01 11584   0.225E+00    0.290E-01
RMM:   2    -0.484076058271E+02    0.60487E-03   -0.10218E-02  8064   0.371E-01    0.184E-01
RMM:   3    -0.484089049468E+02   -0.12991E-02   -0.38134E-03  8064   0.243E-01    0.607E-02
RMM:   4    -0.484068393140E+02    0.20656E-02   -0.24977E-03  7766   0.200E-01    0.158E-02
RMM:   5    -0.484067312672E+02    0.10805E-03   -0.79718E-05  6384   0.358E-02
  15 F= -.48406731E+02 E0= -.48406731E+02  d E =-.682672E-01  mag=     0.0000
 curvature:  -1.25 expect dE=-0.807E-01 dE for cont linesearch -0.221E-01
 ZBRENT: increasing intervall
 opt :   0.8535  next Energy=   -48.449673 (dE=-0.111E+00)
 bond charge predicted
       N       E                     dE             d eps       ncg     rms          rms(c)
DAV:   1    -0.484541445967E+02   -0.47305E-01   -0.18384E+00 11328   0.445E+00    0.568E-01
RMM:   2    -0.484547292841E+02   -0.58469E-03   -0.38339E-02  8064   0.670E-01    0.365E-01
RMM:   3    -0.484530705942E+02    0.16587E-02   -0.23285E-03  8064   0.135E-01    0.381E-02
RMM:   4    -0.484530797014E+02   -0.91072E-05   -0.21161E-05  4813   0.188E-02
  16 F= -.48453080E+02 E0= -.48453080E+02  d E =-.114616E+00  mag=    -0.0000
 curvature:  -2.42 expect dE=-0.732E-01 dE for cont linesearch -0.710E-02
 trial: gam= 0.00000 g(F)=  0.251E-01 g(S)=  0.521E-02 ort = 0.575E-01 (trialstep = 0.202E+00)
 search vector abs. value=  0.303E-01
 bond charge predicted
       N       E                     dE             d eps       ncg     rms          rms(c)
DAV:   1    -0.484576838097E+02   -0.46132E-02   -0.25292E-02 11808   0.542E-01    0.762E-02
RMM:   2    -0.484576675339E+02    0.16276E-04   -0.70299E-04  5322   0.100E-01
  17 F= -.48457668E+02 E0= -.48457668E+02  d E =-.458783E-02  mag=    -0.0000
 trial-energy change:   -0.004588  1 .order   -0.004551   -0.006110   -0.002993
 step:   0.3954(harm=  0.3954)  dis= 0.00629  next Energy=   -48.459068 (dE=-0.599E-02)
 bond charge predicted
       N       E                     dE             d eps       ncg     rms          rms(c)
DAV:   1    -0.484589865531E+02   -0.13027E-02   -0.22059E-02 11184   0.514E-01    0.747E-02
RMM:   2    -0.484589366858E+02    0.49867E-04   -0.46428E-04  6400   0.864E-02
  18 F= -.48458937E+02 E0= -.48458937E+02  d E =-.585698E-02  mag=    -0.0000
 curvature:  -0.20 expect dE=-0.160E-02 dE for cont linesearch -0.746E-05
 trial: gam= 0.30258 g(F)=  0.561E-02 g(S)=  0.249E-02 ort =-0.107E-02 (trialstep = 0.240E+00)
 search vector abs. value=  0.102E-01
 reached required accuracy - stopping structural energy minimisation
