       N       E                     dE             d eps       ncg     rms          rms(c)
DAV:   1    -0.144945890504E+02   -0.14495E+02   -0.63092E+03  5888   0.402E+02
DAV:   2    -0.479289885328E+02   -0.33434E+02   -0.32465E+02  8000   0.767E+01
DAV:   3    -0.489168220538E+02   -0.98783E+00   -0.98723E+00  7216   0.109E+01
DAV:   4    -0.489181213538E+02   -0.12993E-02   -0.12993E-02  7760   0.499E-01
DAV:   5    -0.489181238130E+02   -0.24591E-05   -0.24591E-05  5648   0.222E-02    0.183E+01
RMM:   6    -0.482404611748E+02    0.67766E+00   -0.42776E+00  5888   0.643E+00    0.872E+00
RMM:   7    -0.529357207396E+02   -0.46953E+01   -0.33520E+00  5888   0.540E+00    0.325E+00
RMM:   8    -0.529038738994E+02    0.31847E-01   -0.30577E-01  5888   0.180E+00    0.992E-01
RMM:   9    -0.529208189651E+02   -0.16945E-01   -0.15328E-02  5888   0.470E-01    0.399E-01
RMM:  10    -0.529303394778E+02   -0.95205E-02   -0.45406E-03  5888   0.251E-01    0.148E-01
RMM:  11    -0.529313192745E+02   -0.97980E-03   -0.73286E-04  4680   0.116E-01    0.617E-02
RMM:  12    -0.529316153612E+02   -0.29609E-03   -0.18179E-04  4405   0.538E-02
   1 F= -.52931615E+02 E0= -.52931615E+02  d E =-.529316E+02  mag=    -0.0000
       N       E                     dE             d eps       ncg     rms          rms(c)
DAV:   1    -0.530539562890E+02   -0.12264E+00   -0.23617E-01  7600   0.206E+00    0.399E-01
RMM:   2    -0.530522087140E+02    0.17476E-02   -0.21590E-03  5516   0.171E-01    0.230E-01
RMM:   3    -0.530513922422E+02    0.81647E-03   -0.88290E-04  3354   0.925E-02    0.136E-02
RMM:   4    -0.530513977679E+02   -0.55256E-05   -0.23946E-05  2742   0.200E-02
   2 F= -.53051398E+02 E0= -.53051398E+02  d E =-.119782E+00  mag=    -0.0000
       N       E                     dE             d eps       ncg     rms          rms(c)
DAV:   1    -0.531874784689E+02   -0.13609E+00   -0.12537E+00  6896   0.464E+00    0.909E-01
RMM:   2    -0.531779798704E+02    0.94986E-02   -0.11892E-02  5888   0.390E-01    0.522E-01
RMM:   3    -0.531735378894E+02    0.44420E-02   -0.50035E-03  5886   0.210E-01    0.335E-02
RMM:   4    -0.531735509977E+02   -0.13108E-04   -0.20530E-05  3129   0.202E-02
   3 F= -.53173551E+02 E0= -.53173551E+02  d E =-.241936E+00  mag=    -0.0000
       N       E                     dE             d eps       ncg     rms          rms(c)
DAV:   1    -0.532040310136E+02   -0.30493E-01   -0.39786E-02  8256   0.665E-01    0.154E-01
RMM:   2    -0.532037460842E+02    0.28493E-03   -0.53243E-04  3077   0.829E-02
   4 F= -.53203746E+02 E0= -.53203746E+02  d E =-.301951E-01  mag=     0.0000
       N       E                     dE             d eps       ncg     rms          rms(c)
DAV:   1    -0.532923450873E+02   -0.88314E-01   -0.34010E-01  6496   0.196E+00    0.449E-01
RMM:   2    -0.532899121686E+02    0.24329E-02   -0.46964E-03  5859   0.236E-01    0.254E-01
RMM:   3    -0.532887404673E+02    0.11717E-02   -0.12477E-03  4481   0.970E-02    0.115E-02
RMM:   4    -0.532887480649E+02   -0.75976E-05   -0.14624E-05  2841   0.174E-02
   5 F= -.53288748E+02 E0= -.53288748E+02  d E =-.115197E+00  mag=    -0.0000
       N       E                     dE             d eps       ncg     rms          rms(c)
DAV:   1    -0.534508647544E+02   -0.16212E+00   -0.14143E+00  6672   0.392E+00    0.894E-01
RMM:   2    -0.534409514625E+02    0.99133E-02   -0.19689E-02  5888   0.478E-01    0.506E-01
RMM:   3    -0.534361918722E+02    0.47596E-02   -0.52339E-03  5886   0.194E-01    0.217E-02
RMM:   4    -0.534362098615E+02   -0.17989E-04   -0.24035E-05  3142   0.202E-02
   6 F= -.53436210E+02 E0= -.53436210E+02  d E =-.262659E+00  mag=    -0.0000
       N       E                     dE             d eps       ncg     rms          rms(c)
DAV:   1    -0.536984796505E+02   -0.26229E+00   -0.56533E+00  6448   0.770E+00    0.178E+00
RMM:   2    -0.536567989035E+02    0.41681E-01   -0.81764E-02  5888   0.944E-01    0.101E+00
RMM:   3    -0.536369970098E+02    0.19802E-01   -0.22899E-02  5888   0.397E-01    0.458E-02
RMM:   4    -0.536370740195E+02   -0.77010E-04   -0.10829E-04  3615   0.424E-02
   7 F= -.53637074E+02 E0= -.53637074E+02  d E =-.463523E+00  mag=    -0.0000
       N       E                     dE             d eps       ncg     rms          rms(c)
DAV:   1    -0.538847790636E+02   -0.24778E+00   -0.22702E+01  6240   0.149E+01    0.356E+00
RMM:   2    -0.537045064806E+02    0.18027E+00   -0.35620E-01  5888   0.187E+00    0.200E+00
RMM:   3    -0.536196789069E+02    0.84828E-01   -0.10917E-01  5888   0.839E-01    0.110E-01
RMM:   4    -0.536200190571E+02   -0.34015E-03   -0.48593E-04  4797   0.903E-02
   8 F= -.53620019E+02 E0= -.53620019E+02  d E =-.446468E+00  mag=    -0.0000
       N       E                     dE             d eps       ncg     rms          rms(c)
DAV:   1    -0.537712385691E+02   -0.15156E+00   -0.59774E+00  6176   0.804E+00    0.189E+00
RMM:   2    -0.537190436375E+02    0.52195E-01   -0.62011E-02  5888   0.792E-01    0.104E+00
RMM:   3    -0.536986037468E+02    0.20440E-01   -0.25193E-02  5888   0.404E-01    0.526E-02
RMM:   4    -0.536986962819E+02   -0.92535E-04   -0.15358E-04  3754   0.504E-02
   9 F= -.53698696E+02 E0= -.53698696E+02  d E =-.525145E+00  mag=    -0.0000
       N       E                     dE             d eps       ncg     rms          rms(c)
DAV:   1    -0.537510524472E+02   -0.52449E-01   -0.57246E-01  7408   0.258E+00    0.644E-01
RMM:   2    -0.537446279440E+02    0.64245E-02   -0.66153E-03  5888   0.256E-01    0.357E-01
RMM:   3    -0.537419136412E+02    0.27143E-02   -0.32511E-03  5872   0.148E-01    0.199E-02
RMM:   4    -0.537419215042E+02   -0.78631E-05   -0.16481E-05  2952   0.171E-02
  10 F= -.53741922E+02 E0= -.53741922E+02  d E =-.432252E-01  mag=    -0.0000
       N       E                     dE             d eps       ncg     rms          rms(c)
DAV:   1    -0.537690253380E+02   -0.27112E-01   -0.65687E-01  6560   0.273E+00    0.689E-01
RMM:   2    -0.537615122411E+02    0.75131E-02   -0.75333E-03  5888   0.269E-01    0.382E-01
RMM:   3    -0.537584089086E+02    0.31033E-02   -0.39224E-03  5878   0.161E-01    0.232E-02
RMM:   4    -0.537584222569E+02   -0.13348E-04   -0.20496E-05  3065   0.187E-02
  11 F= -.53758422E+02 E0= -.53758422E+02  d E =-.597260E-01  mag=    -0.0000
       N       E                     dE             d eps       ncg     rms          rms(c)
DAV:   1    -0.537596931765E+02   -0.12843E-02   -0.20470E-02  8256   0.522E-01    0.670E-02
RMM:   2    -0.537597196774E+02   -0.26501E-04   -0.90442E-04  3309   0.114E-01
  12 F= -.53759720E+02 E0= -.53759720E+02  d E =-.129742E-02  mag=     0.0000
       N       E                     dE             d eps       ncg     rms          rms(c)
DAV:   1    -0.537596815499E+02    0.11627E-04   -0.33152E-05  3456   0.364E-02    0.115E-02
RMM:   2    -0.537596819780E+02   -0.42817E-06   -0.13580E-05  2692   0.149E-02
  13 F= -.53759682E+02 E0= -.53759682E+02  d E =-.125972E-02  mag=    -0.0000
