       N       E                     dE             d eps       ncg     rms          rms(c)
DAV:   1     0.539268027226E+03    0.53927E+03   -0.40485E+04  4864   0.123E+03
DAV:   2    -0.388391153539E+02   -0.57811E+03   -0.55694E+03  5504   0.321E+02
DAV:   3    -0.813768559984E+02   -0.42538E+02   -0.42297E+02  7904   0.768E+01
DAV:   4    -0.838304773140E+02   -0.24536E+01   -0.24468E+01  7904   0.148E+01
DAV:   5    -0.839395637842E+02   -0.10909E+00   -0.10908E+00  7440   0.257E+00    0.527E+01
RMM:   6    -0.847197519304E+02   -0.78019E+00   -0.17303E+01  5396   0.973E+00    0.301E+01
RMM:   7    -0.833700891629E+02    0.13497E+01   -0.60615E+00  5860   0.810E+00    0.168E+01
RMM:   8    -0.833679218657E+02    0.21673E-02   -0.12500E+00  5885   0.480E+00    0.576E+00
RMM:   9    -0.834584831152E+02   -0.90561E-01   -0.27229E-01  6204   0.205E+00    0.254E+00
RMM:  10    -0.834574525368E+02    0.10306E-02   -0.62211E-02  5964   0.100E+00    0.110E+00
RMM:  11    -0.834575034034E+02   -0.50867E-04   -0.33975E-02  5372   0.653E-01    0.379E-01
RMM:  12    -0.834588704140E+02   -0.13670E-02   -0.78427E-03  4488   0.435E-01    0.202E-01
RMM:  13    -0.834599865689E+02   -0.11162E-02   -0.37717E-03  4196   0.227E-01
   1 F= -.83459987E+02 E0= -.83459987E+02  d E =-.834600E+02  mag=     0.9879
       N       E                     dE             d eps       ncg     rms          rms(c)
DAV:   1    -0.837910957061E+02   -0.33223E+00   -0.71187E+00  6080   0.117E+01    0.464E+00
RMM:   2    -0.835960760515E+02    0.19502E+00   -0.75621E-01  6286   0.376E+00    0.161E+00
RMM:   3    -0.835459602366E+02    0.50116E-01   -0.12099E-01  6268   0.240E+00    0.128E+00
RMM:   4    -0.835328017207E+02    0.13159E-01   -0.57856E-02  5941   0.967E-01    0.137E+00
RMM:   5    -0.835343856862E+02   -0.15840E-02   -0.12306E-02  4692   0.107E+00    0.863E-01
RMM:   6    -0.835341831739E+02    0.20251E-03   -0.12352E-02  3961   0.300E-01    0.441E-01
RMM:   7    -0.835336288582E+02    0.55432E-03   -0.48030E-03  4156   0.293E-01
   2 F= -.83533629E+02 E0= -.83533629E+02  d E =-.736423E-01  mag=     0.9999
       N       E                     dE             d eps       ncg     rms          rms(c)
DAV:   1    -0.837951387388E+02   -0.26096E+00   -0.69981E+00  5584   0.116E+01    0.453E+00
RMM:   2    -0.836018176134E+02    0.19332E+00   -0.71964E-01  6163   0.365E+00    0.157E+00
RMM:   3    -0.835539781613E+02    0.47839E-01   -0.11487E-01  6165   0.253E+00    0.121E+00
RMM:   4    -0.835420962372E+02    0.11882E-01   -0.57208E-02  5813   0.957E-01    0.135E+00
RMM:   5    -0.835442057357E+02   -0.21095E-02   -0.12901E-02  4374   0.119E+00    0.923E-01
RMM:   6    -0.835452989649E+02   -0.10932E-02   -0.12604E-02  4136   0.282E-01    0.546E-01
RMM:   7    -0.835443445531E+02    0.95441E-03   -0.54678E-03  4487   0.314E-01
   3 F= -.83544345E+02 E0= -.83544345E+02  d E =-.843580E-01  mag=     1.0000
       N       E                     dE             d eps       ncg     rms          rms(c)
DAV:   1    -0.835708165284E+02   -0.25518E-01   -0.14499E+00  6272   0.567E+00    0.110E+00
RMM:   2    -0.835606727594E+02    0.10144E-01   -0.12794E-01  5613   0.137E+00    0.493E-01
RMM:   3    -0.835574210930E+02    0.32517E-02   -0.11863E-02  4783   0.851E-01    0.347E-01
RMM:   4    -0.835571886638E+02    0.23243E-03   -0.62695E-03  4556   0.363E-01
   4 F= -.83557189E+02 E0= -.83557189E+02  d E =-.128441E-01  mag=     1.0000
       N       E                     dE             d eps       ncg     rms          rms(c)
DAV:   1    -0.835766201060E+02   -0.19199E-01   -0.17699E+00  5568   0.626E+00    0.112E+00
RMM:   2    -0.835633605300E+02    0.13260E-01   -0.15402E-01  5682   0.150E+00    0.618E-01
RMM:   3    -0.835592990749E+02    0.40615E-02   -0.15170E-02  5323   0.920E-01    0.480E-01
RMM:   4    -0.835588905960E+02    0.40848E-03   -0.84464E-03  4686   0.374E-01
   5 F= -.83558891E+02 E0= -.83558891E+02  d E =-.145460E-01  mag=     1.0000
       N       E                     dE             d eps       ncg     rms          rms(c)
DAV:   1    -0.835658006478E+02   -0.65016E-02   -0.96519E-01  5856   0.472E+00    0.560E-01
RMM:   2    -0.835686625162E+02   -0.28619E-02   -0.73796E-02  5481   0.951E-01    0.342E-01
RMM:   3    -0.835679123778E+02    0.75014E-03   -0.43833E-03  3718   0.550E-01
   6 F= -.83567912E+02 E0= -.83567912E+02  d E =-.902178E-02  mag=     1.0000
       N       E                     dE             d eps       ncg     rms          rms(c)
DAV:   1    -0.835685050873E+02    0.15743E-03   -0.15256E-01  6688   0.188E+00    0.412E-01
RMM:   2    -0.835690440487E+02   -0.53896E-03   -0.13825E-02  4357   0.404E-01    0.225E-01
RMM:   3    -0.835689183933E+02    0.12566E-03   -0.10509E-03  2832   0.297E-01
   7 F= -.83568918E+02 E0= -.83568918E+02  d E =-.100278E-01  mag=     1.0000
