  16  16   0   0
  0.5829220E+01  0.2862654E-09  0.4049094E-09  0.8241316E-09  0.5000000E-15
  1.000000000000000E-004
  CAR 
 unknown system                          
     14.27791853    -12.99043205  301     -4.70933918      1.00000000
    -12.990  0.0000E+00  0.0000E+00
    -12.900  0.0000E+00  0.0000E+00
    -12.809  0.0000E+00  0.0000E+00
    -12.718  0.0000E+00  0.0000E+00
    -12.627  0.2276E-34  0.2069E-35
    -12.536  0.5830E-28  0.5299E-29
    -12.445  0.2734E-22  0.2485E-23
    -12.354  0.2312E-17  0.2102E-18
    -12.263  0.3457E-13  0.3142E-14
    -12.172  0.8748E-10  0.7955E-11
    -12.081  0.3492E-07  0.3182E-08
    -11.991  0.1877E-05  0.1738E-06
    -11.900  0.6588E-05  0.7726E-06
    -11.809 -0.4410E-04 -0.3236E-05
    -11.718  0.5718E-03  0.4874E-04
    -11.627  0.4382E-02  0.4470E-03
    -11.536  0.6381E-02  0.1027E-02
    -11.445  0.5190E-02  0.1499E-02
    -11.354  0.1198E-01  0.2587E-02
    -11.263  0.1157E-01  0.3639E-02
    -11.173  0.6799E-02  0.4257E-02
    -11.082  0.1064E-01  0.5224E-02
    -10.991  0.1651E-01  0.6725E-02
    -10.900  0.1667E-01  0.8240E-02
    -10.809  0.1355E-01  0.9472E-02
    -10.718  0.1239E-01  0.1060E-01
    -10.627  0.1371E-01  0.1184E-01
    -10.536  0.1849E-01  0.1352E-01
    -10.445  0.2446E-01  0.1575E-01
    -10.354  0.1731E-01  0.1732E-01
    -10.264  0.1825E-01  0.1898E-01
    -10.173  0.2163E-01  0.2095E-01
    -10.082  0.1868E-01  0.2264E-01
     -9.991  0.1768E-01  0.2425E-01
     -9.900  0.2386E-01  0.2642E-01
     -9.809  0.2562E-01  0.2875E-01
     -9.718  0.2970E-01  0.3145E-01
     -9.627  0.2875E-01  0.3406E-01
     -9.536  0.2225E-01  0.3608E-01
     -9.446  0.1822E-01  0.3774E-01
     -9.355  0.2765E-01  0.4025E-01
     -9.264  0.2994E-01  0.4297E-01
     -9.173  0.2979E-01  0.4568E-01
     -9.082  0.3388E-01  0.4876E-01
     -8.991  0.3157E-01  0.5163E-01
     -8.900  0.4299E-01  0.5554E-01
     -8.809  0.2460E-01  0.5777E-01
     -8.718  0.3034E-01  0.6053E-01
     -8.627  0.3785E-01  0.6397E-01
     -8.537  0.2944E-01  0.6665E-01
     -8.446  0.4169E-01  0.7044E-01
     -8.355  0.4644E-01  0.7466E-01
     -8.264  0.4609E-01  0.7885E-01
     -8.173  0.4517E-01  0.8295E-01
     -8.082  0.3543E-01  0.8617E-01
     -7.991  0.4408E-01  0.9018E-01
     -7.900  0.5689E-01  0.9535E-01
     -7.809  0.5466E-01  0.1003E+00
     -7.719  0.4619E-01  0.1045E+00
     -7.628  0.5121E-01  0.1092E+00
     -7.537  0.6736E-01  0.1153E+00
     -7.446  0.6425E-01  0.1211E+00
     -7.355  0.7050E-01  0.1275E+00
     -7.264  0.8099E-01  0.1349E+00
     -7.173  0.7098E-01  0.1414E+00
     -7.082  0.7737E-01  0.1484E+00
     -6.991  0.9151E-01  0.1567E+00
     -6.901  0.8802E-01  0.1647E+00
     -6.810  0.9711E-01  0.1735E+00
     -6.719  0.1019E+00  0.1828E+00
     -6.628  0.9577E-01  0.1915E+00
     -6.537  0.1105E+00  0.2015E+00
     -6.446  0.1008E+00  0.2107E+00
     -6.355  0.1002E+00  0.2198E+00
     -6.264  0.9100E-01  0.2281E+00
     -6.173  0.7080E-01  0.2345E+00
     -6.082  0.5577E-01  0.2396E+00
     -5.992  0.4626E-01  0.2438E+00
     -5.901  0.3864E-01  0.2473E+00
     -5.810  0.2721E-01  0.2498E+00
     -5.719  0.2546E-01  0.2521E+00
     -5.628  0.2584E-01  0.2544E+00
     -5.537  0.2133E-01  0.2564E+00
     -5.446  0.2229E-01  0.2584E+00
     -5.355  0.2069E-01  0.2603E+00
     -5.264  0.1286E-01  0.2615E+00
     -5.174  0.1078E-01  0.2624E+00
     -5.083  0.1229E-01  0.2636E+00
     -4.992  0.1440E-01  0.2649E+00
     -4.901  0.8159E-02  0.2656E+00
     -4.810  0.7795E-02  0.2663E+00
     -4.719  0.3795E-02  0.2667E+00
     -4.628  0.1277E-03  0.2667E+00
     -4.537 -0.4254E-04  0.2667E+00
     -4.446  0.1169E-04  0.2667E+00
     -4.355  0.5395E-06  0.2667E+00
     -4.265  0.2841E-08  0.2667E+00
     -4.174  0.2309E-11  0.2667E+00
     -4.083  0.3158E-15  0.2667E+00
     -3.992  0.0000E+00  0.2667E+00
     -3.901  0.0000E+00  0.2667E+00
     -3.810  0.0000E+00  0.2667E+00
     -3.719  0.0000E+00  0.2667E+00
     -3.628  0.0000E+00  0.2667E+00
     -3.537  0.0000E+00  0.2667E+00
     -3.447  0.0000E+00  0.2667E+00
     -3.356  0.0000E+00  0.2667E+00
     -3.265  0.0000E+00  0.2667E+00
     -3.174  0.0000E+00  0.2667E+00
     -3.083  0.0000E+00  0.2667E+00
     -2.992  0.0000E+00  0.2667E+00
     -2.901  0.0000E+00  0.2667E+00
     -2.810  0.0000E+00  0.2667E+00
     -2.719  0.0000E+00  0.2667E+00
     -2.628  0.0000E+00  0.2667E+00
     -2.538  0.0000E+00  0.2667E+00
     -2.447  0.0000E+00  0.2667E+00
     -2.356  0.0000E+00  0.2667E+00
     -2.265  0.0000E+00  0.2667E+00
     -2.174  0.0000E+00  0.2667E+00
     -2.083  0.0000E+00  0.2667E+00
     -1.992  0.0000E+00  0.2667E+00
     -1.901  0.0000E+00  0.2667E+00
     -1.810  0.0000E+00  0.2667E+00
     -1.720  0.0000E+00  0.2667E+00
     -1.629  0.0000E+00  0.2667E+00
     -1.538  0.0000E+00  0.2667E+00
     -1.447  0.0000E+00  0.2667E+00
     -1.356  0.0000E+00  0.2667E+00
     -1.265  0.0000E+00  0.2667E+00
     -1.174  0.0000E+00  0.2667E+00
     -1.083  0.0000E+00  0.2667E+00
     -0.992  0.0000E+00  0.2667E+00
     -0.901  0.0000E+00  0.2667E+00
     -0.811  0.0000E+00  0.2667E+00
     -0.720  0.0000E+00  0.2667E+00
     -0.629  0.0000E+00  0.2667E+00
     -0.538  0.0000E+00  0.2667E+00
     -0.447  0.0000E+00  0.2667E+00
     -0.356  0.0000E+00  0.2667E+00
     -0.265  0.0000E+00  0.2667E+00
     -0.174  0.0000E+00  0.2667E+00
     -0.083  0.0000E+00  0.2667E+00
      0.007  0.0000E+00  0.2667E+00
      0.098  0.0000E+00  0.2667E+00
      0.189  0.0000E+00  0.2667E+00
      0.280  0.0000E+00  0.2667E+00
      0.371  0.0000E+00  0.2667E+00
      0.462  0.0000E+00  0.2667E+00
      0.553  0.0000E+00  0.2667E+00
      0.644  0.1316E-32  0.2667E+00
      0.735  0.2156E-26  0.2667E+00
      0.826  0.6445E-21  0.2667E+00
      0.916  0.3461E-16  0.2667E+00
      1.007  0.3243E-12  0.2667E+00
      1.098  0.5031E-09  0.2667E+00
      1.189  0.1142E-06  0.2667E+00
      1.280  0.2289E-05  0.2667E+00
      1.371 -0.1585E-04  0.2667E+00
      1.462  0.1180E-03  0.2667E+00
      1.553  0.2275E-03  0.2667E+00
      1.644  0.2053E-02  0.2669E+00
      1.734  0.4222E-02  0.2673E+00
      1.825  0.1727E-02  0.2674E+00
      1.916  0.4864E-02  0.2679E+00
      2.007  0.6529E-02  0.2685E+00
      2.098  0.7318E-02  0.2691E+00
      2.189  0.1298E-01  0.2703E+00
      2.280  0.1278E-01  0.2715E+00
      2.371  0.1531E-01  0.2729E+00
      2.462  0.1431E-01  0.2742E+00
      2.553  0.2412E-01  0.2764E+00
      2.643  0.2934E-01  0.2790E+00
      2.734  0.1641E-01  0.2805E+00
      2.825  0.2988E-01  0.2832E+00
      2.916  0.2537E-01  0.2855E+00
      3.007  0.3299E-01  0.2885E+00
      3.098  0.3886E-01  0.2921E+00
      3.189  0.3879E-01  0.2956E+00
      3.280  0.4186E-01  0.2994E+00
      3.371  0.4459E-01  0.3034E+00
      3.461  0.4423E-01  0.3075E+00
      3.552  0.4632E-01  0.3117E+00
      3.643  0.5471E-01  0.3166E+00
      3.734  0.5716E-01  0.3218E+00
      3.825  0.7561E-01  0.3287E+00
      3.916  0.6164E-01  0.3343E+00
      4.007  0.5486E-01  0.3393E+00
      4.098  0.5393E-01  0.3442E+00
      4.189  0.6020E-01  0.3497E+00
      4.280  0.6683E-01  0.3558E+00
      4.370  0.6516E-01  0.3617E+00
      4.461  0.6743E-01  0.3678E+00
      4.552  0.6704E-01  0.3739E+00
      4.643  0.6214E-01  0.3795E+00
      4.734  0.5921E-01  0.3849E+00
      4.825  0.4915E-01  0.3894E+00
      4.916  0.4813E-01  0.3938E+00
      5.007  0.5706E-01  0.3990E+00
      5.098  0.5856E-01  0.4043E+00
      5.188  0.5055E-01  0.4089E+00
      5.279  0.5900E-01  0.4142E+00
      5.370  0.6349E-01  0.4200E+00
      5.461  0.5185E-01  0.4247E+00
      5.552  0.5323E-01  0.4296E+00
      5.643  0.5724E-01  0.4348E+00
      5.734  0.5741E-01  0.4400E+00
      5.825  0.4695E-01  0.4443E+00
      5.916  0.3963E-01  0.4479E+00
      6.007  0.5087E-01  0.4525E+00
      6.097  0.4592E-01  0.4567E+00
      6.188  0.4382E-01  0.4606E+00
      6.279  0.4289E-01  0.4645E+00
      6.370  0.4414E-01  0.4685E+00
      6.461  0.3557E-01  0.4718E+00
      6.552  0.3500E-01  0.4750E+00
      6.643  0.4531E-01  0.4791E+00
      6.734  0.3765E-01  0.4825E+00
      6.825  0.3513E-01  0.4857E+00
      6.915  0.3723E-01  0.4891E+00
      7.006  0.3941E-01  0.4927E+00
      7.097  0.3799E-01  0.4961E+00
      7.188  0.2989E-01  0.4988E+00
      7.279  0.3521E-01  0.5020E+00
      7.370  0.4164E-01  0.5058E+00
      7.461  0.3808E-01  0.5093E+00
      7.552  0.2785E-01  0.5118E+00
      7.643  0.3104E-01  0.5146E+00
      7.734  0.3810E-01  0.5181E+00
      7.824  0.4773E-01  0.5224E+00
      7.915  0.3163E-01  0.5253E+00
      8.006  0.2578E-01  0.5276E+00
      8.097  0.3948E-01  0.5312E+00
      8.188  0.4016E-01  0.5349E+00
      8.279  0.3607E-01  0.5382E+00
      8.370  0.3941E-01  0.5417E+00
      8.461  0.3433E-01  0.5449E+00
      8.552  0.3294E-01  0.5479E+00
      8.642  0.4090E-01  0.5516E+00
      8.733  0.4109E-01  0.5553E+00
      8.824  0.4320E-01  0.5592E+00
      8.915  0.3877E-01  0.5628E+00
      9.006  0.3315E-01  0.5658E+00
      9.097  0.3489E-01  0.5689E+00
      9.188  0.4591E-01  0.5731E+00
      9.279  0.3409E-01  0.5762E+00
      9.370  0.2965E-01  0.5789E+00
      9.461  0.4229E-01  0.5828E+00
      9.551  0.4412E-01  0.5868E+00
      9.642  0.3784E-01  0.5902E+00
      9.733  0.3415E-01  0.5933E+00
      9.824  0.3862E-01  0.5968E+00
      9.915  0.3678E-01  0.6002E+00
     10.006  0.3025E-01  0.6029E+00
     10.097  0.3530E-01  0.6061E+00
     10.188  0.3325E-01  0.6091E+00
     10.279  0.2608E-01  0.6115E+00
     10.369  0.3326E-01  0.6145E+00
     10.460  0.3637E-01  0.6178E+00
     10.551  0.2671E-01  0.6203E+00
     10.642  0.2615E-01  0.6227E+00
     10.733  0.2782E-01  0.6252E+00
     10.824  0.3591E-01  0.6284E+00
     10.915  0.3807E-01  0.6319E+00
     11.006  0.2905E-01  0.6345E+00
     11.097  0.2973E-01  0.6372E+00
     11.188  0.2553E-01  0.6396E+00
     11.278  0.2179E-01  0.6415E+00
     11.369  0.2952E-01  0.6442E+00
     11.460  0.2362E-01  0.6464E+00
     11.551  0.1957E-01  0.6482E+00
     11.642  0.2445E-01  0.6504E+00
     11.733  0.2277E-01  0.6524E+00
     11.824  0.2172E-01  0.6544E+00
     11.915  0.1957E-01  0.6562E+00
     12.006  0.1987E-01  0.6580E+00
     12.096  0.2015E-01  0.6598E+00
     12.187  0.1261E-01  0.6610E+00
     12.278  0.1187E-01  0.6621E+00
     12.369  0.1266E-01  0.6632E+00
     12.460  0.1128E-01  0.6642E+00
     12.551  0.7578E-02  0.6649E+00
     12.642  0.7528E-02  0.6656E+00
     12.733  0.4333E-02  0.6660E+00
     12.824  0.4137E-02  0.6664E+00
     12.915  0.2041E-02  0.6666E+00
     13.005  0.2136E-03  0.6666E+00
     13.096  0.8219E-03  0.6667E+00
     13.187  0.4149E-04  0.6667E+00
     13.278 -0.1517E-04  0.6667E+00
     13.369  0.2848E-05  0.6667E+00
     13.460  0.6668E-07  0.6667E+00
     13.551  0.1733E-09  0.6667E+00
     13.642  0.6898E-13  0.6667E+00
     13.733  0.4653E-17  0.6667E+00
     13.823  0.0000E+00  0.6667E+00
     13.914  0.0000E+00  0.6667E+00
     14.005  0.0000E+00  0.6667E+00
     14.096  0.0000E+00  0.6667E+00
     14.187  0.0000E+00  0.6667E+00
     14.278  0.0000E+00  0.6667E+00
