       N       E                     dE             d eps       ncg     rms          rms(c)
DAV:   1    -0.217019722011E+02   -0.21702E+02   -0.39208E+03 14112   0.366E+02
DAV:   2    -0.539436513954E+02   -0.32242E+02   -0.31288E+02 18632   0.908E+01
DAV:   3    -0.550782503259E+02   -0.11346E+01   -0.11303E+01 17188   0.156E+01
DAV:   4    -0.550807005746E+02   -0.24502E-02   -0.24501E-02 16544   0.880E-01
DAV:   5    -0.550807063762E+02   -0.58016E-05   -0.58006E-05 14304   0.408E-02    0.122E+01
DAV:   6    -0.531996688236E+02    0.18810E+01   -0.48203E-01 15400   0.337E+00    0.694E+00
DAV:   7    -0.522777940769E+02    0.92187E+00   -0.12902E+00 15460   0.573E+00    0.596E-01
DAV:   8    -0.522980792610E+02   -0.20285E-01   -0.62456E-02 15332   0.120E+00    0.401E-01
DAV:   9    -0.522948069166E+02    0.32723E-02   -0.29845E-03 17284   0.283E-01    0.349E-02
DAV:  10    -0.522949124412E+02   -0.10552E-03   -0.25502E-04 16008   0.844E-02    0.157E-02
DAV:  11    -0.522949272879E+02   -0.14847E-04   -0.18799E-05  9148   0.264E-02
   1 F= -.52294927E+02 E0= -.52294953E+02  d E =-.522949E+02
       N       E                     dE             d eps       ncg     rms          rms(c)
DAV:   1    -0.522926127253E+02    0.22997E-02   -0.91060E-02 15084   0.181E+00    0.125E-01
DAV:   2    -0.522929632004E+02   -0.35048E-03   -0.60229E-03 16444   0.436E-01    0.107E-01
DAV:   3    -0.522927718477E+02    0.19135E-03   -0.10061E-04 15084   0.129E-01    0.326E-02
DAV:   4    -0.522927845223E+02   -0.12675E-04   -0.24089E-04 11176   0.822E-02
   2 F= -.52292785E+02 E0= -.52292811E+02  d E =0.214277E-02
       N       E                     dE             d eps       ncg     rms          rms(c)
DAV:   1    -0.522956375126E+02   -0.28657E-02   -0.40377E-02 15012   0.120E+00    0.840E-02
DAV:   2    -0.522957643133E+02   -0.12680E-03   -0.24879E-03 16368   0.282E-01    0.702E-02
DAV:   3    -0.522956740634E+02    0.90250E-04   -0.49234E-05 13428   0.929E-02
   3 F= -.52295674E+02 E0= -.52295700E+02  d E =-.746775E-03
