 running on   32 total cores
 distrk:  each k-point on   32 cores,    1 groups
 distr:  one band on    8 cores,    4 groups
 using from now: INCAR     
 vasp.5.4.4.18Apr17-6-g9f103f2a35 (build Nov 01 2019 12:17:22) complex          
  
 POSCAR found type information on POSCAR  H  Nb H  Nb H  Sr
 POSCAR found :  6 types and      16 ions
 LDA part: xc-table for Pade appr. of Perdew
 generate k-points for:   12    6    7
 POSCAR, INCAR and KPOINTS ok, starting setup
 FFT: planning ...
 WAVECAR not read
 entering main loop
       N       E                     dE             d eps       ncg     rms          rms(c)
DAV:   1     0.221614042646E+03    0.22161E+03   -0.14747E+04 16656   0.780E+02
DAV:   2    -0.557284902206E+02   -0.27734E+03   -0.26760E+03 20896   0.342E+02
DAV:   3    -0.706545588772E+02   -0.14926E+02   -0.14753E+02 25360   0.689E+01
DAV:   4    -0.713946868592E+02   -0.74013E+00   -0.73783E+00 27416   0.122E+01
DAV:   5    -0.714079393035E+02   -0.13252E-01   -0.13251E-01 25960   0.144E+00    0.453E+01
DAV:   6    -0.667098001538E+02    0.46981E+01   -0.12757E+01 24640   0.239E+01    0.160E+01
DAV:   7    -0.662191506429E+02    0.49065E+00   -0.15443E+00 20472   0.688E+00    0.883E+00
DAV:   8    -0.661606996681E+02    0.58451E-01   -0.44828E-01 26592   0.378E+00    0.234E+00
DAV:   9    -0.661610493481E+02   -0.34968E-03   -0.60507E-02 28016   0.180E+00    0.164E+00
DAV:  10    -0.661587844549E+02    0.22649E-02   -0.10591E-02 24728   0.937E-01    0.733E-01
DAV:  11    -0.661574317887E+02    0.13527E-02   -0.86680E-03 25240   0.743E-01    0.137E-01
DAV:  12    -0.661575267882E+02   -0.95000E-04   -0.99350E-04 23224   0.188E-01
   1 F= -.66157527E+02 E0= -.66157818E+02  d E =-.661575E+02
 curvature:   0.00 expect dE= 0.000E+00 dE for cont linesearch  0.000E+00
 trial: gam= 0.00000 g(F)=  0.985E-03 g(S)=  0.181E-03 ort = 0.000E+00 (trialstep = 0.100E+01)
 search vector abs. value=  0.117E-02
 bond charge predicted
       N       E                     dE             d eps       ncg     rms          rms(c)
DAV:   1    -0.661577413113E+02   -0.30952E-03   -0.30112E-02 19752   0.107E+00    0.126E-01
DAV:   2    -0.661577813031E+02   -0.39992E-04   -0.18905E-03 20904   0.289E-01    0.607E-02
DAV:   3    -0.661577349039E+02    0.46399E-04   -0.91922E-05 14440   0.885E-02
   2 F= -.66157735E+02 E0= -.66158023E+02  d E =-.208116E-03
 trial-energy change:   -0.000208  1 .order   -0.000255   -0.001166    0.000657
 step:   0.6397(harm=  0.6397)  dis= 0.00243  next Energy=   -66.157900 (dE=-0.373E-03)
 bond charge predicted
       N       E                     dE             d eps       ncg     rms          rms(c)
DAV:   1    -0.661578898617E+02   -0.10856E-03   -0.44533E-03 19512   0.407E-01    0.369E-02
DAV:   2    -0.661579066093E+02   -0.16748E-04   -0.30502E-04 18824   0.113E-01
   3 F= -.66157907E+02 E0= -.66158196E+02  d E =-.379821E-03
 curvature:  -0.32 expect dE=-0.334E-03 dE for cont linesearch -0.805E-05
 trial: gam= 1.04337 g(F)=  0.970E-03 g(S)=  0.756E-04 ort =-0.171E-03 (trialstep = 0.553E+00)
 search vector abs. value=  0.196E-02
 reached required accuracy - stopping structural energy minimisation
