   13   13   60    1
  0.1074391E+02  0.6264853E-09  0.5648331E-09  0.5773897E-09  0.5000000E-15
  1.000000000000000E-004
  CAR 
 unknown system                          
     41    365     28
 
  0.3742002E-15  0.3742002E-15  0.3742002E-15  0.1371742E-02
    1      -34.050505   1.000000
    2      -33.533108   1.000000
    3      -29.221783   1.000000
    4      -29.201617   1.000000
    5      -29.190010   1.000000
    6      -16.200640   1.000000
    7      -16.135511   1.000000
    8      -16.113102   1.000000
    9      -15.625806   1.000000
   10      -15.619966   1.000000
   11      -15.569051   1.000000
   12       -6.386009   1.000000
   13       -3.767680   1.000000
   14       -2.806688   1.000000
   15       -2.026822   1.000000
   16       -1.876074   1.000000
   17       -1.617934   1.000000
   18       -1.392036   1.000000
   19       -1.117281   1.000000
   20       -0.895424   1.000000
   21        1.572237   0.997473
   22        4.031446   0.000000
   23        4.193762   0.000000
   24        4.486785   0.000000
   25        4.764116   0.000000
   26        4.881918   0.000000
   27        5.237800   0.000000
   28        5.618594   0.000000
 
  0.1111111E+00  0.3764350E-15  0.4163336E-15  0.2743484E-02
    1      -34.050086   1.000000
    2      -33.533585   1.000000
    3      -29.221865   1.000000
    4      -29.201566   1.000000
    5      -29.190173   1.000000
    6      -16.196062   1.000000
    7      -16.139192   1.000000
    8      -16.119315   1.000000
    9      -15.628535   1.000000
   10      -15.613452   1.000000
   11      -15.572651   1.000000
   12       -6.297033   1.000000
   13       -3.870170   1.000000
   14       -2.743089   1.000000
   15       -2.038436   1.000000
   16       -1.885947   1.000000
   17       -1.678137   1.000000
   18       -1.376706   1.000000
   19       -1.185824   1.000000
   20       -0.859034   1.000000
   21        1.605296   0.995240
   22        4.020089   0.000000
   23        4.169595   0.000000
   24        4.473996   0.000000
   25        4.682791   0.000000
   26        4.870564   0.000000
   27        5.374329   0.000000
   28        5.708207   0.000000
 
  0.2222222E+00  0.3885781E-15  0.3608225E-15  0.2743484E-02
    1      -34.049006   1.000000
    2      -33.534781   1.000000
    3      -29.221955   1.000000
    4      -29.201299   1.000000
    5      -29.190310   1.000000
    6      -16.184982   1.000000
    7      -16.147371   1.000000
    8      -16.133445   1.000000
    9      -15.637307   1.000000
   10      -15.602597   1.000000
   11      -15.574693   1.000000
   12       -6.051122   1.000000
   13       -4.094669   1.000000
   14       -2.651597   1.000000
   15       -2.190520   1.000000
   16       -1.826581   1.000000
   17       -1.777215   1.000000
   18       -1.367292   1.000000
   19       -1.228597   1.000000
   20       -0.792352   1.000000
   21        1.715432   1.051069
   22        3.870392   0.000000
   23        4.101456   0.000000
   24        4.351622   0.000000
   25        4.499510   0.000000
   26        4.904384   0.000000
   27        5.459145   0.000000
   28        5.995452   0.000000
 
  0.3333333E+00  0.3781697E-15  0.3885781E-15  0.2743484E-02
    1      -34.047770   1.000000
    2      -33.536152   1.000000
    3      -29.222090   1.000000
    4      -29.201117   1.000000
    5      -29.190471   1.000000
    6      -16.177696   1.000000
    7      -16.156761   1.000000
    8      -16.141598   1.000000
    9      -15.654932   1.000000
   10      -15.593926   1.000000
   11      -15.567624   1.000000
   12       -5.734604   1.000000
   13       -4.313063   1.000000
   14       -2.734663   1.000000
   15       -2.395460   1.000000
   16       -1.881784   1.000000
   17       -1.604749   1.000000
   18       -1.319648   1.000000
   19       -1.193073   1.000000
   20       -0.787886   1.000000
   21        1.860063   0.093770
   22        3.718983   0.000000
   23        3.956535   0.000000
   24        4.159066   0.000000
   25        4.404104   0.000000
   26        4.884166   0.000000
   27        5.343919   0.000000
   28        6.025898   0.000000
 
  0.4444444E+00  0.4093947E-15  0.3885781E-15  0.2743484E-02
    1      -34.046956   1.000000
    2      -33.537046   1.000000
    3      -29.222089   1.000000
    4      -29.200917   1.000000
    5      -29.190488   1.000000
    6      -16.178299   1.000000
    7      -16.165916   1.000000
    8      -16.136598   1.000000
    9      -15.669099   1.000000
   10      -15.589010   1.000000
   11      -15.560618   1.000000
   12       -5.495216   1.000000
   13       -4.443027   1.000000
   14       -2.868657   1.000000
   15       -2.547016   1.000000
   16       -1.893949   1.000000
   17       -1.460707   1.000000
   18       -1.265525   1.000000
   19       -1.073353   1.000000
   20       -0.860541   1.000000
   21        1.949827  -0.024080
   22        3.651635   0.000000
   23        3.834653   0.000000
   24        4.007487   0.000000
   25        4.387322   0.000000
   26        4.837255   0.000000
   27        5.325453   0.000000
   28        5.744686   0.000000
 
  0.3736161E-15  0.1111111E+00  0.3747003E-15  0.2743484E-02
    1      -34.050216   1.000000
    2      -33.533407   1.000000
    3      -29.221853   1.000000
    4      -29.201451   1.000000
    5      -29.190113   1.000000
    6      -16.204125   1.000000
    7      -16.139444   1.000000
    8      -16.115303   1.000000
    9      -15.626718   1.000000
   10      -15.617885   1.000000
   11      -15.566006   1.000000
   12       -6.305643   1.000000
   13       -3.797061   1.000000
   14       -2.802246   1.000000
   15       -2.026291   1.000000
   16       -1.882980   1.000000
   17       -1.621894   1.000000
   18       -1.443797   1.000000
   19       -1.164757   1.000000
   20       -0.859326   1.000000
   21        1.597210   0.995666
   22        3.917674   0.000000
   23        4.195836   0.000000
   24        4.473739   0.000000
   25        4.719092   0.000000
   26        4.886574   0.000000
   27        5.238000   0.000000
   28        5.792732   0.000000
 
  0.1111111E+00  0.1111111E+00  0.4024558E-15  0.2743484E-02
    1      -34.050126   1.000000
    2      -33.533535   1.000000
    3      -29.221823   1.000000
    4      -29.201643   1.000000
    5      -29.190082   1.000000
    6      -16.197629   1.000000
    7      -16.139188   1.000000
    8      -16.115573   1.000000
    9      -15.625009   1.000000
   10      -15.619111   1.000000
   11      -15.570758   1.000000
   12       -6.317996   1.000000
   13       -3.833058   1.000000
   14       -2.775545   1.000000
   15       -2.067821   1.000000
   16       -1.898428   1.000000
   17       -1.605249   1.000000
   18       -1.421751   1.000000
   19       -1.100784   1.000000
   20       -0.886772   1.000000
   21        1.593158   0.995936
   22        3.870611   0.000000
   23        4.189582   0.000000
   24        4.412321   0.000000
   25        4.662956   0.000000
   26        4.844904   0.000000
   27        5.378748   0.000000
   28        5.808304   0.000000
 
  0.2222222E+00  0.1111111E+00  0.3747003E-15  0.2743484E-02
    1      -34.049306   1.000000
    2      -33.534474   1.000000
    3      -29.221903   1.000000
    4      -29.201598   1.000000
    5      -29.190245   1.000000
    6      -16.183212   1.000000
    7      -16.146999   1.000000
    8      -16.125908   1.000000
    9      -15.628307   1.000000
   10      -15.612595   1.000000
   11      -15.576830   1.000000
   12       -6.159163   1.000000
   13       -4.022647   1.000000
   14       -2.676524   1.000000
   15       -2.184256   1.000000
   16       -1.859283   1.000000
   17       -1.671218   1.000000
   18       -1.369957   1.000000
   19       -1.195440   1.000000
   20       -0.835171   1.000000
   21        1.664898   1.010535
   22        3.767101   0.000000
   23        4.047353   0.000000
   24        4.334492   0.000000
   25        4.642266   0.000000
   26        4.894714   0.000000
   27        5.508202   0.000000
   28        6.046127   0.000000
 
  0.3333333E+00  0.1111111E+00  0.4163336E-15  0.2743484E-02
    1      -34.048133   1.000000
    2      -33.535782   1.000000
    3      -29.222039   1.000000
    4      -29.201356   1.000000
    5      -29.190336   1.000000
    6      -16.170407   1.000000
    7      -16.156733   1.000000
    8      -16.138448   1.000000
    9      -15.643961   1.000000
   10      -15.604199   1.000000
   11      -15.571112   1.000000
   12       -5.876800   1.000000
   13       -4.249638   1.000000
   14       -2.704732   1.000000
   15       -2.325987   1.000000
   16       -1.811297   1.000000
   17       -1.664084   1.000000
   18       -1.352046   1.000000
   19       -1.197985   1.000000
   20       -0.811407   1.000000
   21        1.803300   0.626986
   22        3.628434   0.000000
   23        3.877384   0.000000
   24        4.177164   0.000000
   25        4.590969   0.000000
   26        4.948111   0.000000
   27        5.404466   0.000000
   28        6.144278   0.000000
 
  0.4444444E+00  0.1111111E+00  0.3885781E-15  0.2743484E-02
    1      -34.047151   1.000000
    2      -33.536851   1.000000
    3      -29.222048   1.000000
    4      -29.201078   1.000000
    5      -29.190482   1.000000
    6      -16.177495   1.000000
    7      -16.162232   1.000000
    8      -16.136311   1.000000
    9      -15.662269   1.000000
   10      -15.594605   1.000000
   11      -15.562264   1.000000
   12       -5.583512   1.000000
   13       -4.407814   1.000000
   14       -2.843534   1.000000
   15       -2.487009   1.000000
   16       -1.846365   1.000000
   17       -1.509338   1.000000
   18       -1.312041   1.000000
   19       -1.091141   1.000000
   20       -0.859840   1.000000
   21        1.922413  -0.048023
   22        3.587428   0.000000
   23        3.769570   0.000000
   24        4.038698   0.000000
   25        4.441914   0.000000
   26        4.871452   0.000000
   27        5.432112   0.000000
   28        5.963683   0.000000
 
 -0.4444444E+00  0.1111111E+00  0.3330669E-15  0.2743484E-02
    1      -34.046829   1.000000
    2      -33.537175   1.000000
    3      -29.221985   1.000000
    4      -29.200899   1.000000
    5      -29.190582   1.000000
    6      -16.186995   1.000000
    7      -16.165379   1.000000
    8      -16.132584   1.000000
    9      -15.668406   1.000000
   10      -15.588428   1.000000
   11      -15.558950   1.000000
   12       -5.452419   1.000000
   13       -4.428486   1.000000
   14       -2.884901   1.000000
   15       -2.614244   1.000000
   16       -1.873644   1.000000
   17       -1.443041   1.000000
   18       -1.291074   1.000000
   19       -1.051088   1.000000
   20       -0.862403   1.000000
   21        1.959068  -0.015884
   22        3.625661   0.000000
   23        3.784892   0.000000
   24        3.964984   0.000000
   25        4.368841   0.000000
   26        4.865009   0.000000
   27        5.363260   0.000000
   28        5.760316   0.000000
 
 -0.3333333E+00  0.1111111E+00  0.3330669E-15  0.2743484E-02
    1      -34.047327   1.000000
    2      -33.536611   1.000000
    3      -29.222087   1.000000
    4      -29.201052   1.000000
    5      -29.190519   1.000000
    6      -16.192213   1.000000
    7      -16.160421   1.000000
    8      -16.137299   1.000000
    9      -15.659518   1.000000
   10      -15.588392   1.000000
   11      -15.562270   1.000000
   12       -5.570195   1.000000
   13       -4.328009   1.000000
   14       -2.801520   1.000000
   15       -2.543565   1.000000
   16       -1.895971   1.000000
   17       -1.519379   1.000000
   18       -1.318692   1.000000
   19       -1.209665   1.000000
   20       -0.756341   1.000000
   21        1.913261  -0.051497
   22        3.668522   0.000000
   23        3.894782   0.000000
   24        4.121145   0.000000
   25        4.394602   0.000000
   26        4.828161   0.000000
   27        5.233316   0.000000
   28        5.972219   0.000000
 
 -0.2222222E+00  0.1111111E+00  0.3053113E-15  0.2743484E-02
    1      -34.048396   1.000000
    2      -33.535409   1.000000
    3      -29.222034   1.000000
    4      -29.201039   1.000000
    5      -29.190443   1.000000
    6      -16.196076   1.000000
    7      -16.152621   1.000000
    8      -16.136932   1.000000
    9      -15.643274   1.000000
   10      -15.595639   1.000000
   11      -15.566938   1.000000
   12       -5.843711   1.000000
   13       -4.151527   1.000000
   14       -2.677078   1.000000
   15       -2.321026   1.000000
   16       -1.876777   1.000000
   17       -1.713700   1.000000
   18       -1.409159   1.000000
   19       -1.264584   1.000000
   20       -0.719705   1.000000
   21        1.794142   0.717572
   22        3.781807   0.000000
   23        4.039530   0.000000
   24        4.361896   0.000000
   25        4.423139   0.000000
   26        4.790064   0.000000
   27        5.398084   0.000000
   28        6.169026   0.000000
 
 -0.1111111E+00  0.1111111E+00  0.3330669E-15  0.2743484E-02
    1      -34.049537   1.000000
    2      -33.534147   1.000000
    3      -29.221967   1.000000
    4      -29.201248   1.000000
    5      -29.190295   1.000000
    6      -16.202083   1.000000
    7      -16.146062   1.000000
    8      -16.124948   1.000000
    9      -15.631653   1.000000
   10      -15.607548   1.000000
   11      -15.567302   1.000000
   12       -6.127802   1.000000
   13       -3.941175   1.000000
   14       -2.720134   1.000000
   15       -2.051145   1.000000
   16       -1.883925   1.000000
   17       -1.740992   1.000000
   18       -1.451098   1.000000
   19       -1.277718   1.000000
   20       -0.768695   1.000000
   21        1.665679   1.011099
   22        3.915465   0.000000
   23        4.162170   0.000000
   24        4.460175   0.000000
   25        4.561598   0.000000
   26        4.857951   0.000000
   27        5.537547   0.000000
   28        5.736094   0.000000
 
  0.3720982E-15  0.2222222E+00  0.3747003E-15  0.2743484E-02
    1      -34.049478   1.000000
    2      -33.534166   1.000000
    3      -29.221892   1.000000
    4      -29.201246   1.000000
    5      -29.190283   1.000000
    6      -16.212702   1.000000
    7      -16.151217   1.000000
    8      -16.119998   1.000000
    9      -15.625882   1.000000
   10      -15.614369   1.000000
   11      -15.558316   1.000000
   12       -6.088041   1.000000
   13       -3.859870   1.000000
   14       -2.791802   1.000000
   15       -2.049836   1.000000
   16       -1.930650   1.000000
   17       -1.655542   1.000000
   18       -1.568914   1.000000
   19       -1.250945   1.000000
   20       -0.739067   1.000000
   21        1.663913   1.009839
   22        3.729653   0.000000
   23        4.055980   0.000000
   24        4.452964   0.000000
   25        4.604539   0.000000
   26        4.877784   0.000000
   27        5.346689   0.000000
   28        5.901260   0.000000
 
  0.1111111E+00  0.2222222E+00  0.3747003E-15  0.2743484E-02
    1      -34.049640   1.000000
    2      -33.534025   1.000000
    3      -29.221792   1.000000
    4      -29.201444   1.000000
    5      -29.190132   1.000000
    6      -16.205624   1.000000
    7      -16.144991   1.000000
    8      -16.116741   1.000000
    9      -15.625722   1.000000
   10      -15.618646   1.000000
   11      -15.562822   1.000000
   12       -6.186046   1.000000
   13       -3.856210   1.000000
   14       -2.797544   1.000000
   15       -2.101573   1.000000
   16       -1.903559   1.000000
   17       -1.604538   1.000000
   18       -1.520409   1.000000
   19       -1.080010   1.000000
   20       -0.844754   1.000000
   21        1.631166   0.996328
   22        3.634529   0.000000
   23        4.071947   0.000000
   24        4.378335   0.000000
   25        4.603800   0.000000
   26        4.866335   0.000000
   27        5.339241   0.000000
   28        6.044993   0.000000
 
  0.2222222E+00  0.2222222E+00  0.4163336E-15  0.2743484E-02
    1      -34.049157   1.000000
    2      -33.534618   1.000000
    3      -29.221811   1.000000
    4      -29.201718   1.000000
    5      -29.190147   1.000000
    6      -16.190188   1.000000
    7      -16.148297   1.000000
    8      -16.121319   1.000000
    9      -15.627063   1.000000
   10      -15.615858   1.000000
   11      -15.571669   1.000000
   12       -6.127482   1.000000
   13       -4.002344   1.000000
   14       -2.730880   1.000000
   15       -2.184840   1.000000
   16       -1.879423   1.000000
   17       -1.600685   1.000000
   18       -1.460883   1.000000
   19       -1.115007   1.000000
   20       -0.839980   1.000000
   21        1.659518   1.006944
   22        3.555442   0.000000
   23        3.951450   0.000000
   24        4.260326   0.000000
   25        4.594783   0.000000
   26        4.850906   0.000000
   27        5.606933   0.000000
   28        6.136525   0.000000
 
  0.3333333E+00  0.2222222E+00  0.4163336E-15  0.2743484E-02
    1      -34.048242   1.000000
    2      -33.535662   1.000000
    3      -29.221891   1.000000
    4      -29.201627   1.000000
    5      -29.190240   1.000000
    6      -16.171709   1.000000
    7      -16.159660   1.000000
    8      -16.131096   1.000000
    9      -15.633506   1.000000
   10      -15.612766   1.000000
   11      -15.571939   1.000000
   12       -5.926879   1.000000
   13       -4.209274   1.000000
   14       -2.728690   1.000000
   15       -2.260421   1.000000
   16       -1.804994   1.000000
   17       -1.653001   1.000000
   18       -1.374664   1.000000
   19       -1.242611   1.000000
   20       -0.797100   1.000000
   21        1.766085   0.935104
   22        3.454808   0.000000
   23        3.701881   0.000000
   24        4.142489   0.000000
   25        4.738680   0.000000
   26        4.945996   0.000000
   27        5.551236   0.000000
   28        6.200856   0.000000
 
  0.4444444E+00  0.2222222E+00  0.3885781E-15  0.2743484E-02
    1      -34.047316   1.000000
    2      -33.536671   1.000000
    3      -29.221932   1.000000
    4      -29.201305   1.000000
    5      -29.190315   1.000000
    6      -16.179804   1.000000
    7      -16.158306   1.000000
    8      -16.134119   1.000000
    9      -15.651273   1.000000
   10      -15.602386   1.000000
   11      -15.564006   1.000000
   12       -5.658690   1.000000
   13       -4.366478   1.000000
   14       -2.866400   1.000000
   15       -2.353440   1.000000
   16       -1.781489   1.000000
   17       -1.590234   1.000000
   18       -1.399740   1.000000
   19       -1.132962   1.000000
   20       -0.822264   1.000000
   21        1.887408  -0.025940
   22        3.391908   0.000000
   23        3.594243   0.000000
   24        4.044882   0.000000
   25        4.711192   0.000000
   26        4.906093   0.000000
   27        5.416677   0.000000
   28        6.126012   0.000000
 
 -0.4444444E+00  0.2222222E+00  0.3330669E-15  0.2743484E-02
    1      -34.046822   1.000000
    2      -33.537170   1.000000
    3      -29.221929   1.000000
    4      -29.200993   1.000000
    5      -29.190422   1.000000
    6      -16.195593   1.000000
    7      -16.160963   1.000000
    8      -16.129451   1.000000
    9      -15.661600   1.000000
   10      -15.592576   1.000000
   11      -15.557995   1.000000
   12       -5.467930   1.000000
   13       -4.387239   1.000000
   14       -2.951529   1.000000
   15       -2.549225   1.000000
   16       -1.809472   1.000000
   17       -1.480873   1.000000
   18       -1.392193   1.000000
   19       -1.007142   1.000000
   20       -0.863695   1.000000
   21        1.942348  -0.031221
   22        3.487707   0.000000
   23        3.605194   0.000000
   24        3.981308   0.000000
   25        4.448909   0.000000
   26        4.909858   0.000000
   27        5.412888   0.000000
   28        5.966514   0.000000
 
 -0.3333333E+00  0.2222222E+00  0.2775558E-15  0.2743484E-02
    1      -34.047001   1.000000
    2      -33.536933   1.000000
    3      -29.222116   1.000000
    4      -29.200936   1.000000
    5      -29.190551   1.000000
    6      -16.206593   1.000000
    7      -16.160580   1.000000
    8      -16.133217   1.000000
    9      -15.657317   1.000000
   10      -15.589274   1.000000
   11      -15.556466   1.000000
   12       -5.465068   1.000000
   13       -4.284631   1.000000
   14       -2.916418   1.000000
   15       -2.637917   1.000000
   16       -1.852872   1.000000
   17       -1.477102   1.000000
   18       -1.374332   1.000000
   19       -1.172600   1.000000
   20       -0.744326   1.000000
   21        1.933671  -0.039375
   22        3.596311   0.000000
   23        3.765249   0.000000
   24        3.987427   0.000000
   25        4.402117   0.000000
   26        4.885905   0.000000
   27        5.219346   0.000000
   28        5.954264   0.000000
 
 -0.2222222E+00  0.2222222E+00  0.3885781E-15  0.2743484E-02
    1      -34.047761   1.000000
    2      -33.536065   1.000000
    3      -29.222159   1.000000
    4      -29.200970   1.000000
    5      -29.190590   1.000000
    6      -16.211254   1.000000
    7      -16.158951   1.000000
    8      -16.136797   1.000000
    9      -15.643377   1.000000
   10      -15.594039   1.000000
   11      -15.557510   1.000000
   12       -5.626289   1.000000
   13       -4.148060   1.000000
   14       -2.805406   1.000000
   15       -2.497254   1.000000
   16       -1.876187   1.000000
   17       -1.593534   1.000000
   18       -1.488209   1.000000
   19       -1.271894   1.000000
   20       -0.669225   1.000000
   21        1.864981   0.063864
   22        3.641823   0.000000
   23        3.908722   0.000000
   24        4.202795   0.000000
   25        4.491523   0.000000
   26        4.720679   0.000000
   27        5.327342   0.000000
   28        5.931917   0.000000
 
 -0.1111111E+00  0.2222222E+00  0.3608225E-15  0.2743484E-02
    1      -34.048738   1.000000
    2      -33.534970   1.000000
    3      -29.222074   1.000000
    4      -29.201050   1.000000
    5      -29.190440   1.000000
    6      -16.213069   1.000000
    7      -16.158290   1.000000
    8      -16.129129   1.000000
    9      -15.630946   1.000000
   10      -15.603895   1.000000
   11      -15.558213   1.000000
   12       -5.872316   1.000000
   13       -3.991456   1.000000
   14       -2.743669   1.000000
   15       -2.213222   1.000000
   16       -1.906633   1.000000
   17       -1.732219   1.000000
   18       -1.563869   1.000000
   19       -1.295040   1.000000
   20       -0.666246   1.000000
   21        1.752358   0.999241
   22        3.723305   0.000000
   23        3.981263   0.000000
   24        4.384387   0.000000
   25        4.555759   0.000000
   26        4.775787   0.000000
   27        5.551093   0.000000
   28        5.819534   0.000000
 
  0.3751340E-15  0.3333333E+00  0.3885781E-15  0.2743484E-02
    1      -34.048635   1.000000
    2      -33.535035   1.000000
    3      -29.221979   1.000000
    4      -29.201050   1.000000
    5      -29.190470   1.000000
    6      -16.222346   1.000000
    7      -16.166645   1.000000
    8      -16.124519   1.000000
    9      -15.621630   1.000000
   10      -15.611580   1.000000
   11      -15.550105   1.000000
   12       -5.810315   1.000000
   13       -3.915079   1.000000
   14       -2.790041   1.000000
   15       -2.229548   1.000000
   16       -2.035113   1.000000
   17       -1.704723   1.000000
   18       -1.548681   1.000000
   19       -1.288062   1.000000
   20       -0.636843   1.000000
   21        1.746147   1.019056
   22        3.572547   0.000000
   23        3.860077   0.000000
   24        4.305733   0.000000
   25        4.537973   0.000000
   26        4.860077   0.000000
   27        5.470240   0.000000
   28        5.924762   0.000000
 
  0.1111111E+00  0.3333333E+00  0.3885781E-15  0.2743484E-02
    1      -34.048853   1.000000
    2      -33.534827   1.000000
    3      -29.221837   1.000000
    4      -29.201196   1.000000
    5      -29.190245   1.000000
    6      -16.216425   1.000000
    7      -16.156006   1.000000
    8      -16.121154   1.000000
    9      -15.625504   1.000000
   10      -15.614960   1.000000
   11      -15.553387   1.000000
   12       -5.943443   1.000000
   13       -3.910741   1.000000
   14       -2.806632   1.000000
   15       -2.220581   1.000000
   16       -1.955095   1.000000
   17       -1.671344   1.000000
   18       -1.525412   1.000000
   19       -1.137969   1.000000
   20       -0.725777   1.000000
   21        1.701243   1.042841
   22        3.456349   0.000000
   23        3.884196   0.000000
   24        4.378201   0.000000
   25        4.500653   0.000000
   26        4.863885   0.000000
   27        5.351119   0.000000
   28        5.898599   0.000000
 
  0.2222222E+00  0.3333333E+00  0.3538836E-15  0.2743484E-02
    1      -34.048626   1.000000
    2      -33.535153   1.000000
    3      -29.221838   1.000000
    4      -29.201535   1.000000
    5      -29.190200   1.000000
    6      -16.202423   1.000000
    7      -16.151258   1.000000
    8      -16.122173   1.000000
    9      -15.632755   1.000000
   10      -15.611775   1.000000
   11      -15.561811   1.000000
   12       -5.967073   1.000000
   13       -4.037256   1.000000
   14       -2.797389   1.000000
   15       -2.196936   1.000000
   16       -1.897757   1.000000
   17       -1.647879   1.000000
   18       -1.529588   1.000000
   19       -1.013282   1.000000
   20       -0.814948   1.000000
   21        1.699835   1.041666
   22        3.315653   0.000000
   23        3.832917   0.000000
   24        4.157424   0.000000
   25        4.581781   0.000000
   26        4.895450   0.000000
   27        5.513732   0.000000
   28        5.972707   0.000000
 
  0.3333333E+00  0.3333333E+00  0.3747003E-15  0.2743484E-02
    1      -34.048047   1.000000
    2      -33.535850   1.000000
    3      -29.221856   1.000000
    4      -29.201706   1.000000
    5      -29.190190   1.000000
    6      -16.181797   1.000000
    7      -16.158988   1.000000
    8      -16.126931   1.000000
    9      -15.635064   1.000000
   10      -15.611062   1.000000
   11      -15.568112   1.000000
   12       -5.861105   1.000000
   13       -4.235927   1.000000
   14       -2.773162   1.000000
   15       -2.194036   1.000000
   16       -1.836879   1.000000
   17       -1.642371   1.000000
   18       -1.477836   1.000000
   19       -1.176038   1.000000
   20       -0.764903   1.000000
   21        1.761230   0.961090
   22        3.230170   0.000000
   23        3.597762   0.000000
   24        4.047191   0.000000
   25        4.717064   0.000000
   26        4.926474   0.000000
   27        5.690994   0.000000
   28        6.129437   0.000000
 
  0.4444444E+00  0.3333333E+00  0.3608225E-15  0.2743484E-02
    1      -34.047385   1.000000
    2      -33.536595   1.000000
    3      -29.221878   1.000000
    4      -29.201623   1.000000
    5      -29.190270   1.000000
    6      -16.177105   1.000000
    7      -16.161867   1.000000
    8      -16.131861   1.000000
    9      -15.642901   1.000000
   10      -15.607832   1.000000
   11      -15.565243   1.000000
   12       -5.674868   1.000000
   13       -4.390769   1.000000
   14       -2.859470   1.000000
   15       -2.195717   1.000000
   16       -1.776799   1.000000
   17       -1.664970   1.000000
   18       -1.456279   1.000000
   19       -1.210916   1.000000
   20       -0.755241   1.000000
   21        1.860087   0.093617
   22        3.160216   0.000000
   23        3.441684   0.000000
   24        3.973465   0.000000
   25        4.884944   0.000000
   26        4.969883   0.000000
   27        5.488454   0.000000
   28        6.080171   0.000000
 
 -0.4444444E+00  0.3333333E+00  0.3330669E-15  0.2743484E-02
    1      -34.046951   1.000000
    2      -33.537040   1.000000
    3      -29.221961   1.000000
    4      -29.201339   1.000000
    5      -29.190332   1.000000
    6      -16.196903   1.000000
    7      -16.156656   1.000000
    8      -16.129785   1.000000
    9      -15.653179   1.000000
   10      -15.598724   1.000000
   11      -15.559035   1.000000
   12       -5.513319   1.000000
   13       -4.392678   1.000000
   14       -2.992561   1.000000
   15       -2.338991   1.000000
   16       -1.769372   1.000000
   17       -1.580712   1.000000
   18       -1.513268   1.000000
   19       -1.017885   1.000000
   20       -0.814182   1.000000
   21        1.907212  -0.051024
   22        3.194203   0.000000
   23        3.487924   0.000000
   24        3.954534   0.000000
   25        4.688485   0.000000
   26        4.953761   0.000000
   27        5.390621   0.000000
   28        5.970319   0.000000
 
 -0.3333333E+00  0.3333333E+00  0.4440892E-15  0.2743484E-02
    1      -34.046953   1.000000
    2      -33.536975   1.000000
    3      -29.222057   1.000000
    4      -29.201065   1.000000
    5      -29.190417   1.000000
    6      -16.213390   1.000000
    7      -16.157340   1.000000
    8      -16.131275   1.000000
    9      -15.651969   1.000000
   10      -15.593958   1.000000
   11      -15.553639   1.000000
   12       -5.461739   1.000000
   13       -4.245522   1.000000
   14       -3.040584   1.000000
   15       -2.528236   1.000000
   16       -1.813417   1.000000
   17       -1.539752   1.000000
   18       -1.466351   1.000000
   19       -1.047109   1.000000
   20       -0.761274   1.000000
   21        1.904356  -0.049826
   22        3.388114   0.000000
   23        3.596594   0.000000
   24        3.989855   0.000000
   25        4.485898   0.000000
   26        4.968058   0.000000
   27        5.138238   0.000000
   28        5.947881   0.000000
 
 -0.2222222E+00  0.3333333E+00  0.3885781E-15  0.2743484E-02
    1      -34.047393   1.000000
    2      -33.536437   1.000000
    3      -29.222104   1.000000
    4      -29.201019   1.000000