   13   13   60    1
  0.5928092E+01  0.2824270E-09  0.4681920E-09  0.5915295E-09  0.5000000E-15
  1.000000000000000E-004
  CAR 
 unknown system                          
     13    442     16
 
  0.3742002E-15  0.3742002E-15  0.3742002E-15  0.1133787E-02
    1      -12.389470   1.000000
    2       -9.812030   1.000000
    3       -8.401842   1.000000
    4       -8.051457   1.000000
    5       -6.690712   1.000000
    6       -6.436037   1.000000
    7        2.933466   0.000000
    8        3.948081   0.000000
    9        4.808649   0.000000
   10        6.182750   0.000000
   11        6.772037   0.000000
   12        7.060615   0.000000
   13        8.025630   0.000000
   14       10.418535   0.000000
   15       11.054533   0.000000
   16       11.152962   0.000000
 
  0.7142857E-01  0.3745004E-15  0.3712308E-15  0.2267574E-02
    1      -12.301125   1.000000
    2       -9.737358   1.000000
    3       -8.355512   1.000000
    4       -7.989546   1.000000
    5       -6.650665   1.000000
    6       -6.413549   1.000000
    7        2.977276   0.000000
    8        3.846395   0.000000
    9        4.452798   0.000000
   10        4.902089   0.000000
   11        6.395377   0.000000
   12        7.629637   0.000000
   13        9.213161   0.000000
   14        9.645031   0.000000
   15       10.578977   0.000000
   16       11.092235   0.000000
 
  0.1428571E+00  0.3743479E-15  0.3677614E-15  0.2267574E-02
    1      -12.032972   1.000000
    2       -9.519306   1.000000
    3       -8.215868   1.000000
    4       -7.809384   1.000000
    5       -6.535572   1.000000
    6       -6.350980   1.000000
    7        1.877766   0.000000
    8        3.277462   0.000000
    9        4.210805   0.000000
   10        5.065646   0.000000
   11        5.741400   0.000000
   12        6.946085   0.000000
   13        8.559074   0.000000
   14        9.262695   0.000000
   15       10.332125   0.000000
   16       10.843781   0.000000
 
  0.2142857E+00  0.3766789E-15  0.3747003E-15  0.2267574E-02
    1      -11.594553   1.000000
    2       -9.166438   1.000000
    3       -8.000654   1.000000
    4       -7.539678   1.000000
    5       -6.383864   1.000000
    6       -6.261919   1.000000
    7       -0.148757   0.000000
    8        3.496598   0.000000
    9        4.061675   0.000000
   10        4.953986   0.000000
   11        5.306309   0.000000
   12        6.019425   0.000000
   13        7.557121   0.000000
   14        8.435787   0.000000
   15        9.572130   0.000000
   16       10.278226   0.000000
 
  0.2857143E+00  0.3755134E-15  0.3677614E-15  0.2267574E-02
    1      -10.992085   1.000000
    2       -8.694395   1.000000
    3       -7.746412   1.000000
    4       -7.225836   1.000000
    5       -6.322933   1.000000
    6       -6.087442   1.000000
    7       -1.987271   0.911700
    8        3.111699   0.000000
    9        3.652064   0.000000
   10        4.639847   0.000000
   11        5.119514   0.000000
   12        5.960197   0.000000
   13        6.319358   0.000000
   14        7.982667   0.000000
   15        8.886023   0.000000
   16       10.096133   0.000000
 
  0.3571429E+00  0.3800671E-15  0.3816392E-15  0.2267574E-02
    1      -10.249362   1.000000
    2       -8.157691   1.000000
    3       -7.580289   1.000000
    4       -6.939509   1.000000
    5       -6.345746   1.000000
    6       -5.886478   1.000000
    7       -3.566271   1.000000
    8        2.356815   0.000000
    9        3.076662   0.000000
   10        4.222211   0.000000
   11        5.108821   0.000000
   12        5.574335   0.000000
   13        6.255148   0.000000
   14        7.698459   0.000000
   15        8.838862   0.000000
   16       10.363335   0.000000
 
  0.4285714E+00  0.3797960E-15  0.3885781E-15  0.2267574E-02
    1       -9.412622   1.000000
    2       -7.900131   1.000000
    3       -7.527621   1.000000
    4       -6.669430   1.000000
    5       -6.313895   1.000000
    6       -5.735442   1.000000
    7       -4.810514   1.000000
    8        1.831276   0.000000
    9        2.678464   0.000000
   10        3.571698   0.000000
   11        4.840610   0.000000
   12        5.445707   0.000000
   13        6.668160   0.000000
   14        8.043467   0.000000
   15        9.166811   0.000000
   16       10.033358   0.000000
 
  0.5000000E+00  0.3795521E-15  0.3747003E-15  0.1133787E-02
    1       -8.722345   1.000000
    2       -8.356937   1.000000
    3       -7.341404   1.000000
    4       -6.383949   1.000000
    5       -6.310412   1.000000
    6       -5.680005   1.000000
    7       -5.431305   1.000000
    8        1.637800   0.000000
    9        2.609140   0.000000
   10        3.242872   0.000000
   11        4.690521   0.000000
   12        5.388333   0.000000
   13        6.970516   0.000000
   14        8.745623   0.000000
   15        9.026402   0.000000
   16        9.241580   0.000000
 
  0.3742124E-15  0.1111111E+00  0.3747003E-15  0.2267574E-02
    1      -12.342973   1.000000
    2       -9.815825   1.000000
    3       -8.387401   1.000000
    4       -8.183613   1.000000
    5       -6.704795   1.000000
    6       -6.448931   1.000000
    7        3.070989   0.000000
    8        4.029299   0.000000
    9        4.917401   0.000000
   10        6.343463   0.000000
   11        6.825784   0.000000
   12        7.100834   0.000000
   13        8.060988   0.000000
   14       10.256984   0.000000
   15       11.056753   0.000000
   16       11.119342   0.000000
 
  0.7142857E-01  0.1111111E+00  0.3747003E-15  0.2267574E-02
    1      -12.246923   1.000000
    2       -9.744654   1.000000
    3       -8.364416   1.000000
    4       -8.091504   1.000000
    5       -6.660265   1.000000
    6       -6.428420   1.000000
    7        3.137794   0.000000
    8        3.907747   0.000000
    9        4.318268   0.000000
   10        5.211542   0.000000
   11        6.594963   0.000000
   12        7.670426   0.000000
   13        9.207085   0.000000
   14        9.654027   0.000000
   15       10.366495   0.000000
   16       11.104209   0.000000
 
  0.1428571E+00  0.1111111E+00  0.3747003E-15  0.2267574E-02
    1      -11.977765   1.000000
    2       -9.533329   1.000000
    3       -8.241496   1.000000
    4       -7.894480   1.000000
    5       -6.552690   1.000000
    6       -6.366991   1.000000
    7        1.893385   0.000000
    8        3.427330   0.000000
    9        4.217915   0.000000
   10        5.085165   0.000000
   11        6.172338   0.000000
   12        7.019300   0.000000
   13        8.474781   0.000000
   14        9.026461   0.000000
   15       10.297259   0.000000
   16       10.657111   0.000000
 
  0.2142857E+00  0.1111111E+00  0.3816392E-15  0.2267574E-02
    1      -11.534422   1.000000
    2       -9.185002   1.000000
    3       -8.028718   1.000000
    4       -7.616706   1.000000
    5       -6.421469   1.000000
    6       -6.264528   1.000000
    7       -0.148832   0.000000
    8        3.689673   0.000000
    9        4.093056   0.000000
   10        4.738289   0.000000
   11        5.604382   0.000000
   12        6.450989   0.000000
   13        7.462443   0.000000
   14        8.193959   0.000000
   15        8.985715   0.000000
   16       10.736135   0.000000
 
  0.2857143E+00  0.1111111E+00  0.3608225E-15  0.2267574E-02
    1      -10.924132   1.000000
    2       -8.715743   1.000000
    3       -7.762624   1.000000
    4       -7.318384   1.000000
    5       -6.363102   1.000000
    6       -6.091956   1.000000
    7       -1.994606   0.953965
    8        3.147724   0.000000
    9        3.802142   0.000000
   10        4.575042   0.000000
   11        5.260104   0.000000
   12        6.019214   0.000000
   13        6.646654   0.000000
   14        7.495364   0.000000
   15        8.490187   0.000000
   16       10.668105   0.000000
 
  0.3571429E+00  0.1111111E+00  0.3747003E-15  0.2267574E-02
    1      -10.175137   1.000000
    2       -8.171940   1.000000
    3       -7.567940   1.000000
    4       -7.079389   1.000000
    5       -6.352311   1.000000
    6       -5.903393   1.000000
    7       -3.587425   1.000000
    8        2.381157   0.000000
    9        3.111402   0.000000
   10        4.346889   0.000000
   11        5.195168   0.000000
   12        5.423864   0.000000
   13        6.520760   0.000000
   14        7.257670   0.000000
   15        8.661296   0.000000
   16       10.822787   0.000000
 
  0.4285714E+00  0.1111111E+00  0.3469447E-15  0.2267574E-02
    1       -9.330005   1.000000
    2       -7.852103   1.000000
    3       -7.558536   1.000000
    4       -6.829529   1.000000
    5       -6.269199   1.000000
    6       -5.756997   1.000000
    7       -4.861947   1.000000
    8        1.855427   0.000000
    9        2.674626   0.000000
   10        3.619326   0.000000
   11        4.863887   0.000000
   12        5.355404   0.000000
   13        6.784853   0.000000
   14        7.792235   0.000000
   15        9.016523   0.000000
   16       10.611594   0.000000
 
  0.5000000E+00  0.1111111E+00  0.3747003E-15  0.2267574E-02
    1       -8.671016   1.000000
    2       -8.306032   1.000000
    3       -7.304354   1.000000
    4       -6.523829   1.000000
    5       -6.289994   1.000000
    6       -5.730721   1.000000
    7       -5.484625   1.000000
    8        1.658951   0.000000
    9        2.585866   0.000000
   10        3.225283   0.000000
   11        4.644809   0.000000
   12        5.339464   0.000000
   13        7.102499   0.000000
   14        8.645295   0.000000
   15        9.069438   0.000000
   16        9.776813   0.000000
 
 -0.4285714E+00  0.1111111E+00  0.3816392E-15  0.2267574E-02
    1       -9.385791   1.000000
    2       -7.861398   1.000000
    3       -7.439668   1.000000
    4       -6.714925   1.000000
    5       -6.391029   1.000000
    6       -5.828928   1.000000
    7       -4.829324   1.000000
    8        1.856165   0.000000
    9        2.609458   0.000000
   10        3.508644   0.000000
   11        4.787946   0.000000
   12        5.439571   0.000000
   13        6.794262   0.000000
   14        8.570644   0.000000
   15        9.308475   0.000000
   16        9.825159   0.000000
 
 -0.3571429E+00  0.1111111E+00  0.3747003E-15  0.2267574E-02
    1      -10.224476   1.000000
    2       -8.117469   1.000000
    3       -7.557741   1.000000
    4       -7.004365   1.000000
    5       -6.391206   1.000000
    6       -5.932963   1.000000
    7       -3.585641   1.000000
    8        2.392195   0.000000
    9        2.941538   0.000000
   10        4.170379   0.000000
   11        5.139662   0.000000
   12        5.542310   0.000000
   13        6.387722   0.000000
   14        8.229132   0.000000
   15        8.895381   0.000000
   16       10.307369   0.000000
 
 -0.2857143E+00  0.1111111E+00  0.3781697E-15  0.2267574E-02
    1      -10.963830   1.000000
    2       -8.667421   1.000000
    3       -7.733257   1.000000
    4       -7.329587   1.000000
    5       -6.380135   1.000000
    6       -6.079171   1.000000
    7       -1.996601   0.964016
    8        3.112924   0.000000
    9        3.570851   0.000000
   10        4.742391   0.000000
   11        5.157007   0.000000
   12        5.713121   0.000000
   13        6.612886   0.000000
   14        8.316444   0.000000
   15        9.147526   0.000000
   16        9.909235   0.000000
 
 -0.2142857E+00  0.1111111E+00  0.3851086E-15  0.2267574E-02
    1      -11.561515   1.000000
    2       -9.148340   1.000000
    3       -7.972364   1.000000
    4       -7.671944   1.000000
    5       -6.453518   1.000000
    6       -6.219780   1.000000
    7       -0.146318   0.000000
    8        3.490109   0.000000
    9        4.228444   0.000000
   10        4.944063   0.000000
   11        5.336960   0.000000
   12        5.944017   0.000000
   13        7.713760   0.000000
   14        8.665865   0.000000
   15        9.820309   0.000000
   16       10.145853   0.000000
 
 -0.1428571E+00  0.1111111E+00  0.3816392E-15  0.2267574E-02
    1      -11.994462   1.000000
    2       -9.510166   1.000000
    3       -8.176294   1.000000
    4       -7.959647   1.000000
    5       -6.575187   1.000000
    6       -6.330965   1.000000
    7        1.892522   0.000000
    8        3.375837   0.000000
    9        4.357040   0.000000
   10        5.061334   0.000000
   11        5.814924   0.000000
   12        6.959487   0.000000
   13        8.625118   0.000000
   14        9.470025   0.000000
   15       10.124631   0.000000
   16       11.112961   0.000000
 
 -0.7142857E-01  0.1111111E+00  0.3781697E-15  0.2267574E-02
    1      -12.257421   1.000000
    2       -9.733548   1.000000
    3       -8.317681   1.000000
    4       -8.139239   1.000000
    5       -6.670071   1.000000
    6       -6.411530   1.000000
    7        3.086213   0.000000
    8        4.010754   0.000000
    9        4.354231   0.000000
   10        5.109441   0.000000
   11        6.481004   0.000000
   12        7.709703   0.000000
   13        9.170101   0.000000
   14        9.631140   0.000000
   15       10.594480   0.000000
   16       11.048152   0.000000
 
  0.3743750E-15  0.2222222E+00  0.3885781E-15  0.2267574E-02
    1      -12.210405   1.000000
    2       -9.842077   1.000000
    3       -8.625463   1.000000
    4       -8.142342   1.000000
    5       -6.810094   1.000000
    6       -6.487851   1.000000
    7        3.468615   0.000000
    8        4.311659   0.000000
    9        5.124492   0.000000
   10        6.652714   0.000000
   11        7.006520   0.000000
   12        7.299322   0.000000
   13        8.144034   0.000000
   14       10.020967   0.000000
   15       10.807593   0.000000
   16       11.107761   0.000000
 
  0.7142857E-01  0.2222222E+00  0.3816392E-15  0.2267574E-02
    1      -12.113545   1.000000
    2       -9.775883   1.000000
    3       -8.614377   1.000000
    4       -8.033233   1.000000
    5       -6.768565   1.000000
    6       -6.479777   1.000000
    7        3.535006   0.000000
    8        4.086405   0.000000
    9        4.396196   0.000000
   10        5.529297   0.000000
   11        7.110423   0.000000
   12        7.830473   0.000000
   13        9.089193   0.000000
   14        9.681730   0.000000
   15       10.057672   0.000000
   16       10.899090   0.000000
 
  0.1428571E+00  0.2222222E+00  0.3747003E-15  0.2267574E-02
    1      -11.839097   1.000000
    2       -9.565225   1.000000
    3       -8.488299   1.000000
    4       -7.829225   1.000000
    5       -6.670602   1.000000
    6       -6.418066   1.000000
    7        1.921126   0.000000
    8        3.767421   0.000000
    9        4.502405   0.000000
   10        5.152533   0.000000
   11        6.730605   0.000000
   12        7.374744   0.000000
   13        8.324803   0.000000
   14        8.780119   0.000000
   15        9.777061   0.000000
   16       10.974514   0.000000
 
  0.2142857E+00  0.2222222E+00  0.3747003E-15  0.2267574E-02
    1      -11.388891   1.000000
    2       -9.218115   1.000000
    3       -8.258866   1.000000
    4       -7.554587   1.000000
    5       -6.556483   1.000000
    6       -6.313309   1.000000
    7       -0.141041   0.000000
    8        3.901796   0.000000
    9        4.307385   0.000000
   10        4.755447   0.000000
   11        5.955904   0.000000
   12        7.065846   0.000000
   13        7.428049   0.000000
   14        7.989115   0.000000
   15        8.490836   0.000000
   16       11.173110   0.000000
 
  0.2857143E+00  0.2222222E+00  0.3747003E-15  0.2267574E-02
    1      -10.772508   1.000000
    2       -8.743933   1.000000
    3       -7.956568   1.000000
    4       -7.277043   1.000000
    5       -6.484755   1.000000
    6       -6.167192   1.000000
    7       -2.006622   1.005352
    8        3.264356   0.000000
    9        3.672020   0.000000
   10        4.838383   0.000000
   11        5.589975   0.000000
   12        6.009216   0.000000
   13        6.976791   0.000000
   14        7.430223   0.000000
   15        8.243065   0.000000
   16       11.315622   0.000000
 
  0.3571429E+00  0.2222222E+00  0.3747003E-15  0.2267574E-02
    1      -10.005643   1.000000
    2       -8.177327   1.000000
    3       -7.656515   1.000000
    4       -7.141706   1.000000
    5       -6.426746   1.000000
    6       -6.015933   1.000000
    7       -3.627967   1.000000
    8        2.500925   0.000000
    9        2.941387   0.000000
   10        4.457074   0.000000
   11        5.105175   0.000000
   12        5.557937   0.000000
   13        6.625110   0.000000
   14        7.679679   0.000000
   15        8.574158   0.000000
   16       11.371438   0.000000
 
  0.4285714E+00  0.2222222E+00  0.3608225E-15  0.2267574E-02
    1       -9.151790   1.000000
    2       -7.735340   1.000000
    3       -7.564481   1.000000
    4       -7.072276   1.000000
    5       -6.319734   1.000000
    6       -5.879558   1.000000
    7       -4.957518   1.000000
    8        1.951834   0.000000
    9        2.553250   0.000000
   10        3.643001   0.000000
   11        4.637691   0.000000
   12        5.291126   0.000000
   13        7.152000   0.000000
   14        8.203821   0.000000
   15        9.079700   0.000000
   16       10.931920   0.000000
 
  0.5000000E+00  0.2222222E+00  0.3608225E-15  0.2267574E-02
    1       -8.522783   1.000000
    2       -8.164737   1.000000
    3       -7.197071   1.000000
    4       -6.786602   1.000000
    5       -6.401098   1.000000
    6       -5.847737   1.000000
    7       -5.612259   1.000000
    8        1.732034   0.000000
    9        2.513282   0.000000
   10        3.196710   0.000000
   11        4.396931   0.000000
   12        5.253382   0.000000
   13        7.504165   0.000000
   14        8.853154   0.000000
   15        9.379001   0.000000
   16       10.356443   0.000000
 
 -0.4285714E+00  0.2222222E+00  0.3955170E-15  0.2267574E-02
    1       -9.258276   1.000000
    2       -7.752162   1.000000
    3       -7.297325   1.000000
    4       -6.952321   1.000000
    5       -6.470766   1.000000
    6       -6.034258   1.000000
    7       -4.894528   1.000000
    8        1.921493   0.000000
    9        2.539939   0.000000
   10        3.439679   0.000000
   11        4.570906   0.000000
   12        5.460994   0.000000
   13        7.120208   0.000000
   14        8.740464   0.000000
   15        9.680104   0.000000
   16       10.363290   0.000000
 
 -0.3571429E+00  0.2222222E+00  0.3920475E-15  0.2267574E-02
    1      -10.097661   1.000000
    2       -8.085688   1.000000
    3       -7.457363   1.000000
    4       -7.232493   1.000000
    5       -6.471102   1.000000
    6       -6.032771   1.000000
    7       -3.625708   1.000000
    8        2.463481   0.000000
    9        2.841565   0.000000
   10        4.106314   0.000000
   11        5.073332   0.000000
   12        5.639386   0.000000
   13        6.755365   0.000000
   14        8.302378   0.000000
   15        9.358807   0.000000
   16       10.563457   0.000000
 
 -0.2857143E+00  0.2222222E+00  0.3920475E-15  0.2267574E-02
    1      -10.840515   1.000000
    2       -8.667991   1.000000
    3       -7.666730   1.000000
    4       -7.578729   1.000000
    5       -6.492326   1.000000
    6       -6.098126   1.000000
    7       -2.005870   1.002769
    8        3.172279   0.000000
    9        3.543828   0.000000
   10        4.787090   0.000000
   11        5.370068   0.000000
   12        5.660338   0.000000
   13        7.096062   0.000000
   14        8.384610   0.000000
   15        9.331686   0.000000
   16       10.149396   0.000000
 
 -0.2142857E+00  0.2222222E+00  0.3794708E-15  0.2267574E-02
    1      -11.436487   1.000000
    2       -9.160481   1.000000
    3       -7.993513   1.000000
    4       -7.850085   1.000000
    5       -6.578793   1.000000
    6       -6.208572   1.000000
    7       -0.128358   0.000000
    8        3.703249   0.000000
    9        4.306081   0.000000
   10        4.947956   0.000000
   11        5.666790   0.000000
   12        6.091463   0.000000
   13        8.018757   0.000000
   14        8.839689   0.000000
   15        9.721196   0.000000
   16       10.270683   0.000000
 
 -0.1428571E+00  0.2222222E+00  0.3833739E-15  0.2267574E-02
    1      -11.872297   1.000000
    2       -9.532777   1.000000
    3       -8.300909   1.000000
    4       -8.042107   1.000000
    5       -6.693437   1.000000
    6       -6.335198   1.000000
    7        1.934119   0.000000
    8        3.731681   0.000000
    9        4.468617   0.000000
   10        5.224862   0.000000
   11        6.254361   0.000000
   12        7.026324   0.000000
   13        8.789744   0.000000
   14        9.603955   0.000000
   15       10.057076   0.000000
   16       10.923216   0.000000
 
 -0.7142857E-01  0.2222222E+00  0.3781697E-15  0.2267574E-02
    1      -12.131276   1.000000
    2       -9.761103   1.000000
    3       -8.519240   1.000000
    4       -8.143438   1.000000
    5       -6.780570   1.000000
    6       -6.438155   1.000000
    7        3.459345   0.000000
    8        4.204077   0.000000
    9        4.410062   0.000000
   10        5.447719   0.000000
   11        6.870073   0.000000
   12        7.845497   0.000000
   13        9.193041   0.000000
   14        9.624906   0.000000
   15       10.515963   0.000000
   16       10.848023   0.000000
 
  0.3751340E-15  0.3333333E+00  0.3747003E-15  0.2267574E-02
    1      -12.030035   1.000000
    2       -9.945636   1.000000
    3       -8.910623   1.000000
    4       -7.930142   1.000000
    5       -6.957852   1.000000
    6       -6.620936   1.000000
    7        4.031565   0.000000
    8        4.717717   0.000000
    9        5.374772   0.000000
   10        6.804614   0.000000
   11        7.082499   0.000000
   12        7.792692   0.000000
   13        8.258858   0.000000
   14        9.920564   0.000000
   15       10.359499   0.000000
   16       10.759591   0.000000
 
  0.7142857E-01  0.3333333E+00  0.3747003E-15  0.2267574E-02
    1      -11.932254   1.000000
    2       -9.878531   1.000000
    3       -8.881893   1.000000
    4       -7.827680   1.000000
    5       -6.920148   1.000000
    6       -6.618647   1.000000
    7        4.065228   0.000000
    8        4.139114   0.000000
    9        4.844762   0.000000
   10        5.743118   0.000000
   11        7.677294   0.000000
   12        8.031785   0.000000
   13        9.025143   0.000000
   14        9.529820   0.000000
   15        9.926816   0.000000
   16       10.556671   0.000000
 
  0.1428571E+00  0.3333333E+00  0.3608225E-15  0.2267574E-02
    1      -11.653305   1.000000
    2       -9.670773   1.000000
    3       -8.731085   1.000000
    4       -7.631141   1.000000
    5       -6.825759   1.000000
    6       -6.560435   1.000000
    7        1.961016   0.000000
    8        4.164218   0.000000
    9        4.817990   0.000000
   10        5.439839   0.000000
   11        7.107595   0.000000
   12        7.898284   0.000000
   13        8.157568   0.000000
   14        8.738339   0.000000
   15        9.416274   0.000000
   16       10.927203   0.000000
 
  0.2142857E+00  0.3333333E+00  0.3469447E-15  0.2267574E-02
    1      -11.194738   1.000000
    2       -9.328970   1.000000
    3       -8.470230   1.000000
    4       -7.361596   1.000000
    5       -6.711948   1.000000
    6       -6.459097   1.000000
    7       -0.118527   0.000000
    8        4.041993   0.000000
    9        4.326695   0.000000
   10        5.162074   0.000000
   11        6.469283   0.000000
   12        7.172628   0.000000
   13        7.613883   0.000000
   14        8.088622   0.000000
   15        8.401351   0.000000
   16       11.058301   0.000000
 
  0.2857143E+00  0.3333333E+00  0.3330669E-15  0.2267574E-02
    1      -10.565579   1.000000
    2       -8.870410   1.000000
    3       -8.124064   1.000000
    4       -7.083345   1.000000
    5       -6.640120   1.000000
    6       -6.337147   1.000000
    7       -2.011255   1.019509
    8        3.379155   0.000000
    9        3.525430   0.000000
   10        4.832980   0.000000
   11        5.891939   0.000000
   12        6.368776   0.000000
   13        6.975071   0.000000
   14        8.092987   0.000000
   15        8.269382   0.000000
   16       11.419073   0.000000
 
  0.3571429E+00  0.3333333E+00  0.3608225E-15  0.2267574E-02
    1       -9.779754   1.000000
    2       -8.317062   1.000000
    3       -7.741568   1.000000
    4       -6.994323   1.000000
    5       -6.561591   1.000000
    6       -6.215326   1.000000
    7       -3.671051   1.000000
    8        2.659710   0.000000
    9        2.776871   0.000000
   10        4.225516   0.000000
   11        4.936447   0.000000
   12        5.714963   0.000000
   13        7.289632   0.000000
   14        8.346133   0.000000
   15        8.755308   0.000000
   16       11.679854   0.000000
 
  0.4285714E+00  0.3333333E+00  0.3469447E-15  0.2267574E-02
    1       -8.902074   1.000000
    2       -7.785959   1.000000
    3       -7.479809   1.000000
    4       -7.170895   1.000000
    5       -6.478556   1.000000
    6       -6.073792   1.000000
    7       -5.037422   1.000000
    8        2.098277   0.000000
    9        2.428976   0.000000
   10        3.587241   0.000000
   11        4.210118   0.000000
   12        5.265432   0.000000
   13        7.878789   0.000000
   14        8.863091   0.000000
   15        9.471699   0.000000
   16       11.099845   0.000000
 
  0.5000000E+00  0.3333333E+00  0.3330669E-15  0.2267574E-02
    1       -8.286731   1.000000
    2       -7.946198   1.000000
    3       -7.141067   1.000000
    4       -7.028492   1.000000
    5       -6.619843   1.000000
    6       -6.051967   1.000000
    7       -5.685135   1.000000
    8        1.870424   0.000000
    9        2.408146   0.000000
   10        3.193181   0.000000
   11        3.988879   0.000000
   12        5.142625   0.000000
   13        8.046675   0.000000
   14        9.402965   0.000000
   15       10.103126   0.000000
   16       10.919059   0.000000
 
 -0.4285714E+00  0.3333333E+00  0.3851086E-15  0.2267574E-02
    1       -9.043245   1.000000
    2       -7.669669   1.000000
    3       -7.275391   1.000000
    4       -7.066586   1.000000
    5       -6.562552   1.000000
    6       -6.315763   1.000000
    7       -4.973635   1.000000
    8        2.037432   0.000000
    9        2.478218   0.000000
   10        3.390434   0.000000
   11        4.226047   0.000000
   12        5.443230   0.000000
   13        7.505985   0.000000
   14        9.196499   0.000000
   15       10.567312   0.000000
   16       11.016078   0.000000
 
 -0.3571429E+00  0.3333333E+00  0.3836449E-15  0.2267574E-02
    1       -9.891350   1.000000
    2       -8.193557   1.000000
    3       -7.463853   1.000000
    4       -7.245276   1.000000
    5       -6.568160   1.000000
    6       -6.204036   1.000000
    7       -3.667466   1.000000
    8        2.538619   0.000000
    9        2.820819   0.000000
   10        3.990984   0.000000
   11        4.851501   0.000000
   12        6.030274   0.000000
   13        6.894255   0.000000
   14        8.710696   0.000000
   15       10.201519   0.000000
   16       10.673036   0.000000
 
 -0.2857143E+00  0.3333333E+00  0.3937822E-15  0.2267574E-02
    1      -10.645344   1.000000
    2       -8.780050   1.000000
    3       -7.883232   1.000000
    4       -7.429837   1.000000
    5       -6.615261   1.000000
    6       -6.210070   1.000000
    7       -2.011366   1.019810
    8        3.242788   0.000000
    9        3.538842   0.000000
   10        4.691186   0.000000
   11        5.638718   0.000000
   12        6.018038   0.000000
   13        7.315695   0.000000
   14        8.519708   0.000000
   15        9.928410   0.000000
   16       10.202360   0.000000
 
 -0.2142857E+00  0.3333333E+00  0.3816392E-15  0.2267574E-02
    1      -11.248529   1.000000
    2       -9.267607   1.000000
    3       -8.276602   1.000000
    4       -7.648867   1.000000
    5       -6.717919   1.000000
    6       -6.310358   1.000000
    7       -0.107555   0.000000
    8        3.970959   0.000000
    9        4.250608   0.000000
   10        5.214089   0.000000
   11        5.918574   0.000000
   12        6.522769   0.000000
   13        8.269049   0.000000
   14        8.889746   0.000000
   15        9.832695   0.000000
   16       10.151552   0.000000
 
 -0.1428571E+00  0.3333333E+00  0.3851086E-15  0.2267574E-02
    1      -11.690473   1.000000
    2       -9.637808   1.000000
    3       -8.599631   1.000000
    4       -7.828439   1.000000
    5       -6.837733   1.000000
    6       -6.445351   1.000000
    7        1.983303   0.000000
    8        4.248591   0.000000
    9        4.555131   0.000000
   10        5.499683   0.000000
   11        6.680779   0.000000
   12        7.329277   0.000000
   13        9.015261   0.000000
   14        9.488747   0.000000
   15       10.046072   0.000000
   16       10.445301   0.000000
 
 -0.7142857E-01  0.3333333E+00  0.3816392E-15  0.2267574E-02
    1      -11.953156   1.000000
    2       -9.865396   1.000000
    3       -8.816082   1.000000
    4       -7.929942   1.000000
    5       -6.928331   1.000000
    6       -6.558812   1.000000
    7        3.943025   0.000000
    8        4.333448   0.000000
    9        4.767554   0.000000
   10        5.684075   0.000000
   11        7.384064   0.000000
   12        8.047054   0.000000
   13        9.290679   0.000000
   14        9.697512   0.000000
   15       10.140288   0.000000
   16       10.609285   0.000000
 
  0.3742666E-15  0.4444444E+00  0.3885781E-15  0.2267574E-02
    1      -11.885476   1.000000
    2      -10.079631   1.000000
    3       -9.034516   1.000000
    4       -7.738741   1.000000
    5       -7.054852   1.000000