       N       E                     dE             d eps       ncg     rms          rms(c)
DAV:   1    -0.212048034659E+02   -0.21205E+02   -0.38867E+03 16176   0.363E+02
DAV:   2    -0.540023535193E+02   -0.32798E+02   -0.31822E+02 21008   0.911E+01
DAV:   3    -0.551815408408E+02   -0.11792E+01   -0.11751E+01 19756   0.160E+01
DAV:   4    -0.551842826602E+02   -0.27418E-02   -0.27416E-02 18872   0.939E-01
DAV:   5    -0.551842908246E+02   -0.81644E-05   -0.81648E-05 17072   0.479E-02    0.122E+01
DAV:   6    -0.531770109630E+02    0.20073E+01   -0.52343E-01 17320   0.346E+00    0.697E+00
DAV:   7    -0.522016944602E+02    0.97532E+00   -0.14019E+00 17892   0.587E+00    0.630E-01
DAV:   8    -0.522267369324E+02   -0.25042E-01   -0.67566E-02 17448   0.122E+00    0.379E-01
DAV:   9    -0.522241027348E+02    0.26342E-02   -0.33270E-03 20988   0.307E-01    0.461E-02
DAV:  10    -0.522242150739E+02   -0.11234E-03   -0.18995E-04 18000   0.724E-02    0.162E-02
DAV:  11    -0.522242406324E+02   -0.25558E-04   -0.28016E-05 14420   0.282E-02
   1 F= -.52224241E+02 E0= -.52224323E+02  d E =-.522242E+02
       N       E                     dE             d eps       ncg     rms          rms(c)
DAV:   1    -0.522247960321E+02   -0.58096E-03   -0.14227E-01 17788   0.222E+00    0.164E-01
DAV:   2    -0.522253150112E+02   -0.51898E-03   -0.85399E-03 18564   0.509E-01    0.134E-01
DAV:   3    -0.522250580392E+02    0.25697E-03   -0.27033E-04 19332   0.193E-01    0.170E-02
DAV:   4    -0.522250970072E+02   -0.38968E-04   -0.36558E-04 13244   0.919E-02
   2 F= -.52225097E+02 E0= -.52225177E+02  d E =-.856375E-03
       N       E                     dE             d eps       ncg     rms          rms(c)
DAV:   1    -0.522268994314E+02   -0.18414E-02   -0.29800E-02 17696   0.101E+00    0.750E-02
DAV:   2    -0.522269800290E+02   -0.80598E-04   -0.16344E-03 18556   0.224E-01    0.604E-02
DAV:   3    -0.522269186217E+02    0.61407E-04   -0.55578E-05 15416   0.956E-02
   3 F= -.52226919E+02 E0= -.52227000E+02  d E =-.267799E-02
       N       E                     dE             d eps       ncg     rms          rms(c)
DAV:   1    -0.522312493545E+02   -0.42693E-02   -0.38984E-02 17144   0.103E+00    0.688E-02
DAV:   2    -0.522313157600E+02   -0.66406E-04   -0.73155E-04 18836   0.137E-01
   4 F= -.52231316E+02 E0= -.52231397E+02  d E =-.439714E-02
       N       E                     dE             d eps       ncg     rms          rms(c)
DAV:   1    -0.522420904838E+02   -0.10841E-01   -0.34695E-01 17264   0.309E+00    0.204E-01
DAV:   2    -0.522427656180E+02   -0.67513E-03   -0.63146E-03 18884   0.403E-01    0.139E-01
DAV:   3    -0.522429066448E+02   -0.14103E-03   -0.49571E-04 18252   0.112E-01    0.228E-02
DAV:   4    -0.522429008371E+02    0.58077E-05   -0.39198E-05 10284   0.328E-02
   5 F= -.52242901E+02 E0= -.52242983E+02  d E =-.159822E-01
       N       E                     dE             d eps       ncg     rms          rms(c)
DAV:   1    -0.522557525247E+02   -0.12846E-01   -0.14002E+00 17236   0.620E+00    0.414E-01
DAV:   2    -0.522584245817E+02   -0.26721E-02   -0.27070E-02 18868   0.832E-01    0.285E-01
DAV:   3    -0.522588725064E+02   -0.44792E-03   -0.21618E-03 18252   0.235E-01    0.491E-02
DAV:   4    -0.522588407012E+02    0.31805E-04   -0.18679E-04 18700   0.704E-02
   6 F= -.52258841E+02 E0= -.52258927E+02  d E =-.319221E-01
       N       E                     dE             d eps       ncg     rms          rms(c)
DAV:   1    -0.522493652389E+02    0.95073E-02   -0.56169E+00 17268   0.124E+01    0.829E-01
DAV:   2    -0.522604033001E+02   -0.11038E-01   -0.11270E-01 18932   0.169E+00    0.571E-01
DAV:   3    -0.522620624112E+02   -0.16591E-02   -0.83586E-03 18132   0.462E-01    0.916E-02
DAV:   4    -0.522619862249E+02    0.76186E-04   -0.72499E-04 18868   0.138E-01
   7 F= -.52261986E+02 E0= -.52262090E+02  d E =-.350676E-01
       N       E                     dE             d eps       ncg     rms          rms(c)
DAV:   1    -0.521722659327E+02    0.89796E-01   -0.19294E+00 17704   0.794E+00    0.617E-01
DAV:   2    -0.521738585682E+02   -0.15926E-02   -0.72369E-02 18540   0.144E+00    0.434E-01
DAV:   3    -0.521708673915E+02    0.29912E-02   -0.37701E-03 19000   0.541E-01    0.427E-02
DAV:   4    -0.521710981173E+02   -0.23073E-03   -0.22102E-03 18576   0.236E-01    0.243E-02
DAV:   5    -0.521710876897E+02    0.10428E-04   -0.10169E-05  9640   0.364E-02
   8 F= -.52171088E+02 E0= -.52171198E+02  d E =0.908985E-01
       N       E                     dE             d eps       ncg     rms          rms(c)
DAV:   1    -0.522647336968E+02   -0.93636E-01   -0.14548E+00 17664   0.680E+00    0.532E-01
DAV:   2    -0.522662089906E+02   -0.14753E-02   -0.55989E-02 18556   0.128E+00    0.379E-01
DAV:   3    -0.522638753344E+02    0.23337E-02   -0.30135E-03 19032   0.494E-01    0.315E-02
DAV:   4    -0.522640625352E+02   -0.18720E-03   -0.17979E-03 18464   0.215E-01    0.232E-02
DAV:   5    -0.522640534630E+02    0.90722E-05   -0.52542E-06  9344   0.282E-02
   9 F= -.52264053E+02 E0= -.52264159E+02  d E =-.206724E-02
