  11  11   0   0
  0.1112931E+02  0.3812824E-09  0.5456824E-09  0.6445698E-09  0.5000000E-15
  1.000000000000000E-004
  CAR 
 unknown system                          
      9.77870949    -35.12765521  301      2.27124080      1.00000000
    -35.128  0.0000E+00  0.0000E+00
    -34.978  0.0000E+00  0.0000E+00
    -34.828  0.0000E+00  0.0000E+00
    -34.679  0.0000E+00  0.0000E+00
    -34.529  0.0000E+00  0.0000E+00
    -34.379  0.0000E+00  0.0000E+00
    -34.230  0.0000E+00  0.0000E+00
    -34.080  0.0000E+00  0.0000E+00
    -33.930  0.6342E-30  0.9494E-31
    -33.780  0.3913E-20  0.5857E-21
    -33.631  0.2394E-12  0.3584E-13
    -33.481  0.1283E-06  0.1920E-07
    -33.331  0.3761E-03  0.5632E-04
    -33.182 -0.1068E-01 -0.1543E-02
    -33.032  0.2072E+00  0.2947E-01
    -32.882  0.2487E-01  0.3319E-01
    -32.733  0.1275E-02  0.3338E-01
    -32.583 -0.1025E-01  0.3185E-01
    -32.433  0.2023E+00  0.6213E-01
    -32.284  0.2941E-01  0.6654E-01
    -32.134  0.8564E-03  0.6667E-01
    -31.984  0.1009E-04  0.6667E-01
    -31.835  0.1836E-09  0.6667E-01
    -31.685  0.2697E-16  0.6667E-01
    -31.535  0.0000E+00  0.6667E-01
    -31.385  0.0000E+00  0.6667E-01
    -31.236  0.0000E+00  0.6667E-01
    -31.086  0.0000E+00  0.6667E-01
    -30.936  0.0000E+00  0.6667E-01
    -30.787  0.0000E+00  0.6667E-01
    -30.637  0.0000E+00  0.6667E-01
    -30.487  0.0000E+00  0.6667E-01
    -30.338  0.0000E+00  0.6667E-01
    -30.188  0.0000E+00  0.6667E-01
    -30.038  0.4870E-36  0.6667E-01
    -29.889  0.3162E-25  0.6667E-01
    -29.739  0.2082E-16  0.6667E-01
    -29.589  0.1306E-09  0.6667E-01
    -29.440  0.6507E-05  0.6667E-01
    -29.290  0.8935E-03  0.6680E-01
    -29.140  0.6314E-02  0.6775E-01
    -28.990  0.4450E+00  0.1344E+00
    -28.841  0.2209E+00  0.1674E+00
    -28.691 -0.5233E-02  0.1666E+00
    -28.541  0.1656E-03  0.1667E+00
    -28.392  0.1502E-07  0.1667E+00
    -28.242  0.9267E-14  0.1667E+00
    -28.092  0.0000E+00  0.1667E+00
    -27.943  0.0000E+00  0.1667E+00
    -27.793  0.0000E+00  0.1667E+00
    -27.643  0.0000E+00  0.1667E+00
    -27.494  0.0000E+00  0.1667E+00
    -27.344  0.0000E+00  0.1667E+00
    -27.194  0.0000E+00  0.1667E+00
    -27.045  0.0000E+00  0.1667E+00
    -26.895  0.0000E+00  0.1667E+00
    -26.745  0.0000E+00  0.1667E+00
    -26.595  0.0000E+00  0.1667E+00
    -26.446  0.0000E+00  0.1667E+00
    -26.296  0.0000E+00  0.1667E+00
    -26.146  0.0000E+00  0.1667E+00
    -25.997  0.0000E+00  0.1667E+00
    -25.847  0.0000E+00  0.1667E+00
    -25.697  0.0000E+00  0.1667E+00
    -25.548  0.0000E+00  0.1667E+00
    -25.398  0.0000E+00  0.1667E+00
    -25.248  0.0000E+00  0.1667E+00
    -25.099  0.0000E+00  0.1667E+00
    -24.949  0.0000E+00  0.1667E+00
    -24.799  0.0000E+00  0.1667E+00
    -24.650  0.0000E+00  0.1667E+00
    -24.500  0.0000E+00  0.1667E+00
    -24.350  0.0000E+00  0.1667E+00
    -24.200  0.0000E+00  0.1667E+00
    -24.051  0.0000E+00  0.1667E+00
    -23.901  0.0000E+00  0.1667E+00
    -23.751  0.0000E+00  0.1667E+00
    -23.602  0.0000E+00  0.1667E+00
    -23.452  0.0000E+00  0.1667E+00
    -23.302  0.0000E+00  0.1667E+00
    -23.153  0.0000E+00  0.1667E+00
    -23.003  0.0000E+00  0.1667E+00
    -22.853  0.0000E+00  0.1667E+00
    -22.704  0.0000E+00  0.1667E+00
    -22.554  0.0000E+00  0.1667E+00
    -22.404  0.0000E+00  0.1667E+00
    -22.254  0.0000E+00  0.1667E+00
    -22.105  0.0000E+00  0.1667E+00
    -21.955  0.0000E+00  0.1667E+00
    -21.805  0.0000E+00  0.1667E+00
    -21.656  0.0000E+00  0.1667E+00
    -21.506  0.0000E+00  0.1667E+00
    -21.356  0.0000E+00  0.1667E+00
    -21.207  0.0000E+00  0.1667E+00
    -21.057  0.0000E+00  0.1667E+00
    -20.907  0.0000E+00  0.1667E+00
    -20.758  0.0000E+00  0.1667E+00
    -20.608  0.0000E+00  0.1667E+00
    -20.458  0.0000E+00  0.1667E+00
    -20.309  0.0000E+00  0.1667E+00
    -20.159  0.0000E+00  0.1667E+00
    -20.009  0.0000E+00  0.1667E+00
    -19.859  0.0000E+00  0.1667E+00
    -19.710  0.0000E+00  0.1667E+00
    -19.560  0.0000E+00  0.1667E+00
    -19.410  0.0000E+00  0.1667E+00
    -19.261  0.0000E+00  0.1667E+00
    -19.111  0.0000E+00  0.1667E+00
    -18.961  0.0000E+00  0.1667E+00
    -18.812  0.0000E+00  0.1667E+00
    -18.662  0.0000E+00  0.1667E+00
    -18.512  0.0000E+00  0.1667E+00
    -18.363  0.0000E+00  0.1667E+00
    -18.213  0.0000E+00  0.1667E+00
    -18.063  0.0000E+00  0.1667E+00
    -17.914  0.0000E+00  0.1667E+00
    -17.764  0.0000E+00  0.1667E+00
    -17.614  0.0000E+00  0.1667E+00
    -17.464  0.0000E+00  0.1667E+00
    -17.315  0.0000E+00  0.1667E+00
    -17.165  0.0000E+00  0.1667E+00
    -17.015  0.0000E+00  0.1667E+00
    -16.866  0.0000E+00  0.1667E+00
    -16.716  0.0000E+00  0.1667E+00
    -16.566  0.0000E+00  0.1667E+00
    -16.417  0.0000E+00  0.1667E+00
    -16.267  0.8765E-30  0.1667E+00
    -16.117  0.3889E-20  0.1667E+00
    -15.968  0.1689E-12  0.1667E+00
    -15.818  0.6252E-07  0.1667E+00
    -15.668  0.1207E-03  0.1667E+00
    -15.519 -0.2398E-02  0.1663E+00
    -15.369  0.5606E-01  0.1747E+00
    -15.219  0.2050E+00  0.2054E+00
    -15.069  0.3323E+00  0.2551E+00
    -14.920  0.7843E-01  0.2669E+00
    -14.770 -0.5249E-02  0.2661E+00
    -14.620  0.2867E+00  0.3090E+00
    -14.471  0.3088E+00  0.3552E+00
    -14.321  0.6928E-01  0.3656E+00
    -14.171  0.6900E-02  0.3666E+00
    -14.022  0.2169E-03  0.3667E+00
    -13.872  0.2933E-05  0.3667E+00
    -13.722  0.7132E-10  0.3667E+00
    -13.573  0.1349E-16  0.3667E+00
    -13.423  0.0000E+00  0.3667E+00
    -13.273  0.0000E+00  0.3667E+00
    -13.124  0.0000E+00  0.3667E+00
    -12.974  0.0000E+00  0.3667E+00
    -12.824  0.0000E+00  0.3667E+00
    -12.674  0.0000E+00  0.3667E+00
    -12.525  0.0000E+00  0.3667E+00
    -12.375  0.0000E+00  0.3667E+00
    -12.225  0.0000E+00  0.3667E+00
    -12.076  0.0000E+00  0.3667E+00
    -11.926  0.0000E+00  0.3667E+00
    -11.776  0.0000E+00  0.3667E+00
    -11.627  0.0000E+00  0.3667E+00
    -11.477  0.0000E+00  0.3667E+00
    -11.327  0.0000E+00  0.3667E+00
    -11.178  0.0000E+00  0.3667E+00
    -11.028  0.0000E+00  0.3667E+00
    -10.878  0.0000E+00  0.3667E+00
    -10.729  0.0000E+00  0.3667E+00
    -10.579  0.0000E+00  0.3667E+00
    -10.429  0.0000E+00  0.3667E+00
    -10.279  0.0000E+00  0.3667E+00
    -10.130  0.0000E+00  0.3667E+00
     -9.980  0.0000E+00  0.3667E+00
     -9.830  0.0000E+00  0.3667E+00
     -9.681  0.0000E+00  0.3667E+00
     -9.531  0.0000E+00  0.3667E+00
     -9.381  0.0000E+00  0.3667E+00
     -9.232  0.0000E+00  0.3667E+00
     -9.082  0.0000E+00  0.3667E+00
     -8.932  0.0000E+00  0.3667E+00
     -8.783  0.0000E+00  0.3667E+00
     -8.633  0.0000E+00  0.3667E+00
     -8.483  0.0000E+00  0.3667E+00
     -8.334  0.0000E+00  0.3667E+00
     -8.184  0.0000E+00  0.3667E+00
     -8.034  0.0000E+00  0.3667E+00
     -7.884  0.0000E+00  0.3667E+00
     -7.735  0.0000E+00  0.3667E+00
     -7.585  0.0000E+00  0.3667E+00
     -7.435  0.0000E+00  0.3667E+00
     -7.286  0.0000E+00  0.3667E+00
     -7.136  0.0000E+00  0.3667E+00
     -6.986  0.0000E+00  0.3667E+00
     -6.837  0.0000E+00  0.3667E+00
     -6.687  0.0000E+00  0.3667E+00
     -6.537  0.2846E-35  0.3667E+00
     -6.388  0.5591E-25  0.3667E+00
     -6.238  0.1076E-16  0.3667E+00
     -6.088  0.1822E-10  0.3667E+00
     -5.939  0.2002E-06  0.3667E+00
     -5.789  0.7001E-06  0.3667E+00
     -5.639  0.1224E-03  0.3667E+00
     -5.489  0.3721E-02  0.3672E+00
     -5.340  0.6485E-02  0.3682E+00
     -5.190  0.9865E-02  0.3697E+00
     -5.040  0.1567E-01  0.3720E+00
     -4.891  0.1439E-01  0.3742E+00
     -4.741  0.2028E-01  0.3772E+00
     -4.591  0.2139E-01  0.3804E+00
     -4.442  0.1716E-01  0.3830E+00
     -4.292  0.1654E-01  0.3855E+00
     -4.142  0.1472E-01  0.3877E+00
     -3.993  0.1678E-01  0.3902E+00
     -3.843  0.1805E-01  0.3929E+00
     -3.693  0.2046E-01  0.3960E+00
     -3.544  0.1919E-01  0.3988E+00
     -3.394  0.1264E-01  0.4007E+00
     -3.244  0.1003E-01  0.4022E+00
     -3.094  0.1648E-01  0.4047E+00
     -2.945  0.2547E-01  0.4085E+00
     -2.795  0.2588E-01  0.4124E+00
     -2.645  0.3858E-01  0.4182E+00
     -2.496  0.8079E-01  0.4302E+00
     -2.346  0.7256E-01  0.4411E+00
     -2.196  0.7493E-01  0.4523E+00
     -2.047  0.1139E+00  0.4694E+00
     -1.897  0.9476E-01  0.4836E+00
     -1.747  0.9352E-01  0.4976E+00
     -1.598  0.5727E-01  0.5061E+00
     -1.448  0.1076E+00  0.5222E+00
     -1.298  0.9179E-01  0.5360E+00
     -1.149  0.9669E-01  0.5504E+00
     -0.999  0.8722E-01  0.5635E+00
     -0.849  0.2388E-01  0.5671E+00
     -0.699  0.2393E-01  0.5707E+00
     -0.550  0.2932E-01  0.5751E+00
     -0.400  0.4156E-01  0.5813E+00
     -0.250  0.4059E-01  0.5873E+00
     -0.101  0.6672E-01  0.5973E+00
      0.049  0.7281E-01  0.6082E+00
      0.199  0.6434E-01  0.6179E+00
      0.348  0.5465E-01  0.6260E+00
      0.498  0.3490E-01  0.6313E+00
      0.648  0.1328E-01  0.6333E+00
      0.797  0.4994E-03  0.6333E+00
      0.947  0.2218E-04  0.6333E+00
      1.097  0.3262E-06  0.6333E+00
      1.247  0.2406E-05  0.6333E+00
      1.396 -0.5032E-04  0.6333E+00
      1.546  0.3353E-02  0.6338E+00
      1.696  0.1323E-01  0.6358E+00
      1.845  0.2293E-01  0.6392E+00
      1.995  0.2231E-01  0.6426E+00
      2.145  0.3382E-01  0.6476E+00
      2.294  0.1863E-01  0.6504E+00
      2.444  0.1241E-01  0.6523E+00
      2.594  0.2840E-01  0.6565E+00
      2.743  0.8683E-02  0.6578E+00
      2.893  0.3633E-01  0.6633E+00
      3.043  0.2217E-01  0.6666E+00
      3.192  0.4535E-03  0.6667E+00
      3.342  0.1071E-02  0.6668E+00
      3.492  0.2415E-01  0.6704E+00
      3.642  0.7611E-01  0.6818E+00
      3.791  0.9089E-01  0.6954E+00
      3.941  0.6214E-01  0.7047E+00
      4.091  0.5520E-01  0.7130E+00
      4.240  0.6121E-01  0.7222E+00
      4.390  0.6918E-01  0.7325E+00
      4.540  0.5015E-01  0.7400E+00
      4.689  0.7747E-01  0.7516E+00
      4.839  0.7158E-01  0.7623E+00
      4.989  0.3064E-01  0.7669E+00
      5.138  0.4663E-01  0.7739E+00
      5.288  0.8943E-01  0.7873E+00
      5.438  0.7508E-01  0.7985E+00
      5.587  0.3677E-01  0.8040E+00
      5.737  0.5330E-01  0.8120E+00
      5.887  0.7309E-01  0.8229E+00
      6.037  0.4479E-01  0.8297E+00
      6.186  0.4860E-01  0.8369E+00
      6.336  0.6236E-01  0.8463E+00
      6.486  0.6381E-01  0.8558E+00
      6.635  0.5134E-01  0.8635E+00
      6.785  0.6749E-01  0.8736E+00
      6.935  0.9089E-01  0.8872E+00
      7.084  0.7436E-01  0.8983E+00
      7.234  0.6982E-01  0.9088E+00
      7.384  0.8527E-01  0.9216E+00
      7.533  0.5448E-01  0.9297E+00
      7.683  0.2138E-01  0.9329E+00
      7.833  0.2894E-02  0.9333E+00
      7.982 -0.6758E-04  0.9333E+00
      8.132  0.3707E-05  0.9333E+00
      8.282  0.1046E-08  0.9333E+00
      8.432  0.2118E-14  0.9333E+00
      8.581  0.0000E+00  0.9333E+00
      8.731  0.0000E+00  0.9333E+00
      8.881  0.0000E+00  0.9333E+00
      9.030  0.0000E+00  0.9333E+00
      9.180  0.0000E+00  0.9333E+00
      9.330  0.0000E+00  0.9333E+00
      9.479  0.0000E+00  0.9333E+00
      9.629  0.0000E+00  0.9333E+00
      9.779  0.0000E+00  0.9333E+00
