 running on   32 total cores
 distrk:  each k-point on   32 cores,    1 groups
 distr:  one band on    8 cores,    4 groups
 using from now: INCAR     
 vasp.5.4.4.18Apr17-6-g9f103f2a35 (build Nov 01 2019 12:17:22) complex          
  
 POSCAR found type information on POSCAR  H  Sr Nb H  Sr
 POSCAR found :  5 types and      11 ions
 LDA part: xc-table for Pade appr. of Perdew
 generate k-points for:   11    8    7
 POSCAR, INCAR and KPOINTS ok, starting setup
 FFT: planning ...
 WAVECAR not read
 entering main loop
       N       E                     dE             d eps       ncg     rms          rms(c)
DAV:   1     0.169260047945E+03    0.16926E+03   -0.12820E+04 17528   0.741E+02
DAV:   2    -0.329483998540E+02   -0.20221E+03   -0.19777E+03 21936   0.291E+02
DAV:   3    -0.463751812902E+02   -0.13427E+02   -0.13369E+02 28768   0.575E+01
DAV:   4    -0.471185423569E+02   -0.74336E+00   -0.74174E+00 27764   0.111E+01
DAV:   5    -0.471337476746E+02   -0.15205E-01   -0.15203E-01 28032   0.160E+00    0.383E+01
DAV:   6    -0.438856127437E+02    0.32481E+01   -0.10133E+01 25904   0.179E+01    0.168E+01
DAV:   7    -0.433112851037E+02    0.57433E+00   -0.21381E+00 25760   0.673E+00    0.984E+00
DAV:   8    -0.432817941522E+02    0.29491E-01   -0.64722E-01 27656   0.405E+00    0.246E+00
DAV:   9    -0.432717636725E+02    0.10030E-01   -0.69057E-02 19912   0.133E+00    0.448E-01
DAV:  10    -0.432721732552E+02   -0.40958E-03   -0.12348E-02 25208   0.538E-01    0.265E-01
DAV:  11    -0.432722563782E+02   -0.83123E-04   -0.63189E-04 21080   0.157E-01
   1 F= -.43272256E+02 E0= -.43272097E+02  d E =-.432723E+02
 curvature:   0.00 expect dE= 0.000E+00 dE for cont linesearch  0.000E+00
 trial: gam= 0.00000 g(F)=  0.103E-02 g(S)=  0.102E-02 ort = 0.000E+00 (trialstep = 0.100E+01)
 search vector abs. value=  0.205E-02
 bond charge predicted
       N       E                     dE             d eps       ncg     rms          rms(c)
DAV:   1    -0.432756279783E+02   -0.34547E-02   -0.94227E-02 19128   0.231E+00    0.534E-01
DAV:   2    -0.432742372741E+02    0.13907E-02   -0.13356E-02 24040   0.777E-01    0.182E-01
DAV:   3    -0.432737370941E+02    0.50018E-03   -0.11607E-03 24688   0.207E-01    0.116E-01
DAV:   4    -0.432736359364E+02    0.10116E-03   -0.59343E-04 25164   0.117E-01    0.132E-01
DAV:   5    -0.432736640911E+02   -0.28155E-04   -0.37707E-05 12136   0.348E-02
   2 F= -.43273664E+02 E0= -.43273506E+02  d E =-.140771E-02
 trial-energy change:   -0.001408  1 .order   -0.001400   -0.002050   -0.000750
 step:   1.5774(harm=  1.5774)  dis= 0.00359  next Energy=   -43.273873 (dE=-0.162E-02)
 bond charge predicted
       N       E                     dE             d eps       ncg     rms          rms(c)
DAV:   1    -0.432743302411E+02   -0.69430E-03   -0.29858E-02 18192   0.131E+00    0.309E-01
DAV:   2    -0.432737975532E+02    0.53269E-03   -0.40937E-03 22952   0.441E-01    0.103E-01
DAV:   3    -0.432736305423E+02    0.16701E-03   -0.38679E-04 23136   0.119E-01    0.668E-02
DAV:   4    -0.432736005320E+02    0.30010E-04   -0.15858E-04 14336   0.669E-02
   3 F= -.43273601E+02 E0= -.43273443E+02  d E =-.134415E-02
 curvature:  -0.79 expect dE=-0.145E-02 dE for cont linesearch -0.671E-04
 trial: gam= 0.00000 g(F)=  0.170E-02 g(S)=  0.138E-03 ort =-0.418E-03 (trialstep = 0.112E+01)
 search vector abs. value=  0.183E-02
 bond charge predicted
       N       E                     dE             d eps       ncg     rms          rms(c)
DAV:   1    -0.432717161600E+02    0.19144E-02   -0.20370E-01 19828   0.356E+00    0.257E-01
DAV:   2    -0.432741230246E+02   -0.24069E-02   -0.28816E-02 17864   0.845E-01    0.152E-01
DAV:   3    -0.432740989409E+02    0.24084E-04   -0.51842E-04 24924   0.133E-01
   4 F= -.43274099E+02 E0= -.43273942E+02  d E =-.498409E-03
 trial-energy change:   -0.000498  1 .order   -0.000516   -0.002045    0.001013
 step:   0.7459(harm=  0.7459)  dis= 0.00243  next Energy=   -43.274284 (dE=-0.684E-03)
 bond charge predicted
       N       E                     dE             d eps       ncg     rms          rms(c)
DAV:   1    -0.432740043657E+02    0.11866E-03   -0.23547E-02 19980   0.122E+00    0.903E-02
DAV:   2    -0.432742976649E+02   -0.29330E-03   -0.34109E-03 18388   0.298E-01    0.511E-02
DAV:   3    -0.432742911108E+02    0.65542E-05   -0.44482E-05 14308   0.446E-02
   5 F= -.43274291E+02 E0= -.43274134E+02  d E =-.690579E-03
 curvature:  -0.37 expect dE=-0.329E-03 dE for cont linesearch -0.377E-05
 trial: gam= 0.55529 g(F)=  0.860E-03 g(S)=  0.221E-04 ort =-0.136E-03 (trialstep = 0.104E+01)
 search vector abs. value=  0.130E-02
 reached required accuracy - stopping structural energy minimisation
