       N       E                     dE             d eps       ncg     rms          rms(c)
DAV:   1     0.222764723326E+03    0.22276E+03   -0.19337E+04  6144   0.115E+03
DAV:   2    -0.317200977417E+02   -0.25448E+03   -0.24926E+03  7264   0.311E+02
DAV:   3    -0.467394357855E+02   -0.15019E+02   -0.14945E+02 12160   0.621E+01
DAV:   4    -0.469755505323E+02   -0.23611E+00   -0.23607E+00  6992   0.694E+00
DAV:   5    -0.469858182392E+02   -0.10268E-01   -0.10267E-01 10656   0.117E+00    0.390E+01
RMM:   6    -0.473940581856E+02   -0.40824E+00   -0.63957E+00  6865   0.104E+01    0.201E+01
RMM:   7    -0.466058924071E+02    0.78817E+00   -0.25514E+00  7338   0.813E+00    0.100E+01
RMM:   8    -0.466641932473E+02   -0.58301E-01   -0.47333E-01  6978   0.456E+00    0.436E+00
RMM:   9    -0.466864235558E+02   -0.22230E-01   -0.87199E-02  7163   0.197E+00    0.212E+00
RMM:  10    -0.466854366231E+02    0.98693E-03   -0.22024E-02  7037   0.982E-01    0.783E-01
RMM:  11    -0.466858519425E+02   -0.41532E-03   -0.99010E-03  6376   0.658E-01    0.234E-01
RMM:  12    -0.466865510338E+02   -0.69909E-03   -0.17593E-03  5057   0.303E-01    0.124E-01
RMM:  13    -0.466870165683E+02   -0.46553E-03   -0.80221E-04  4494   0.194E-01
   1 F= -.46687017E+02 E0= -.46687017E+02  d E =-.466870E+02  mag=    -0.0169
       N       E                     dE             d eps       ncg     rms          rms(c)
DAV:   1    -0.468868565558E+02   -0.20031E+00   -0.37435E+00  9216   0.119E+01    0.410E+00
RMM:   2    -0.467740454064E+02    0.11281E+00   -0.50204E-01  7116   0.414E+00    0.112E+00
RMM:   3    -0.467326256363E+02    0.41420E-01   -0.51893E-02  6787   0.190E+00    0.101E+00
RMM:   4    -0.467260721680E+02    0.65535E-02   -0.21057E-02  6850   0.100E+00    0.965E-01
RMM:   5    -0.467269527615E+02   -0.88059E-03   -0.10390E-02  6882   0.852E-01    0.313E-01
RMM:   6    -0.467269678019E+02   -0.15040E-04   -0.56950E-03  6466   0.382E-01
   2 F= -.46726968E+02 E0= -.46726968E+02  d E =-.399512E-01  mag=    -0.0025
       N       E                     dE             d eps       ncg     rms          rms(c)
DAV:   1    -0.468604588570E+02   -0.13351E+00   -0.30167E+00  6592   0.106E+01    0.357E+00
RMM:   2    -0.467693091861E+02    0.91150E-01   -0.38187E-01  6979   0.358E+00    0.965E-01
RMM:   3    -0.467372225621E+02    0.32087E-01   -0.40562E-02  6704   0.182E+00    0.880E-01
RMM:   4    -0.467328055952E+02    0.44170E-02   -0.18008E-02  6773   0.862E-01    0.874E-01
RMM:   5    -0.467338315150E+02   -0.10259E-02   -0.66719E-03  6373   0.841E-01    0.353E-01
RMM:   6    -0.467339399022E+02   -0.10839E-03   -0.57488E-03  6476   0.343E-01
   3 F= -.46733940E+02 E0= -.46733940E+02  d E =-.469233E-01  mag=    -0.0002
       N       E                     dE             d eps       ncg     rms          rms(c)
DAV:   1    -0.467411614403E+02   -0.73299E-02   -0.33979E-01  6752   0.362E+00    0.439E-01
RMM:   2    -0.467407383816E+02    0.42306E-03   -0.21729E-02  6774   0.858E-01    0.285E-01
RMM:   3    -0.467395265547E+02    0.12118E-02   -0.15911E-03  4646   0.568E-01    0.151E-01
RMM:   4    -0.467396198752E+02   -0.93321E-04   -0.10843E-03  4371   0.223E-01
   4 F= -.46739620E+02 E0= -.46739620E+02  d E =-.567997E-02  mag=    -0.0000
       N       E                     dE             d eps       ncg     rms          rms(c)
DAV:   1    -0.467415964737E+02   -0.20699E-02   -0.20874E-01  7328   0.284E+00    0.328E-01
RMM:   2    -0.467414224698E+02    0.17400E-03   -0.13165E-02  6740   0.660E-01    0.253E-01
RMM:   3    -0.467406135746E+02    0.80890E-03   -0.86903E-04  4173   0.436E-01    0.153E-01
RMM:   4    -0.467406814463E+02   -0.67872E-04   -0.82989E-04  3732   0.181E-01
   5 F= -.46740681E+02 E0= -.46740681E+02  d E =-.674154E-02  mag=    -0.0000
       N       E                     dE             d eps       ncg     rms          rms(c)
DAV:   1    -0.467430661798E+02   -0.24526E-02   -0.57799E-02  8768   0.144E+00    0.148E-01
RMM:   2    -0.467442456042E+02   -0.11794E-02   -0.25278E-03  5413   0.305E-01    0.107E-01
RMM:   3    -0.467439930678E+02    0.25254E-03   -0.25381E-04  3264   0.219E-01
   6 F= -.46743993E+02 E0= -.46743993E+02  d E =-.331162E-02  mag=    -0.0000
       N       E                     dE             d eps       ncg     rms          rms(c)
DAV:   1    -0.467492370703E+02   -0.49915E-02   -0.52381E-01  6144   0.426E+00    0.451E-01
RMM:   2    -0.467511101245E+02   -0.18731E-02   -0.26780E-02  6980   0.982E-01    0.348E-01
RMM:   3    -0.467492309838E+02    0.18791E-02   -0.18620E-03  4673   0.549E-01    0.178E-01
RMM:   4    -0.467493895634E+02   -0.15858E-03   -0.91880E-04  4262   0.220E-01
   7 F= -.46749390E+02 E0= -.46749390E+02  d E =-.870812E-02  mag=    -0.0000
       N       E                     dE             d eps       ncg     rms          rms(c)
DAV:   1    -0.467500516037E+02   -0.82062E-03   -0.51084E-02 10304   0.180E+00    0.119E-01
RMM:   2    -0.467507499761E+02   -0.69837E-03   -0.30326E-03  4904   0.281E-01    0.694E-02
RMM:   3    -0.467506736728E+02    0.76303E-04   -0.10239E-04  3208   0.101E-01
   8 F= -.46750674E+02 E0= -.46750674E+02  d E =-.128411E-02  mag=    -0.0000
       N       E                     dE             d eps       ncg     rms          rms(c)
DAV:   1    -0.467494332226E+02    0.13168E-02   -0.45154E-01  7680   0.532E+00    0.262E-01
RMM:   2    -0.467532602708E+02   -0.38270E-02   -0.30406E-02  6271   0.866E-01    0.169E-01
RMM:   3    -0.467526386658E+02    0.62161E-03   -0.10395E-03  4392   0.404E-01    0.102E-01
RMM:   4    -0.467528654623E+02   -0.22680E-03   -0.32479E-04  3846   0.131E-01
   9 F= -.46752865E+02 E0= -.46752865E+02  d E =-.347590E-02  mag=    -0.0001
