       N       E                     dE             d eps       ncg     rms          rms(c)
DAV:   1     0.121911084094E+03    0.12191E+03   -0.10098E+04 15032   0.678E+02
DAV:   2    -0.317604917114E+02   -0.15367E+03   -0.14598E+03 18032   0.267E+02
DAV:   3    -0.415299430340E+02   -0.97695E+01   -0.96073E+01 23752   0.531E+01
DAV:   4    -0.419812535990E+02   -0.45131E+00   -0.44954E+00 21368   0.100E+01
DAV:   5    -0.419884580430E+02   -0.72044E-02   -0.72030E-02 22712   0.110E+00    0.510E+01
DAV:   6    -0.387834020627E+02    0.32051E+01   -0.97267E+00 22888   0.246E+01    0.189E+01
DAV:   7    -0.387294345226E+02    0.53968E-01   -0.61203E+00 25088   0.198E+01    0.158E+01
DAV:   8    -0.378892198587E+02    0.84021E+00   -0.12624E+00 23056   0.941E+00    0.398E+00
DAV:   9    -0.378998533874E+02   -0.10634E-01   -0.15804E-01 19016   0.219E+00    0.103E+00
DAV:  10    -0.378998334165E+02    0.19971E-04   -0.12693E-02 20432   0.746E-01    0.315E-01
DAV:  11    -0.379000417590E+02   -0.20834E-03   -0.35381E-03 19088   0.360E-01    0.763E-02
DAV:  12    -0.379002640428E+02   -0.22228E-03   -0.57452E-04 18376   0.146E-01    0.693E-02
DAV:  13    -0.379003204134E+02   -0.56371E-04   -0.49653E-05 11888   0.504E-02
   1 F= -.37900320E+02 E0= -.37900213E+02  d E =-.379003E+02
       N       E                     dE             d eps       ncg     rms          rms(c)
DAV:   1    -0.398088189327E+02   -0.19086E+01   -0.16511E+02 14304   0.962E+01    0.158E+01
DAV:   2    -0.402774283595E+02   -0.46861E+00   -0.13369E+01 18776   0.257E+01    0.914E+00
DAV:   3    -0.401406059836E+02    0.13682E+00   -0.75379E-01 23472   0.588E+00    0.345E+00
DAV:   4    -0.401236527794E+02    0.16953E-01   -0.18631E-01 20832   0.331E+00    0.111E+00
DAV:   5    -0.401164112306E+02    0.72415E-02   -0.22492E-02 22048   0.131E+00    0.516E-01
DAV:   6    -0.401163623423E+02    0.48888E-04   -0.33677E-03 18608   0.348E-01    0.168E-01
DAV:   7    -0.401163067180E+02    0.55624E-04   -0.63947E-04 19056   0.177E-01
   2 F= -.40116307E+02 E0= -.40116137E+02  d E =-.221599E+01
       N       E                     dE             d eps       ncg     rms          rms(c)
DAV:   1    -0.403427377602E+02   -0.22638E+00   -0.21311E+01 14304   0.344E+01    0.334E+00
DAV:   2    -0.403989650095E+02   -0.56227E-01   -0.16823E+00 18952   0.921E+00    0.192E+00
DAV:   3    -0.403802710735E+02    0.18694E-01   -0.65726E-02 22840   0.172E+00    0.932E-01
DAV:   4    -0.403763735237E+02    0.38975E-02   -0.18571E-02 20576   0.973E-01    0.376E-01
DAV:   5    -0.403759534200E+02    0.42010E-03   -0.23079E-03 20392   0.385E-01    0.143E-01
DAV:   6    -0.403759763382E+02   -0.22918E-04   -0.28914E-04 16528   0.108E-01
   3 F= -.40375976E+02 E0= -.40375864E+02  d E =-.247566E+01
       N       E                     dE             d eps       ncg     rms          rms(c)
DAV:   1    -0.404507568924E+02   -0.74803E-01   -0.18087E+02 14304   0.115E+02    0.121E+01
DAV:   2    -0.416627723639E+02   -0.12120E+01   -0.19423E+01 17312   0.291E+01    0.519E+00
DAV:   3    -0.415534810753E+02    0.10929E+00   -0.68528E-01 20848   0.564E+00    0.219E+00
DAV:   4    -0.415468008987E+02    0.66802E-02   -0.10562E-01 18296   0.211E+00    0.838E-01
DAV:   5    -0.415468849512E+02   -0.84052E-04   -0.12902E-02 23080   0.817E-01    0.342E-01
DAV:   6    -0.415470151553E+02   -0.13020E-03   -0.15005E-03 21944   0.266E-01    0.131E-01
DAV:   7    -0.415470607702E+02   -0.45615E-04   -0.22107E-04 15896   0.102E-01
   4 F= -.41547061E+02 E0= -.41546933E+02  d E =-.117108E+01
       N       E                     dE             d eps       ncg     rms          rms(c)
DAV:   1    -0.415451819293E+02    0.18332E-02   -0.10139E+00 16688   0.869E+00    0.812E-01
DAV:   2    -0.415523264373E+02   -0.71445E-02   -0.11455E-01 18568   0.214E+00    0.421E-01
DAV:   3    -0.415516051173E+02    0.72132E-03   -0.29091E-03 20048   0.362E-01    0.190E-01
DAV:   4    -0.415515285876E+02    0.76530E-04   -0.60605E-04 18584   0.169E-01
   5 F= -.41551529E+02 E0= -.41551438E+02  d E =-.117555E+01
       N       E                     dE             d eps       ncg     rms          rms(c)
DAV:   1    -0.420269698749E+02   -0.47536E+00   -0.26952E+01 14304   0.407E+01    0.445E+00
DAV:   2    -0.421911809735E+02   -0.16421E+00   -0.24823E+00 17792   0.104E+01    0.186E+00
DAV:   3    -0.421743854425E+02    0.16796E-01   -0.63688E-02 20968   0.168E+00    0.787E-01
DAV:   4    -0.421722604448E+02    0.21250E-02   -0.11325E-02 23568   0.666E-01    0.409E-01
DAV:   5    -0.421724860756E+02   -0.22563E-03   -0.16728E-03 23112   0.273E-01    0.151E-01
DAV:   6    -0.421725202296E+02   -0.34154E-04   -0.14250E-04 15856   0.936E-02
   6 F= -.42172520E+02 E0= -.42172411E+02  d E =-.620992E+00
       N       E                     dE             d eps       ncg     rms          rms(c)
DAV:   1    -0.422424456611E+02   -0.69960E-01   -0.30680E+01 14304   0.436E+01    0.481E+00
DAV:   2    -0.424229646280E+02   -0.18052E+00   -0.28119E+00 18464   0.112E+01    0.206E+00
DAV:   3    -0.424012181219E+02    0.21747E-01   -0.76291E-02 20560   0.180E+00    0.831E-01
DAV:   4    -0.423984553383E+02    0.27628E-02   -0.14969E-02 24728   0.771E-01    0.462E-01
DAV:   5    -0.423987071070E+02   -0.25177E-03   -0.15087E-03 20928   0.230E-01    0.112E-01
DAV:   6    -0.423987596848E+02   -0.52578E-04   -0.21048E-04 19136   0.914E-02
   7 F= -.42398760E+02 E0= -.42398782E+02  d E =-.847231E+00
       N       E                     dE             d eps       ncg     rms          rms(c)
DAV:   1    -0.426324503790E+02   -0.23374E+00   -0.30682E+01 16688   0.477E+01    0.313E+00
DAV:   2    -0.428242102262E+02   -0.19176E+00   -0.26763E+00 18552   0.103E+01    0.166E+00
DAV:   3    -0.428093065512E+02    0.14904E-01   -0.55297E-02 19208   0.158E+00    0.827E-01
DAV:   4    -0.428068526117E+02    0.24539E-02   -0.14833E-02 20208   0.794E-01    0.232E-01
DAV:   5    -0.428070267568E+02   -0.17415E-03   -0.17030E-03 21504   0.301E-01    0.906E-02
DAV:   6    -0.428070528272E+02   -0.26070E-04   -0.13776E-04 15288   0.723E-02
   8 F= -.42807053E+02 E0= -.42807064E+02  d E =-.408293E+00
       N       E                     dE             d eps       ncg     rms          rms(c)
DAV:   1    -0.427675268211E+02    0.39500E-01   -0.41502E+01 16688   0.556E+01    0.340E+00
DAV:   2    -0.430317229541E+02   -0.26420E+00   -0.36497E+00 18640   0.120E+01    0.175E+00
DAV:   3    -0.430117870621E+02    0.19936E-01   -0.69829E-02 18616   0.182E+00    0.934E-01
DAV:   4    -0.430078237473E+02    0.39633E-02   -0.22639E-02 20064   0.101E+00    0.285E-01
DAV:   5    -0.430080815130E+02   -0.25777E-03   -0.29492E-03 20904   0.386E-01    0.108E-01
DAV:   6    -0.430081389903E+02   -0.57477E-04   -0.26684E-04 17136   0.963E-02
   9 F= -.43008139E+02 E0= -.43008113E+02  d E =-.609379E+00
       N       E                     dE             d eps       ncg     rms          rms(c)
DAV:   1    -0.433270697470E+02   -0.31899E+00   -0.23292E+01 14368   0.343E+01    0.240E+00
DAV:   2    -0.434098825742E+02   -0.82813E-01   -0.13631E+00 19120   0.860E+00    0.163E+00
DAV:   3    -0.433985922447E+02    0.11290E-01   -0.40535E-02 20088   0.127E+00    0.841E-01
DAV:   4    -0.433964655782E+02    0.21267E-02   -0.13812E-02 19224   0.753E-01    0.157E-01
DAV:   5    -0.433965922420E+02   -0.12666E-03   -0.15925E-03 17584   0.280E-01    0.861E-02
DAV:   6    -0.433966074435E+02   -0.15201E-04   -0.18007E-04 15432   0.100E-01
  10 F= -.43396607E+02 E0= -.43396481E+02  d E =-.388468E+00
       N       E                     dE             d eps       ncg     rms          rms(c)
DAV:   1    -0.434026710134E+02   -0.60788E-02   -0.25351E+00 14352   0.114E+01    0.841E-01
DAV:   2    -0.434128927130E+02   -0.10222E-01   -0.15607E-01 19072   0.288E+00    0.493E-01
DAV:   3    -0.434117269003E+02    0.11658E-02   -0.44844E-03 21296   0.435E-01    0.252E-01
DAV:   4    -0.434115415989E+02    0.18530E-03   -0.13491E-03 19120   0.235E-01    0.482E-02
DAV:   5    -0.434115527112E+02   -0.11112E-04   -0.13124E-04 14776   0.860E-02
  11 F= -.43411553E+02 E0= -.43411460E+02  d E =-.403414E+00
       N       E                     dE             d eps       ncg     rms          rms(c)
DAV:   1    -0.437316813482E+02   -0.32014E+00   -0.13109E+01 15504   0.275E+01    0.241E+00
DAV:   2    -0.437630341128E+02   -0.31353E-01   -0.91823E-01 19616   0.684E+00    0.111E+00
DAV:   3    -0.437519593642E+02    0.11075E-01   -0.31884E-02 21280   0.118E+00    0.558E-01
DAV:   4    -0.437484433605E+02    0.35160E-02   -0.13531E-02 25200   0.767E-01    0.313E-01
DAV:   5    -0.437485803779E+02   -0.13702E-03   -0.12940E-03 17240   0.227E-01    0.224E-01
DAV:   6    -0.437486650802E+02   -0.84702E-04   -0.40097E-04 20104   0.131E-01
  12 F= -.43748665E+02 E0= -.43748544E+02  d E =-.337112E+00
       N       E                     dE             d eps       ncg     rms          rms(c)
DAV:   1    -0.439075397990E+02   -0.15896E+00   -0.29270E+01 15848   0.413E+01    0.403E+00
DAV:   2    -0.439737646933E+02   -0.66225E-01   -0.20088E+00 19344   0.101E+01    0.164E+00
DAV:   3    -0.439466835990E+02    0.27081E-01   -0.79013E-02 22576   0.183E+00    0.792E-01
DAV:   4    -0.439399913777E+02    0.66922E-02   -0.28881E-02 25088   0.113E+00    0.475E-01
DAV:   5    -0.439402629515E+02   -0.27157E-03   -0.26751E-03 17320   0.329E-01    0.324E-01
DAV:   6    -0.439404434430E+02   -0.18049E-03   -0.10585E-03 24888   0.203E-01    0.463E-02
DAV:   7    -0.439404366305E+02    0.68125E-05   -0.63197E-05 11408   0.648E-02
  13 F= -.43940437E+02 E0= -.43940457E+02  d E =-.528884E+00
       N       E                     dE             d eps       ncg     rms          rms(c)
DAV:   1    -0.441446662413E+02   -0.20422E+00   -0.10953E+01 16680   0.281E+01    0.166E+00
DAV:   2    -0.442077520996E+02   -0.63086E-01   -0.98535E-01 18896   0.615E+00    0.108E+00
DAV:   3    -0.442020971736E+02    0.56549E-02   -0.22218E-02 19312   0.100E+00    0.596E-01
DAV:   4    -0.441997359753E+02    0.23612E-02   -0.77596E-03 23832   0.622E-01    0.213E-01
DAV:   5    -0.441998443726E+02   -0.10840E-03   -0.11273E-03 17288   0.214E-01    0.123E-01
DAV:   6    -0.441998693347E+02   -0.24962E-04   -0.12088E-04 14464   0.792E-02
  14 F= -.44199869E+02 E0= -.44199871E+02  d E =-.259433E+00
       N       E                     dE             d eps       ncg     rms          rms(c)
DAV:   1    -0.442185676282E+02   -0.18723E-01   -0.18221E+01 16408   0.363E+01    0.218E+00
DAV:   2    -0.443257954439E+02   -0.10723E+00   -0.16673E+00 18960   0.797E+00    0.137E+00
DAV:   3    -0.443163288020E+02    0.94666E-02   -0.37495E-02 19136   0.130E+00    0.764E-01
DAV:   4    -0.443122605137E+02    0.40683E-02   -0.13172E-02 23768   0.814E-01    0.283E-01
DAV:   5    -0.443124544058E+02   -0.19389E-03   -0.19282E-03 17304   0.278E-01    0.157E-01
DAV:   6    -0.443124966458E+02   -0.42240E-04   -0.21571E-04 16608   0.995E-02
  15 F= -.44312497E+02 E0= -.44312344E+02  d E =-.372060E+00
       N       E                     dE             d eps       ncg     rms          rms(c)
DAV:   1    -0.444138988284E+02   -0.10144E+00   -0.37862E+00 14416   0.156E+01    0.113E+00
DAV:   2    -0.444337652935E+02   -0.19866E-01   -0.35875E-01 19024   0.363E+00    0.618E-01
DAV:   3    -0.444304570057E+02    0.33083E-02   -0.95986E-03 20200   0.676E-01    0.343E-01
DAV:   4    -0.444296375914E+02    0.81941E-03   -0.30127E-03 20688   0.379E-01    0.164E-01
DAV:   5    -0.444296710546E+02   -0.33463E-04   -0.47473E-04 19096   0.137E-01
  16 F= -.44429671E+02 E0= -.44429586E+02  d E =-.117174E+00
       N       E                     dE             d eps       ncg     rms          rms(c)
DAV:   1    -0.444407979922E+02   -0.11160E-01   -0.13651E+00 15056   0.938E+00    0.673E-01
DAV:   2    -0.444476322218E+02   -0.68342E-02   -0.12523E-01 19016   0.214E+00    0.360E-01
DAV:   3    -0.444464570569E+02    0.11752E-02   -0.33900E-03 20432   0.397E-01    0.193E-01
DAV:   4    -0.444461842215E+02    0.27284E-03   -0.10276E-03 21424   0.219E-01    0.967E-02
DAV:   5    -0.444461931684E+02   -0.89469E-05   -0.12752E-04 13168   0.768E-02
  17 F= -.44446193E+02 E0= -.44446205E+02  d E =-.133697E+00
       N       E                     dE             d eps       ncg     rms          rms(c)
DAV:   1    -0.445184921237E+02   -0.72308E-01   -0.25884E+00 16680   0.139E+01    0.758E-01
DAV:   2    -0.445357293918E+02   -0.17237E-01   -0.24479E-01 18152   0.304E+00    0.395E-01
DAV:   3    -0.445344993405E+02    0.12301E-02   -0.44717E-03 20152   0.467E-01    0.229E-01
DAV:   4    -0.445340624064E+02    0.43693E-03   -0.15094E-03 21752   0.274E-01    0.805E-02
DAV:   5    -0.445340756803E+02   -0.13274E-04   -0.19851E-04 16208   0.992E-02
  18 F= -.44534076E+02 E0= -.44534178E+02  d E =-.878825E-01
       N       E                     dE             d eps       ncg     rms          rms(c)
DAV:   1    -0.444729273298E+02    0.61135E-01   -0.22574E+01 14464   0.412E+01    0.226E+00
DAV:   2    -0.446455630216E+02   -0.17264E+00   -0.24191E+00 18272   0.956E+00    0.122E+00
DAV:   3    -0.446351313381E+02    0.10432E-01   -0.44838E-02 19672   0.149E+00    0.698E-01
DAV:   4    -0.446305748184E+02    0.45565E-02   -0.13869E-02 20344   0.845E-01    0.241E-01
DAV:   5    -0.446307409450E+02   -0.16613E-03   -0.21207E-03 18064   0.314E-01    0.108E-01
DAV:   6    -0.446307600279E+02   -0.19083E-04   -0.23262E-04 17120   0.119E-01
  19 F= -.44630760E+02 E0= -.44630862E+02  d E =-.184567E+00
       N       E                     dE             d eps       ncg     rms          rms(c)
DAV:   1    -0.446828936723E+02   -0.52153E-01   -0.30582E+00 14864   0.142E+01    0.771E-01
DAV:   2    -0.446994180574E+02   -0.16524E-01   -0.24802E-01 19032   0.329E+00    0.454E-01
DAV:   3    -0.446981295197E+02    0.12885E-02   -0.59463E-03 19728   0.517E-01    0.252E-01
DAV:   4    -0.446976762964E+02    0.45322E-03   -0.15743E-03 19648   0.279E-01    0.535E-02
DAV:   5    -0.446976920452E+02   -0.15749E-04   -0.17113E-04 13600   0.939E-02
  20 F= -.44697692E+02 E0= -.44697756E+02  d E =-.669320E-01
       N       E                     dE             d eps       ncg     rms          rms(c)
DAV:   1    -0.447017705047E+02   -0.40942E-02   -0.63434E+00 14696   0.204E+01    0.112E+00
DAV:   2    -0.447361672521E+02   -0.34397E-01   -0.52072E-01 19000   0.477E+00    0.655E-01
DAV:   3    -0.447334074647E+02    0.27598E-02   -0.12590E-02 19520   0.758E-01    0.362E-01
DAV:   4    -0.447324646305E+02    0.94283E-03   -0.33181E-03 19416   0.408E-01    0.781E-02
DAV:   5    -0.447325000771E+02   -0.35447E-04   -0.39188E-04 16984   0.138E-01
  21 F= -.44732500E+02 E0= -.44732532E+02  d E =-.101740E+00
       N       E                     dE             d eps       ncg     rms          rms(c)
DAV:   1    -0.447684560887E+02   -0.35991E-01   -0.14735E+00 15416   0.103E+01    0.588E-01
DAV:   2    -0.447774019355E+02   -0.89458E-02   -0.14086E-01 18664   0.244E+00    0.323E-01
DAV:   3    -0.447764707604E+02    0.93118E-03   -0.35493E-03 21320   0.403E-01    0.171E-01
DAV:   4    -0.447762072173E+02    0.26354E-03   -0.92757E-04 19176   0.219E-01    0.403E-02
DAV:   5    -0.447762165371E+02   -0.93198E-05   -0.11550E-04 13256   0.761E-02
  22 F= -.44776217E+02 E0= -.44776245E+02  d E =-.437165E-01
       N       E                     dE             d eps       ncg     rms          rms(c)
DAV:   1    -0.447803328931E+02   -0.41257E-02   -0.46313E+00 14352   0.182E+01    0.106E+00
DAV:   2    -0.448105241209E+02   -0.30191E-01   -0.46645E-01 18672   0.445E+00    0.582E-01
DAV:   3    -0.448077660176E+02    0.27581E-02   -0.12005E-02 21120   0.736E-01    0.310E-01
DAV:   4    -0.448069146191E+02    0.85140E-03   -0.29167E-03 19216   0.392E-01    0.715E-02
DAV:   5    -0.448069476891E+02   -0.33070E-04   -0.39425E-04 17416   0.135E-01
  23 F= -.44806948E+02 E0= -.44806972E+02  d E =-.744476E-01
       N       E                     dE             d eps       ncg     rms          rms(c)
DAV:   1    -0.448405986350E+02   -0.33684E-01   -0.11063E+00 14320   0.794E+00    0.570E-01
DAV:   2    -0.448435780375E+02   -0.29794E-02   -0.76603E-02 19072   0.192E+00    0.306E-01
DAV:   3    -0.448425269037E+02    0.10511E-02   -0.29446E-03 22744   0.354E-01    0.143E-01
DAV:   4    -0.448423550979E+02    0.17181E-03   -0.65146E-04 19176   0.178E-01    0.356E-02
DAV:   5    -0.448423592739E+02   -0.41760E-05   -0.58107E-05 11408   0.556E-02
  24 F= -.44842359E+02 E0= -.44842381E+02  d E =-.354116E-01
       N       E                     dE             d eps       ncg     rms          rms(c)
DAV:   1    -0.448680106832E+02   -0.25656E-01   -0.77282E+00 14304   0.210E+01    0.154E+00
DAV:   2    -0.448892130675E+02   -0.21202E-01   -0.53781E-01 19072   0.506E+00    0.813E-01
DAV:   3    -0.448817091371E+02    0.75039E-02   -0.20636E-02 22608   0.936E-01    0.363E-01
DAV:   4    -0.448805765981E+02    0.11325E-02   -0.44079E-03 19240   0.460E-01    0.944E-02
DAV:   5    -0.448806032255E+02   -0.26627E-04   -0.42538E-04 17304   0.142E-01
  25 F= -.44880603E+02 E0= -.44880627E+02  d E =-.736555E-01
       N       E                     dE             d eps       ncg     rms          rms(c)
DAV:   1    -0.449013847152E+02   -0.20808E-01   -0.22396E+00 14312   0.126E+01    0.806E-01
DAV:   2    -0.449184522341E+02   -0.17068E-01   -0.23413E-01 18112   0.317E+00    0.378E-01
DAV:   3    -0.449179754390E+02    0.47680E-03   -0.48051E-03 20080   0.450E-01    0.221E-01
DAV:   4    -0.449177841508E+02    0.19129E-03   -0.94846E-04 23464   0.211E-01    0.951E-02
DAV:   5    -0.449177966313E+02   -0.12481E-04   -0.78569E-05 12472   0.632E-02
  26 F= -.44917797E+02 E0= -.44917817E+02  d E =-.371934E-01
       N       E                     dE             d eps       ncg     rms          rms(c)
DAV:   1    -0.448725307214E+02    0.45253E-01   -0.11274E+01 14304   0.282E+01    0.173E+00
DAV:   2    -0.449573567297E+02   -0.84826E-01   -0.11598E+00 17880   0.711E+00    0.885E-01
DAV:   3    -0.449549416916E+02    0.24150E-02   -0.23496E-02 20480   0.100E+00    0.517E-01
DAV:   4    -0.449539213239E+02    0.10204E-02   -0.46749E-03 23840   0.461E-01    0.210E-01
DAV:   5    -0.449539917408E+02   -0.70417E-04   -0.46505E-04 18616   0.138E-01
  27 F= -.44953992E+02 E0= -.44954024E+02  d E =-.733885E-01
       N       E                     dE             d eps       ncg     rms          rms(c)
DAV:   1    -0.449829252072E+02   -0.29004E-01   -0.63655E-01 14400   0.542E+00    0.435E-01
DAV:   2    -0.449840144059E+02   -0.10892E-02   -0.30979E-02 19064   0.127E+00    0.209E-01
DAV:   3    -0.449836649833E+02    0.34942E-03   -0.13237E-03 21432   0.226E-01    0.995E-02
DAV:   4    -0.449836058004E+02    0.59183E-04   -0.24725E-04 18112   0.105E-01
  28 F= -.44983606E+02 E0= -.44983621E+02  d E =-.296141E-01
       N       E                     dE             d eps       ncg     rms          rms(c)
DAV:   1    -0.450498258259E+02   -0.66161E-01   -0.57490E+00 14304   0.163E+01    0.127E+00
DAV:   2    -0.450603719353E+02   -0.10546E-01   -0.28113E-01 19064   0.381E+00    0.635E-01
DAV:   3    -0.450571414383E+02    0.32305E-02   -0.11406E-02 21456   0.670E-01    0.301E-01
DAV:   4    -0.450565866938E+02    0.55474E-03   -0.23179E-03 21808   0.314E-01    0.188E-01
DAV:   5    -0.450566286443E+02   -0.41951E-04   -0.27739E-04 17848   0.977E-02
  29 F= -.45056629E+02 E0= -.45056617E+02  d E =-.102637E+00
       N       E                     dE             d eps       ncg     rms          rms(c)
DAV:   1    -0.450832685478E+02   -0.26682E-01   -0.23011E+01 14320   0.324E+01    0.249E+00
DAV:   2    -0.451354103836E+02   -0.52142E-01   -0.11464E+00 19072   0.756E+00    0.131E+00
DAV:   3    -0.451227029735E+02    0.12707E-01   -0.41937E-02 21728   0.129E+00    0.575E-01
DAV:   4    -0.451205858682E+02    0.21171E-02   -0.82410E-03 22664   0.597E-01    0.345E-01
DAV:   5    -0.451207402341E+02   -0.15437E-03   -0.94995E-04 21096   0.174E-01    0.142E-01
DAV:   6    -0.451207861560E+02   -0.45922E-04   -0.18294E-04 17048   0.846E-02
  30 F= -.45120786E+02 E0= -.45120772E+02  d E =-.166794E+00
       N       E                     dE             d eps       ncg     rms          rms(c)
DAV:   1    -0.451590936450E+02   -0.38353E-01   -0.32000E+00 14368   0.122E+01    0.755E-01
DAV:   2    -0.451716281292E+02   -0.12534E-01   -0.20660E-01 19056   0.279E+00    0.456E-01
DAV:   3    -0.451698053120E+02    0.18228E-02   -0.54764E-03 19336   0.489E-01    0.220E-01
DAV:   4    -0.451695284769E+02    0.27684E-03   -0.15764E-03 19016   0.256E-01    0.485E-02
DAV:   5    -0.451695426382E+02   -0.14161E-04   -0.15525E-04 13456   0.893E-02
  31 F= -.45169543E+02 E0= -.45169549E+02  d E =-.487565E-01
       N       E                     dE             d eps       ncg     rms          rms(c)
DAV:   1    -0.451770081935E+02   -0.74797E-02   -0.21839E+00 14392   0.998E+00    0.633E-01
DAV:   2    -0.451851187592E+02   -0.81106E-02   -0.13762E-01 19032   0.228E+00    0.378E-01
DAV:   3    -0.451838038239E+02    0.13149E-02   -0.38340E-03 19136   0.406E-01    0.178E-01
DAV:   4    -0.451836367906E+02    0.16703E-03   -0.10597E-03 19024   0.206E-01    0.404E-02
DAV:   5    -0.451836453047E+02   -0.85141E-05   -0.93663E-05 11568   0.709E-02
  32 F= -.45183645E+02 E0= -.45183665E+02  d E =-.628591E-01
       N       E                     dE             d eps       ncg     rms          rms(c)
DAV:   1    -0.452127883642E+02   -0.29152E-01   -0.61325E+00 14728   0.207E+01    0.135E+00
DAV:   2    -0.452598342778E+02   -0.47046E-01   -0.64393E-01 18256   0.491E+00    0.637E-01
DAV:   3    -0.452569628547E+02    0.28714E-02   -0.12254E-02 19864   0.764E-01    0.338E-01
DAV:   4    -0.452563341902E+02    0.62866E-03   -0.36900E-03 19176   0.416E-01    0.825E-02
DAV:   5    -0.452563729448E+02   -0.38755E-04   -0.49028E-04 17200   0.155E-01
  33 F= -.45256373E+02 E0= -.45256413E+02  d E =-.727276E-01
       N       E                     dE             d eps       ncg     rms          rms(c)
DAV:   1    -0.452391610890E+02    0.17173E-01   -0.67870E+00 14992   0.218E+01    0.138E+00
DAV:   2    -0.452908955599E+02   -0.51734E-01   -0.70121E-01 18024   0.513E+00    0.665E-01
DAV:   3    -0.452877465765E+02    0.31490E-02   -0.13067E-02 19976   0.790E-01    0.354E-01
DAV:   4    -0.452870675307E+02    0.67905E-03   -0.40092E-03 18872   0.436E-01    0.833E-02
DAV:   5    -0.452871106800E+02   -0.43149E-04   -0.54897E-04 17360   0.164E-01
  34 F= -.45287111E+02 E0= -.45287170E+02  d E =-.103465E+00
       N       E                     dE             d eps       ncg     rms          rms(c)
DAV:   1    -0.453620675772E+02   -0.75000E-01   -0.72671E+00 14304   0.210E+01    0.166E+00
DAV:   2    -0.453897835889E+02   -0.27716E-01   -0.52739E-01 18976   0.489E+00    0.761E-01
DAV:   3    -0.453847652330E+02    0.50184E-02   -0.14876E-02 20912   0.848E-01    0.406E-01
DAV:   4    -0.453837073830E+02    0.10578E-02   -0.54916E-03 19312   0.515E-01    0.104E-01
DAV:   5    -0.453837490386E+02   -0.41656E-04   -0.69714E-04 17256   0.180E-01
  35 F= -.45383749E+02 E0= -.45383821E+02  d E =-.966384E-01
       N       E                     dE             d eps       ncg     rms          rms(c)
DAV:   1    -0.453894309855E+02   -0.57236E-02   -0.12722E+00 14304   0.881E+00    0.690E-01
DAV:   2    -0.453944994312E+02   -0.50684E-02   -0.93525E-02 18968   0.206E+00    0.320E-01
DAV:   3    -0.453936294511E+02    0.86998E-03   -0.25812E-03 20880   0.353E-01    0.169E-01
DAV:   4    -0.453934440340E+02    0.18542E-03   -0.99309E-04 19160   0.219E-01    0.431E-02
DAV:   5    -0.453934514105E+02   -0.73765E-05   -0.12862E-04 13704   0.789E-02
  36 F= -.45393451E+02 E0= -.45393521E+02  d E =-.106341E+00
       N       E                     dE             d eps       ncg     rms          rms(c)
DAV:   1    -0.454120767960E+02   -0.18633E-01   -0.23203E+00 14312   0.125E+01    0.136E+00
DAV:   2    -0.454233444096E+02   -0.11268E-01   -0.24405E-01 17920   0.345E+00    0.498E-01
DAV:   3    -0.454214860994E+02    0.18583E-02   -0.71865E-03 18944   0.556E-01    0.261E-01
DAV:   4    -0.454209313040E+02    0.55480E-03   -0.29161E-03 26216   0.339E-01    0.223E-01
DAV:   5    -0.454209965967E+02   -0.65293E-04   -0.20594E-04 15416   0.888E-02
  37 F= -.45420997E+02 E0= -.45421058E+02  d E =-.275452E-01
       N       E                     dE             d eps       ncg     rms          rms(c)
DAV:   1    -0.454210506119E+02   -0.11931E-03   -0.82106E-03 14496   0.738E-01    0.879E-02
DAV:   2    -0.454210698351E+02   -0.19223E-04   -0.82857E-04 19440   0.207E-01
  38 F= -.45421070E+02 E0= -.45421130E+02  d E =-.276184E-01
       N       E                     dE             d eps       ncg     rms          rms(c)
DAV:   1    -0.454508218806E+02   -0.29771E-01   -0.21701E+00 14304   0.117E+01    0.141E+00
DAV:   2    -0.454522687822E+02   -0.14469E-02   -0.21367E-01 17920   0.338E+00    0.467E-01
DAV:   3    -0.454502229516E+02    0.20458E-02   -0.84183E-03 18592   0.603E-01    0.269E-01
DAV:   4    -0.454494573008E+02    0.76565E-03   -0.40538E-03 25960   0.390E-01    0.262E-01
DAV:   5    -0.454495146065E+02   -0.57306E-04   -0.34009E-04 17416   0.105E-01
  39 F= -.45449515E+02 E0= -.45449557E+02  d E =-.284448E-01
       N       E                     dE             d eps       ncg     rms          rms(c)
DAV:   1    -0.454558815356E+02   -0.64242E-02   -0.49828E+00 14304   0.178E+01    0.220E+00
DAV:   2    -0.454584472956E+02   -0.25658E-02   -0.48956E-01 18016   0.513E+00    0.729E-01
DAV:   3    -0.454535943946E+02    0.48529E-02   -0.19310E-02 18568   0.920E-01    0.413E-01
DAV:   4    -0.454517651656E+02    0.18292E-02   -0.98098E-03 25992   0.615E-01    0.398E-01
DAV:   5    -0.454518907904E+02   -0.12562E-03   -0.85552E-04 17592   0.166E-01    0.325E-01
DAV:   6    -0.454520652165E+02   -0.17443E-03   -0.27701E-04 19128   0.102E-01    0.521E-02
DAV:   7    -0.454520535344E+02    0.11682E-04   -0.61752E-05  9608   0.761E-02
  40 F= -.45452054E+02 E0= -.45452067E+02  d E =-.309837E-01
       N       E                     dE             d eps       ncg     rms          rms(c)
DAV:   1    -0.454582620056E+02   -0.61968E-02   -0.10159E+00 14304   0.802E+00    0.939E-01
DAV:   2    -0.454586418875E+02   -0.37988E-03   -0.98805E-02 18136   0.235E+00    0.310E-01
DAV:   3    -0.454576903908E+02    0.95150E-03   -0.40809E-03 18656   0.421E-01    0.184E-01
DAV:   4    -0.454572857697E+02    0.40462E-03   -0.16995E-03 24664   0.250E-01    0.174E-01
DAV:   5    -0.454573089852E+02   -0.23216E-04   -0.16888E-04 14840   0.741E-02
  41 F= -.45457309E+02 E0= -.45457335E+02  d E =-.362392E-01
       N       E                     dE             d eps       ncg     rms          rms(c)
DAV:   1    -0.454650168399E+02   -0.77311E-02   -0.22842E+00 14504   0.125E+01    0.827E-01
DAV:   2    -0.454831713876E+02   -0.18155E-01   -0.25784E-01 16976   0.319E+00    0.459E-01
DAV:   3    -0.454822252836E+02    0.94610E-03   -0.41227E-03 18712   0.430E-01    0.286E-01
DAV:   4    -0.454817072752E+02    0.51801E-03   -0.22543E-03 23208   0.337E-01    0.110E-01
DAV:   5    -0.454817320099E+02   -0.24735E-04   -0.34728E-04 16736   0.119E-01
  42 F= -.45481732E+02 E0= -.45481740E+02  d E =-.244230E-01
       N       E                     dE             d eps       ncg     rms          rms(c)
DAV:   1    -0.454784677287E+02    0.32395E-02   -0.11331E+00 14304   0.883E+00    0.585E-01
DAV:   2    -0.454875299801E+02   -0.90623E-02   -0.13010E-01 17200   0.228E+00    0.334E-01
DAV:   3    -0.454870555663E+02    0.47441E-03   -0.20867E-03 18616   0.306E-01    0.208E-01
DAV:   4    -0.454868077855E+02    0.24778E-03   -0.11953E-03 23408   0.244E-01    0.817E-02
DAV:   5    -0.454868215542E+02   -0.13769E-04   -0.18276E-04 14848   0.861E-02
  43 F= -.45486822E+02 E0= -.45486816E+02  d E =-.295126E-01
       N       E                     dE             d eps       ncg     rms          rms(c)
DAV:   1    -0.454983036323E+02   -0.11496E-01   -0.13722E+00 14304   0.878E+00    0.472E-01
DAV:   2    -0.455052225644E+02   -0.69189E-02   -0.92705E-02 18176   0.199E+00    0.312E-01
DAV:   3    -0.455049623458E+02    0.26022E-03   -0.17779E-03 20176   0.278E-01    0.192E-01
DAV:   4    -0.455048590770E+02    0.10327E-03   -0.59676E-04 18576   0.185E-01    0.235E-02
DAV:   5    -0.455048673864E+02   -0.83094E-05   -0.11545E-04 15112   0.706E-02
  44 F= -.45504867E+02 E0= -.45504838E+02  d E =-.180458E-01
       N       E                     dE             d eps       ncg     rms          rms(c)
DAV:   1    -0.455052976262E+02   -0.43855E-03   -0.55785E-01 14304   0.560E+00    0.296E-01
DAV:   2    -0.455081467214E+02   -0.28491E-02   -0.37914E-02 18216   0.127E+00    0.193E-01
DAV:   3    -0.455080458623E+02    0.10086E-03   -0.72264E-04 20032   0.177E-01    0.119E-01
DAV:   4    -0.455080053215E+02    0.40541E-04   -0.24119E-04 17712   0.119E-01
  45 F= -.45508005E+02 E0= -.45507961E+02  d E =-.211838E-01
       N       E                     dE             d eps       ncg     rms          rms(c)
DAV:   1    -0.455222947175E+02   -0.14249E-01   -0.12567E+00 14304   0.764E+00    0.452E-01
DAV:   2    -0.455253921961E+02   -0.30975E-02   -0.59708E-02 19128   0.172E+00    0.274E-01
DAV:   3    -0.455248360076E+02    0.55619E-03   -0.17214E-03 21864   0.267E-01    0.150E-01
DAV:   4    -0.455247128051E+02    0.12320E-03   -0.63148E-04 18992   0.168E-01    0.386E-02
DAV:   5    -0.455247223920E+02   -0.95870E-05   -0.10392E-04 13496   0.620E-02
  46 F= -.45524722E+02 E0= -.45524658E+02  d E =-.167171E-01
       N       E                     dE             d eps       ncg     rms          rms(c)
DAV:   1    -0.455282932249E+02   -0.35804E-02   -0.14655E+00 14304   0.824E+00    0.484E-01
DAV:   2    -0.455318767951E+02   -0.35836E-02   -0.69055E-02 19112   0.185E+00    0.293E-01
DAV:   3    -0.455312236958E+02    0.65310E-03   -0.19576E-03 21896   0.284E-01    0.161E-01
DAV:   4    -0.455310788078E+02    0.14489E-03   -0.72938E-04 18992   0.180E-01    0.410E-02
DAV:   5    -0.455310894276E+02   -0.10620E-04   -0.11516E-04 13752   0.663E-02
  47 F= -.45531089E+02 E0= -.45531008E+02  d E =-.230841E-01
       N       E                     dE             d eps       ncg     rms          rms(c)
DAV:   1    -0.455457802108E+02   -0.14701E-01   -0.12491E+00 14304   0.786E+00    0.500E-01
DAV:   2    -0.455489190184E+02   -0.31388E-02   -0.66226E-02 19056   0.186E+00    0.254E-01
DAV:   3    -0.455481052256E+02    0.81379E-03   -0.19839E-03 22224   0.282E-01    0.128E-01
DAV:   4    -0.455479445144E+02    0.16071E-03   -0.59933E-04 19048   0.161E-01    0.289E-02
DAV:   5    -0.455479507744E+02   -0.62600E-05   -0.56602E-05 10664   0.547E-02
  48 F= -.45547951E+02 E0= -.45547860E+02  d E =-.168613E-01
       N       E                     dE             d eps       ncg     rms          rms(c)
DAV:   1    -0.455526826271E+02   -0.47381E-02   -0.62103E+00 14304   0.175E+01    0.111E+00
DAV:   2    -0.455683536011E+02   -0.15671E-01   -0.32815E-01 19064   0.413E+00    0.565E-01
DAV:   3    -0.455643752171E+02    0.39784E-02   -0.96596E-03 22088   0.624E-01    0.289E-01
DAV:   4    -0.455635645462E+02    0.81067E-03   -0.30010E-03 19208   0.359E-01    0.636E-02
DAV:   5    -0.455636006247E+02   -0.36078E-04   -0.31841E-04 16760   0.123E-01
  49 F= -.45563601E+02 E0= -.45563498E+02  d E =-.325112E-01
       N       E                     dE             d eps       ncg     rms          rms(c)
DAV:   1    -0.455753023147E+02   -0.11738E-01   -0.18529E+00 14304   0.944E+00    0.648E-01
DAV:   2    -0.455788274755E+02   -0.35252E-02   -0.92631E-02 19312   0.210E+00    0.348E-01
DAV:   3    -0.455775825337E+02    0.12449E-02   -0.30549E-03 21536   0.357E-01    0.160E-01
DAV:   4    -0.455773521683E+02    0.23037E-03   -0.85843E-04 19408   0.199E-01    0.481E-02
DAV:   5    -0.455773625669E+02   -0.10399E-04   -0.78927E-05 11448   0.649E-02
  50 F= -.45577363E+02 E0= -.45577257E+02  d E =-.137619E-01
       N       E                     dE             d eps       ncg     rms          rms(c)
DAV:   1    -0.455787764171E+02   -0.14242E-02   -0.65550E-01 14304   0.562E+00    0.382E-01
DAV:   2    -0.455800411075E+02   -0.12647E-02   -0.32880E-02 19224   0.125E+00    0.207E-01
DAV:   3    -0.455795995749E+02    0.44153E-03   -0.10832E-03 21712   0.212E-01    0.957E-02
DAV:   4    -0.455795175481E+02    0.82027E-04   -0.30363E-04 18928   0.119E-01
  51 F= -.45579518E+02 E0= -.45579412E+02  d E =-.159169E-01
       N       E                     dE             d eps       ncg     rms          rms(c)
DAV:   1    -0.455788511190E+02    0.74846E-03   -0.20713E+00 14504   0.112E+01    0.651E-01
DAV:   2    -0.455896945871E+02   -0.10843E-01   -0.16222E-01 17336   0.259E+00    0.352E-01
DAV:   3    -0.455887030693E+02    0.99152E-03   -0.31975E-03 21568   0.378E-01    0.192E-01
DAV:   4    -0.455883818751E+02    0.32119E-03   -0.12318E-03 18544   0.256E-01    0.411E-02
DAV:   5    -0.455884051697E+02   -0.23295E-04   -0.24478E-04 16992   0.100E-01
  52 F= -.45588405E+02 E0= -.45588299E+02  d E =-.888762E-02
       N       E                     dE             d eps       ncg     rms          rms(c)
DAV:   1    -0.455884053138E+02   -0.23439E-04   -0.75559E-04 17120   0.223E-01    0.154E-02
DAV:   2    -0.455884109405E+02   -0.56267E-05   -0.67427E-05  9248   0.558E-02
  53 F= -.45588411E+02 E0= -.45588305E+02  d E =-.889339E-02
       N       E                     dE             d eps       ncg     rms          rms(c)
DAV:   1    -0.455935219176E+02   -0.51166E-02   -0.42074E-01 14304   0.454E+00    0.307E-01
DAV:   2    -0.455946256893E+02   -0.11038E-02   -0.20868E-02 19072   0.104E+00    0.144E-01
DAV:   3    -0.455944444581E+02    0.18123E-03   -0.61920E-04 19080   0.162E-01    0.804E-02
DAV:   4    -0.455944034014E+02    0.41057E-04   -0.23583E-04 18072   0.104E-01
  54 F= -.45594403E+02 E0= -.45594297E+02  d E =-.599246E-02
       N       E                     dE             d eps       ncg     rms          rms(c)
DAV:   1    -0.455954724678E+02   -0.10280E-02   -0.41937E-01 14304   0.453E+00    0.305E-01
DAV:   2    -0.455965803868E+02   -0.11079E-02   -0.20889E-02 19072   0.104E+00    0.146E-01
DAV:   3    -0.455964051581E+02    0.17523E-03   -0.62505E-04 19392   0.162E-01    0.833E-02
DAV:   4    -0.455963682898E+02    0.36868E-04   -0.23884E-04 18016   0.104E-01
  55 F= -.45596368E+02 E0= -.45596263E+02  d E =-.795735E-02
       N       E                     dE             d eps       ncg     rms          rms(c)
DAV:   1    -0.456012439919E+02   -0.48388E-02   -0.29857E-01 14304   0.351E+00    0.220E-01
DAV:   2    -0.456017665384E+02   -0.52255E-03   -0.91497E-03 19072   0.677E-01    0.114E-01
DAV:   3    -0.456016824445E+02    0.84094E-04   -0.27420E-04 16592   0.108E-01
  56 F= -.45601682E+02 E0= -.45601579E+02  d E =-.531415E-02
       N       E                     dE             d eps       ncg     rms          rms(c)
DAV:   1    -0.456030932916E+02   -0.13268E-02   -0.21185E+00 14304   0.936E+00    0.563E-01
DAV:   2    -0.456068522166E+02   -0.37589E-02   -0.64952E-02 19072   0.180E+00    0.294E-01
DAV:   3    -0.456062993882E+02    0.55283E-03   -0.20889E-03 21240   0.283E-01    0.146E-01
DAV:   4    -0.456062350952E+02    0.64293E-04   -0.62077E-04 19344   0.158E-01
  57 F= -.45606235E+02 E0= -.45606136E+02  d E =-.986681E-02
       N       E                     dE             d eps       ncg     rms          rms(c)
DAV:   1    -0.456089940887E+02   -0.26947E-02   -0.12978E-01 14328   0.228E+00    0.156E-01
DAV:   2    -0.456091450103E+02   -0.15092E-03   -0.39444E-03 19496   0.459E-01    0.794E-02
DAV:   3    -0.456090928626E+02    0.52148E-04   -0.13630E-04 14736   0.800E-02
  58 F= -.45609093E+02 E0= -.45608995E+02  d E =-.285777E-02
       N       E                     dE             d eps       ncg     rms          rms(c)
DAV:   1    -0.456133226738E+02   -0.41777E-02   -0.11538E+00 14304   0.679E+00    0.441E-01
DAV:   2    -0.456145500565E+02   -0.12274E-02   -0.34659E-02 19544   0.136E+00    0.225E-01
DAV:   3    -0.456141012718E+02    0.44878E-03   -0.14622E-03 22040   0.236E-01    0.107E-01
DAV:   4    -0.456140361264E+02    0.65145E-04   -0.31419E-04 18448   0.118E-01
  59 F= -.45614036E+02 E0= -.45613941E+02  d E =-.780103E-02
       N       E                     dE             d eps       ncg     rms          rms(c)
DAV:   1    -0.456164444995E+02   -0.23432E-02   -0.30306E-02 16808   0.158E+00    0.909E-02
DAV:   2    -0.456166982296E+02   -0.25373E-03   -0.34477E-03 17920   0.363E-01    0.451E-02
DAV:   3    -0.456166829266E+02    0.15303E-04   -0.47745E-05 12888   0.547E-02
  60 F= -.45616683E+02 E0= -.45616587E+02  d E =-.264680E-02
