       N       E                     dE             d eps       ncg     rms          rms(c)
DAV:   1    -0.115031530476E+02   -0.11503E+02   -0.48893E+03 13536   0.379E+02
DAV:   2    -0.470186697890E+02   -0.35516E+02   -0.33989E+02 17448   0.883E+01
DAV:   3    -0.486550342516E+02   -0.16364E+01   -0.16253E+01 17056   0.176E+01
DAV:   4    -0.486603106309E+02   -0.52764E-02   -0.52761E-02 15640   0.113E+00
DAV:   5    -0.486603292157E+02   -0.18585E-04   -0.18585E-04 17216   0.630E-02    0.787E+00
DAV:   6    -0.477313317651E+02    0.92900E+00   -0.93558E-01 16424   0.415E+00    0.436E+00
DAV:   7    -0.474750801869E+02    0.25625E+00   -0.75152E-01 16736   0.425E+00    0.111E+00
DAV:   8    -0.474886779768E+02   -0.13598E-01   -0.18298E-01 16488   0.201E+00    0.484E-01
DAV:   9    -0.474903056024E+02   -0.16276E-02   -0.44012E-03 15888   0.403E-01    0.174E-01
DAV:  10    -0.474914750496E+02   -0.11694E-02   -0.24753E-03 16480   0.239E-01    0.513E-02
DAV:  11    -0.474916701768E+02   -0.19513E-03   -0.22069E-04 16296   0.696E-02    0.175E-02
DAV:  12    -0.474917130846E+02   -0.42908E-04   -0.42418E-05 11200   0.333E-02
   1 F= -.47491713E+02 E0= -.47491632E+02  d E =-.474917E+02
       N       E                     dE             d eps       ncg     rms          rms(c)
DAV:   1    -0.510422204062E+02   -0.35506E+01   -0.65403E+01 13976   0.406E+01    0.284E+00
DAV:   2    -0.513056065275E+02   -0.26339E+00   -0.38163E+00 17456   0.964E+00    0.196E+00
DAV:   3    -0.512661863948E+02    0.39420E-01   -0.79574E-02 16376   0.179E+00    0.711E-01
DAV:   4    -0.512697149010E+02   -0.35285E-02   -0.51674E-02 17184   0.105E+00    0.176E-01
DAV:   5    -0.512704436199E+02   -0.72872E-03   -0.32659E-03 15936   0.283E-01    0.772E-02
DAV:   6    -0.512705278759E+02   -0.84256E-04   -0.17502E-04 14968   0.745E-02
   2 F= -.51270528E+02 E0= -.51270512E+02  d E =-.377881E+01
       N       E                     dE             d eps       ncg     rms          rms(c)
DAV:   1    -0.511234600304E+02    0.14698E+00   -0.34161E+01 14808   0.308E+01    0.229E+00
DAV:   2    -0.512968623605E+02   -0.17340E+00   -0.25059E+00 17328   0.786E+00    0.184E+00
DAV:   3    -0.512516671835E+02    0.45195E-01   -0.56729E-02 16904   0.176E+00    0.610E-01
DAV:   4    -0.512550635086E+02   -0.33963E-02   -0.66202E-02 17360   0.116E+00    0.129E-01
DAV:   5    -0.512555260196E+02   -0.46251E-03   -0.43990E-03 15616   0.305E-01    0.849E-02
DAV:   6    -0.512556856383E+02   -0.15962E-03   -0.38160E-04 16664   0.995E-02    0.179E-02
DAV:   7    -0.512556988641E+02   -0.13226E-04   -0.53417E-05  7576   0.353E-02
   3 F= -.51255699E+02 E0= -.51255585E+02  d E =-.376399E+01
       N       E                     dE             d eps       ncg     rms          rms(c)
DAV:   1    -0.516792956033E+02   -0.42361E+00   -0.14228E+01 14632   0.201E+01    0.152E+00
DAV:   2    -0.517406191899E+02   -0.61324E-01   -0.99086E-01 17032   0.496E+00    0.117E+00
DAV:   3    -0.517229932891E+02    0.17626E-01   -0.27966E-02 16440   0.112E+00    0.328E-01
DAV:   4    -0.517246552640E+02   -0.16620E-02   -0.18496E-02 16744   0.593E-01    0.839E-02
DAV:   5    -0.517248179964E+02   -0.16273E-03   -0.71748E-04 16096   0.133E-01    0.426E-02
DAV:   6    -0.517248736208E+02   -0.55624E-04   -0.78135E-05  8960   0.458E-02
   4 F= -.51724874E+02 E0= -.51724843E+02  d E =-.423316E+01
       N       E                     dE             d eps       ncg     rms          rms(c)
DAV:   1    -0.517958236096E+02   -0.71006E-01   -0.21891E+00 14688   0.782E+00    0.562E-01
DAV:   2    -0.518067298815E+02   -0.10906E-01   -0.15760E-01 17192   0.197E+00    0.446E-01
DAV:   3    -0.518041464146E+02    0.25835E-02   -0.31110E-03 16568   0.407E-01    0.160E-01
DAV:   4    -0.518042938730E+02   -0.14746E-03   -0.33273E-03 17024   0.266E-01    0.303E-02
DAV:   5    -0.518043303666E+02   -0.36494E-04   -0.29242E-04 11680   0.803E-02
   5 F= -.51804330E+02 E0= -.51804237E+02  d E =-.431262E+01
       N       E                     dE             d eps       ncg     rms          rms(c)
DAV:   1    -0.535102311737E+02   -0.17059E+01   -0.38879E+01 13648   0.325E+01    0.221E+00
DAV:   2    -0.536426167901E+02   -0.13239E+00   -0.21766E+00 17728   0.738E+00    0.151E+00
DAV:   3    -0.536204127704E+02    0.22204E-01   -0.55031E-02 15856   0.133E+00    0.501E-01
DAV:   4    -0.536223980707E+02   -0.19853E-02   -0.24179E-02 17256   0.718E-01    0.144E-01
DAV:   5    -0.536225651448E+02   -0.16707E-03   -0.76725E-04 15920   0.150E-01    0.560E-02
DAV:   6    -0.536226201920E+02   -0.55047E-04   -0.15411E-04 13112   0.626E-02
   6 F= -.53622620E+02 E0= -.53622570E+02  d E =-.181829E+01
       N       E                     dE             d eps       ncg     rms          rms(c)
DAV:   1    -0.536402264678E+02   -0.17661E-01   -0.51081E+01 13712   0.378E+01    0.250E+00
DAV:   2    -0.538284495118E+02   -0.18822E+00   -0.27815E+00 17680   0.850E+00    0.180E+00
DAV:   3    -0.537997003717E+02    0.28749E-01   -0.65192E-02 16344   0.151E+00    0.567E-01
DAV:   4    -0.538020683692E+02   -0.23680E-02   -0.30977E-02 16568   0.819E-01    0.180E-01
DAV:   5    -0.538021947290E+02   -0.12636E-03   -0.63974E-04 16264   0.152E-01    0.616E-02
DAV:   6    -0.538022487528E+02   -0.54024E-04   -0.22858E-04 15272   0.762E-02
   7 F= -.53802249E+02 E0= -.53802270E+02  d E =-.199792E+01
       N       E                     dE             d eps       ncg     rms          rms(c)
DAV:   1    -0.540001003567E+02   -0.19791E+00   -0.12966E+01 13688   0.188E+01    0.126E+00
DAV:   2    -0.540336393378E+02   -0.33539E-01   -0.55676E-01 17616   0.384E+00    0.862E-01
DAV:   3    -0.540278196592E+02    0.58197E-02   -0.16682E-02 16328   0.750E-01    0.248E-01
DAV:   4    -0.540285127984E+02   -0.69314E-03   -0.73799E-03 16288   0.399E-01    0.922E-02
DAV:   5    -0.540285753976E+02   -0.62599E-04   -0.16549E-04 15504   0.723E-02
   8 F= -.54028575E+02 E0= -.54028548E+02  d E =-.222425E+01
       N       E                     dE             d eps       ncg     rms          rms(c)
DAV:   1    -0.556234125107E+02   -0.15949E+01   -0.19617E+01 13776   0.235E+01    0.172E+00
DAV:   2    -0.556628481932E+02   -0.39436E-01   -0.94261E-01 17616   0.502E+00    0.126E+00
DAV:   3    -0.556397390557E+02    0.23109E-01   -0.48239E-02 16592   0.148E+00    0.253E-01
DAV:   4    -0.556418088929E+02   -0.20698E-02   -0.24180E-02 15672   0.712E-01    0.985E-02
DAV:   5    -0.556418632499E+02   -0.54357E-04   -0.31457E-04 16760   0.102E-01
   9 F= -.55641863E+02 E0= -.55641863E+02  d E =-.161329E+01
       N       E                     dE             d eps       ncg     rms          rms(c)
DAV:   1    -0.559895255570E+02   -0.34772E+00   -0.21807E+01 14920   0.253E+01    0.174E+00
DAV:   2    -0.560520393571E+02   -0.62514E-01   -0.10809E+00 17288   0.535E+00    0.132E+00
DAV:   3    -0.560296497418E+02    0.22390E-01   -0.37764E-02 16888   0.134E+00    0.336E-01
DAV:   4    -0.560313955935E+02   -0.17459E-02   -0.21604E-02 15768   0.690E-01    0.989E-02
DAV:   5    -0.560314191478E+02   -0.23554E-04   -0.36698E-04 16712   0.113E-01
  10 F= -.56031419E+02 E0= -.56031421E+02  d E =-.200284E+01
       N       E                     dE             d eps       ncg     rms          rms(c)
DAV:   1    -0.560787120836E+02   -0.47316E-01   -0.18594E+00 15448   0.748E+00    0.515E-01
DAV:   2    -0.560836631568E+02   -0.49511E-02   -0.90888E-02 16808   0.156E+00    0.391E-01
DAV:   3    -0.560816683012E+02    0.19949E-02   -0.34157E-03 17008   0.413E-01    0.892E-02
DAV:   4    -0.560818368938E+02   -0.16859E-03   -0.19966E-03 15248   0.206E-01    0.301E-02
DAV:   5    -0.560818368408E+02    0.52984E-07   -0.27672E-05  8424   0.327E-02
  11 F= -.56081837E+02 E0= -.56081853E+02  d E =-.205326E+01
       N       E                     dE             d eps       ncg     rms          rms(c)
DAV:   1    -0.570601063281E+02   -0.97827E+00   -0.73479E+00 14832   0.138E+01    0.110E+00
DAV:   2    -0.570811720732E+02   -0.21066E-01   -0.32055E-01 17072   0.289E+00    0.762E-01
DAV:   3    -0.570769708264E+02    0.42012E-02   -0.13468E-02 16568   0.782E-01    0.737E-02
DAV:   4    -0.570772729476E+02   -0.30212E-03   -0.54797E-03 15840   0.364E-01    0.603E-02
DAV:   5    -0.570771741285E+02    0.98819E-04   -0.24783E-04 15416   0.111E-01
  12 F= -.57077174E+02 E0= -.57077193E+02  d E =-.995337E+00
       N       E                     dE             d eps       ncg     rms          rms(c)
DAV:   1    -0.576342269985E+02   -0.55695E+00   -0.22732E+01 15104   0.249E+01    0.194E+00
DAV:   2    -0.577124618046E+02   -0.78235E-01   -0.11538E+00 17072   0.550E+00    0.139E+00
DAV:   3    -0.576960762491E+02    0.16386E-01   -0.47372E-02 16576   0.158E+00    0.138E-01
DAV:   4    -0.576971967277E+02   -0.11205E-02   -0.20895E-02 15784   0.736E-01    0.116E-01
DAV:   5    -0.576969119463E+02    0.28478E-03   -0.74347E-04 16680   0.203E-01    0.451E-02
DAV:   6    -0.576969889823E+02   -0.77036E-04   -0.46147E-04 13600   0.108E-01
  13 F= -.57696989E+02 E0= -.57696999E+02  d E =-.161515E+01
       N       E                     dE             d eps       ncg     rms          rms(c)
DAV:   1    -0.584112627310E+02   -0.71435E+00   -0.11795E+01 14608   0.174E+01    0.128E+00
DAV:   2    -0.584476275844E+02   -0.36365E-01   -0.56420E-01 17248   0.392E+00    0.942E-01
DAV:   3    -0.584385061307E+02    0.91215E-02   -0.17815E-02 16456   0.916E-01    0.220E-01
DAV:   4    -0.584393424262E+02   -0.83630E-03   -0.95336E-03 16104   0.469E-01    0.675E-02
DAV:   5    -0.584392976016E+02    0.44825E-04   -0.23498E-04 14072   0.109E-01
  14 F= -.58439298E+02 E0= -.58439334E+02  d E =-.742309E+00
       N       E                     dE             d eps       ncg     rms          rms(c)
DAV:   1    -0.585243829362E+02   -0.85041E-01   -0.32160E+00 15000   0.924E+00    0.713E-01
DAV:   2    -0.585344353669E+02   -0.10052E-01   -0.16362E-01 16984   0.210E+00    0.518E-01
DAV:   3    -0.585316130388E+02    0.28223E-02   -0.54449E-03 16680   0.499E-01    0.119E-01
DAV:   4    -0.585318429175E+02   -0.22988E-03   -0.27624E-03 15872   0.251E-01    0.351E-02
DAV:   5    -0.585318306248E+02    0.12293E-04   -0.68442E-05 10680   0.568E-02
  15 F= -.58531831E+02 E0= -.58531889E+02  d E =-.834842E+00
       N       E                     dE             d eps       ncg     rms          rms(c)
DAV:   1    -0.589039535177E+02   -0.37211E+00   -0.12643E+01 15392   0.184E+01    0.156E+00
DAV:   2    -0.589213709367E+02   -0.17417E-01   -0.54940E-01 16976   0.385E+00    0.113E+00
DAV:   3    -0.589030836534E+02    0.18287E-01   -0.48019E-02 16648   0.157E+00    0.978E-02
DAV:   4    -0.589042538210E+02   -0.11702E-02   -0.19480E-02 15640   0.693E-01    0.633E-02
DAV:   5    -0.589042073059E+02    0.46515E-04   -0.83169E-04 17032   0.179E-01
  16 F= -.58904207E+02 E0= -.58904311E+02  d E =-.372377E+00
       N       E                     dE             d eps       ncg     rms          rms(c)
DAV:   1    -0.589508094247E+02   -0.46556E-01   -0.77180E-01 15512   0.473E+00    0.393E-01
DAV:   2    -0.589524328614E+02   -0.16234E-02   -0.41765E-02 16736   0.106E+00    0.300E-01
DAV:   3    -0.589510514431E+02    0.13814E-02   -0.31859E-03 16616   0.403E-01    0.241E-02
DAV:   4    -0.589511304092E+02   -0.78966E-04   -0.12364E-03 15656   0.173E-01    0.158E-02
DAV:   5    -0.589511275342E+02    0.28750E-05   -0.47929E-05  8008   0.448E-02
  17 F= -.58951128E+02 E0= -.58951226E+02  d E =-.419297E+00
       N       E                     dE             d eps       ncg     rms          rms(c)
DAV:   1    -0.592472025260E+02   -0.29607E+00   -0.22859E+00 14344   0.801E+00    0.544E-01
DAV:   2    -0.592586303764E+02   -0.11428E-01   -0.14326E-01 17416   0.188E+00    0.409E-01
DAV:   3    -0.592571351824E+02    0.14952E-02   -0.20942E-03 16112   0.325E-01    0.142E-01
DAV:   4    -0.592572491813E+02   -0.11400E-03   -0.17797E-03 17112   0.208E-01    0.270E-02
DAV:   5    -0.592572411653E+02    0.80159E-05   -0.11476E-04 10104   0.643E-02
  18 F= -.59257241E+02 E0= -.59257325E+02  d E =-.306114E+00
       N       E                     dE             d eps       ncg     rms          rms(c)
DAV:   1    -0.593792162843E+02   -0.12197E+00   -0.31068E+00 14560   0.939E+00    0.663E-01
DAV:   2    -0.593941591770E+02   -0.14943E-01   -0.19526E-01 17360   0.219E+00    0.506E-01
DAV:   3    -0.593916148739E+02    0.25443E-02   -0.37662E-03 16328   0.444E-01    0.150E-01
DAV:   4    -0.593918474219E+02   -0.23255E-03   -0.30022E-03 17112   0.263E-01    0.335E-02
DAV:   5    -0.593918309837E+02    0.16438E-04   -0.12077E-04 11208   0.691E-02
  19 F= -.59391831E+02 E0= -.59391898E+02  d E =-.440703E+00
       N       E                     dE             d eps       ncg     rms          rms(c)
DAV:   1    -0.595926918936E+02   -0.20084E+00   -0.13422E+00 13920   0.585E+00    0.421E-01
DAV:   2    -0.595967546603E+02   -0.40628E-02   -0.64730E-02 17632   0.120E+00    0.286E-01
DAV:   3    -0.595958550692E+02    0.89959E-03   -0.23881E-03 15888   0.294E-01    0.556E-02
DAV:   4    -0.595959338490E+02   -0.78780E-04   -0.79520E-04 16048   0.130E-01
  20 F= -.59595934E+02 E0= -.59595994E+02  d E =-.204103E+00
       N       E                     dE             d eps       ncg     rms          rms(c)
DAV:   1    -0.598696989916E+02   -0.27384E+00   -0.12078E+01 13944   0.174E+01    0.130E+00
DAV:   2    -0.599038634638E+02   -0.34164E-01   -0.58788E-01 17560   0.353E+00    0.898E-01
DAV:   3    -0.598940459619E+02    0.98175E-02   -0.26294E-02 16176   0.927E-01    0.165E-01
DAV:   4    -0.598947469260E+02   -0.70096E-03   -0.80349E-03 16296   0.414E-01    0.709E-02
DAV:   5    -0.598947350441E+02    0.11882E-04   -0.26533E-04 14368   0.826E-02
  21 F= -.59894735E+02 E0= -.59894790E+02  d E =-.502904E+00
       N       E                     dE             d eps       ncg     rms          rms(c)
DAV:   1    -0.602281088680E+02   -0.33336E+00   -0.31830E+00 14176   0.858E+00    0.776E-01
DAV:   2    -0.602252437505E+02    0.28651E-02   -0.10754E-01 17416   0.158E+00    0.460E-01
DAV:   3    -0.602221750382E+02    0.30687E-02   -0.11278E-02 16256   0.503E-01    0.107E-01
DAV:   4    -0.602222851742E+02   -0.11014E-03   -0.18452E-03 16176   0.214E-01    0.456E-02
DAV:   5    -0.602222984305E+02   -0.13256E-04   -0.82816E-05  9952   0.447E-02
  22 F= -.60222298E+02 E0= -.60222353E+02  d E =-.327563E+00
       N       E                     dE             d eps       ncg     rms          rms(c)
DAV:   1    -0.610832506215E+02   -0.86097E+00   -0.29047E+01 14040   0.255E+01    0.240E+00
DAV:   2    -0.610637576205E+02    0.19493E-01   -0.10666E+00 17504   0.497E+00    0.148E+00
DAV:   3    -0.610280968755E+02    0.35661E-01   -0.11629E-01 16168   0.173E+00    0.298E-01
DAV:   4    -0.610296660243E+02   -0.15691E-02   -0.22318E-02 16160   0.757E-01    0.153E-01
DAV:   5    -0.610298016792E+02   -0.13565E-03   -0.97353E-04 17136   0.152E-01    0.315E-02
DAV:   6    -0.610298269144E+02   -0.25235E-04   -0.19005E-04 11912   0.653E-02
  23 F= -.61029827E+02 E0= -.61030005E+02  d E =-.113509E+01
       N       E                     dE             d eps       ncg     rms          rms(c)
DAV:   1    -0.590651234202E+02    0.19647E+01   -0.12158E+02 14176   0.522E+01    0.517E+00
DAV:   2    -0.591491567164E+02   -0.84033E-01   -0.54979E+00 17560   0.110E+01    0.363E+00
DAV:   3    -0.589198181677E+02    0.22934E+00   -0.52798E-01 16560   0.431E+00    0.358E-01
DAV:   4    -0.589300147937E+02   -0.10197E-01   -0.13388E-01 15600   0.189E+00    0.267E-01
DAV:   5    -0.589298164177E+02    0.19838E-03   -0.37556E-03 17376   0.347E-01    0.955E-02
DAV:   6    -0.589300842752E+02   -0.26786E-03   -0.12911E-03 16696   0.174E-01    0.311E-02
DAV:   7    -0.589301339306E+02   -0.49655E-04   -0.67615E-05 13056   0.468E-02
  24 F= -.58930134E+02 E0= -.58930323E+02  d E =0.964601E+00
       N       E                     dE             d eps       ncg     rms          rms(c)
DAV:   1    -0.614325033786E+02   -0.25024E+01   -0.10070E+02 14344   0.519E+01    0.541E+00
DAV:   2    -0.612625487824E+02    0.16995E+00   -0.33694E+00 17288   0.877E+00    0.318E+00
DAV:   3    -0.611368369296E+02    0.12571E+00   -0.43364E-01 16560   0.337E+00    0.462E-01
DAV:   4    -0.611433720726E+02   -0.65351E-02   -0.78834E-02 16128   0.146E+00    0.260E-01
DAV:   5    -0.611434685522E+02   -0.96480E-04   -0.32780E-03 16960   0.299E-01    0.918E-02
DAV:   6    -0.611436968636E+02   -0.22831E-03   -0.96106E-04 15880   0.147E-01    0.300E-02
DAV:   7    -0.611437231269E+02   -0.26263E-04   -0.29626E-05  8984   0.333E-02
  25 F= -.61143723E+02 E0= -.61143968E+02  d E =-.124899E+01
       N       E                     dE             d eps       ncg     rms          rms(c)
DAV:   1    -0.619365486015E+02   -0.79285E+00   -0.10045E+01 15248   0.167E+01    0.139E+00
DAV:   2    -0.619531417606E+02   -0.16593E-01   -0.53092E-01 16896   0.374E+00    0.103E+00
DAV:   3    -0.619348073543E+02    0.18334E-01   -0.33329E-02 16880   0.133E+00    0.154E-01
DAV:   4    -0.619366123373E+02   -0.18050E-02   -0.18579E-02 15600   0.630E-01    0.764E-02
DAV:   5    -0.619366195282E+02   -0.71910E-05   -0.15268E-04 14576   0.932E-02
  26 F= -.61936620E+02 E0= -.61936860E+02  d E =-.792896E+00
       N       E                     dE             d eps       ncg     rms          rms(c)
DAV:   1    -0.619770133380E+02   -0.40401E-01   -0.14294E+00 15016   0.616E+00    0.494E-01
DAV:   2    -0.619798934881E+02   -0.28802E-02   -0.70134E-02 16936   0.136E+00    0.359E-01
DAV:   3    -0.619777697117E+02    0.21238E-02   -0.34954E-03 17008   0.440E-01    0.638E-02
DAV:   4    -0.619779735422E+02   -0.20383E-03   -0.21787E-03 15896   0.212E-01    0.264E-02
DAV:   5    -0.619779733420E+02    0.20019E-06   -0.25184E-05  8344   0.362E-02
  27 F= -.61977973E+02 E0= -.61978193E+02  d E =-.834250E+00
       N       E                     dE             d eps       ncg     rms          rms(c)
DAV:   1    -0.625651932317E+02   -0.58722E+00   -0.70449E+00 13864   0.121E+01    0.122E+00
DAV:   2    -0.625689149465E+02   -0.37217E-02   -0.27267E-01 17120   0.248E+00    0.779E-01
DAV:   3    -0.625595619624E+02    0.93530E-02   -0.20532E-02 16976   0.840E-01    0.836E-02
DAV:   4    -0.625601773291E+02   -0.61537E-03   -0.64227E-03 15176   0.399E-01    0.657E-02
DAV:   5    -0.625601895292E+02   -0.12200E-04   -0.84076E-05 14760   0.585E-02
  28 F= -.62560190E+02 E0= -.62560352E+02  d E =-.582216E+00
       N       E                     dE             d eps       ncg     rms          rms(c)
DAV:   1    -0.627400844791E+02   -0.17991E+00   -0.50996E+00 14416   0.107E+01    0.106E+00
DAV:   2    -0.627431540789E+02   -0.30696E-02   -0.19280E-01 17352   0.213E+00    0.703E-01
DAV:   3    -0.627356751318E+02    0.74789E-02   -0.15230E-02 16960   0.830E-01    0.528E-02
DAV:   4    -0.627362588882E+02   -0.58376E-03   -0.62987E-03 15528   0.395E-01    0.519E-02
DAV:   5    -0.627362389284E+02    0.19960E-04   -0.64510E-05 13216   0.579E-02
  29 F= -.62736239E+02 E0= -.62736409E+02  d E =-.758266E+00
       N       E                     dE             d eps       ncg     rms          rms(c)
DAV:   1    -0.632108221683E+02   -0.47456E+00   -0.79693E+00 14400   0.144E+01    0.114E+00
DAV:   2    -0.632292661271E+02   -0.18444E-01   -0.36172E-01 17272   0.297E+00    0.846E-01
DAV:   3    -0.632185448594E+02    0.10721E-01   -0.16402E-02 16632   0.994E-01    0.788E-02
DAV:   4    -0.632195993404E+02   -0.10545E-02   -0.10512E-02 16088   0.476E-01    0.607E-02
DAV:   5    -0.632195162843E+02    0.83056E-04   -0.62259E-05 14152   0.767E-02
  30 F= -.63219516E+02 E0= -.63219689E+02  d E =-.483277E+00
       N       E                     dE             d eps       ncg     rms          rms(c)
DAV:   1    -0.632501549211E+02   -0.30556E-01   -0.77993E-01 14696   0.458E+00    0.374E-01
DAV:   2    -0.632518896586E+02   -0.17347E-02   -0.37442E-02 17136   0.959E-01    0.277E-01
DAV:   3    -0.632507484808E+02    0.11412E-02   -0.17811E-03 16792   0.329E-01    0.272E-02
DAV:   4    -0.632508670857E+02   -0.11860E-03   -0.11734E-03 15584   0.159E-01    0.195E-02
DAV:   5    -0.632508579806E+02    0.91051E-05   -0.69620E-06  7776   0.264E-02
  31 F= -.63250858E+02 E0= -.63251031E+02  d E =-.514619E+00
       N       E                     dE             d eps       ncg     rms          rms(c)
DAV:   1    -0.635566160264E+02   -0.30575E+00   -0.52515E+00 14800   0.116E+01    0.882E-01
DAV:   2    -0.635690142437E+02   -0.12398E-01   -0.25610E-01 16776   0.242E+00    0.672E-01
DAV:   3    -0.635632585820E+02    0.57557E-02   -0.17324E-02 17896   0.876E-01    0.703E-02
DAV:   4    -0.635636758588E+02   -0.41728E-03   -0.61464E-03 15808   0.384E-01    0.475E-02
DAV:   5    -0.635637070987E+02   -0.31240E-04   -0.18245E-04 17096   0.737E-02
  32 F= -.63563707E+02 E0= -.63563886E+02  d E =-.312849E+00
       N       E                     dE             d eps       ncg     rms          rms(c)
DAV:   1    -0.635733251324E+02   -0.96493E-02   -0.30708E-01 14472   0.277E+00    0.202E-01
DAV:   2    -0.635741404642E+02   -0.81533E-03   -0.14523E-02 17024   0.565E-01    0.154E-01
DAV:   3    -0.635738509601E+02    0.28950E-03   -0.81721E-04 17032   0.192E-01    0.174E-02
DAV:   4    -0.635738774193E+02   -0.26459E-04   -0.31429E-04 14176   0.845E-02
  33 F= -.63573877E+02 E0= -.63574059E+02  d E =-.323019E+00
       N       E                     dE             d eps       ncg     rms          rms(c)
DAV:   1    -0.637390973275E+02   -0.16525E+00   -0.26816E+00 13976   0.845E+00    0.603E-01
DAV:   2    -0.637476850204E+02   -0.85877E-02   -0.13729E-01 17368   0.177E+00    0.474E-01
DAV:   3    -0.637444091708E+02    0.32758E-02   -0.45207E-03 16216   0.518E-01    0.710E-02
DAV:   4    -0.637447465319E+02   -0.33736E-03   -0.34149E-03 17240   0.261E-01    0.352E-02
DAV:   5    -0.637447188855E+02    0.27646E-04   -0.48796E-05  8912   0.492E-02
  34 F= -.63744719E+02 E0= -.63744926E+02  d E =-.170841E+00
       N       E                     dE             d eps       ncg     rms          rms(c)
DAV:   1    -0.637646434917E+02   -0.19897E-01   -0.64345E-01 13984   0.414E+00    0.299E-01
DAV:   2    -0.637666502453E+02   -0.20068E-02   -0.32919E-02 17400   0.868E-01    0.234E-01
DAV:   3    -0.637658539107E+02    0.79633E-03   -0.11096E-03 16216   0.254E-01    0.360E-02
DAV:   4    -0.637659367156E+02   -0.82805E-04   -0.83631E-04 16192   0.129E-01
  35 F= -.63765937E+02 E0= -.63766157E+02  d E =-.192059E+00
       N       E                     dE             d eps       ncg     rms          rms(c)
DAV:   1    -0.639090435109E+02   -0.14319E+00   -0.29393E+00 14000   0.849E+00    0.723E-01
DAV:   2    -0.639133447541E+02   -0.43012E-02   -0.11655E-01 17488   0.157E+00    0.508E-01
DAV:   3    -0.639095302119E+02    0.38145E-02   -0.68468E-03 16272   0.519E-01    0.336E-02
DAV:   4    -0.639097715271E+02   -0.24132E-03   -0.23919E-03 16592   0.236E-01    0.350E-02
DAV:   5    -0.639097538417E+02    0.17685E-04   -0.19605E-05  9544   0.319E-02
  36 F= -.63909754E+02 E0= -.63910000E+02  d E =-.143817E+00
       N       E                     dE             d eps       ncg     rms          rms(c)
DAV:   1    -0.639235364587E+02   -0.13765E-01   -0.45251E-01 14168   0.335E+00    0.292E-01
DAV:   2    -0.639240951297E+02   -0.55867E-03   -0.18051E-02 17376   0.625E-01    0.205E-01
DAV:   3    -0.639234728269E+02    0.62230E-03   -0.11535E-03 16272   0.214E-01    0.139E-02
DAV:   4    -0.639235144444E+02   -0.41617E-04   -0.41481E-04 14888   0.979E-02
  37 F= -.63923514E+02 E0= -.63923791E+02  d E =-.157578E+00
       N       E                     dE             d eps       ncg     rms          rms(c)
DAV:   1    -0.640133590716E+02   -0.89886E-01   -0.22281E+00 14208   0.761E+00    0.610E-01
DAV:   2    -0.640188288943E+02   -0.54698E-02   -0.10829E-01 17328   0.158E+00    0.471E-01
DAV:   3    -0.640155803686E+02    0.32485E-02   -0.53251E-03 16632   0.566E-01    0.496E-02
DAV:   4    -0.640159280752E+02   -0.34771E-03   -0.35397E-03 16056   0.270E-01    0.330E-02
DAV:   5    -0.640159060763E+02    0.21999E-04   -0.24377E-05 10256   0.447E-02
  38 F= -.64015906E+02 E0= -.64016252E+02  d E =-.923916E-01
       N       E                     dE             d eps       ncg     rms          rms(c)
DAV:   1    -0.640176190981E+02   -0.16910E-02   -0.50770E-02 14304   0.115E+00    0.946E-02
DAV:   2    -0.640177497724E+02   -0.13067E-03   -0.26393E-03 17344   0.246E-01    0.732E-02
DAV:   3    -0.640176708655E+02    0.78907E-04   -0.11784E-04 14176   0.876E-02
  39 F= -.64017671E+02 E0= -.64018015E+02  d E =-.941564E-01
       N       E                     dE             d eps       ncg     rms          rms(c)
DAV:   1    -0.640710880754E+02   -0.53338E-01   -0.10371E+00 13840   0.515E+00    0.372E-01
DAV:   2    -0.640738497955E+02   -0.27617E-02   -0.46212E-02 17584   0.100E+00    0.296E-01
DAV:   3    -0.640727509661E+02    0.10988E-02   -0.22024E-03 16360   0.324E-01    0.369E-02
DAV:   4    -0.640728623532E+02   -0.11139E-03   -0.11090E-03 16400   0.153E-01    0.197E-02
DAV:   5    -0.640728564857E+02    0.58676E-05   -0.11718E-05  7784   0.249E-02
  40 F= -.64072856E+02 E0= -.64073234E+02  d E =-.551856E-01
       N       E                     dE             d eps       ncg     rms          rms(c)
DAV:   1    -0.640770602070E+02   -0.41979E-02   -0.13049E-01 13864   0.183E+00    0.131E-01
DAV:   2    -0.640774224413E+02   -0.36223E-03   -0.59468E-03 17648   0.358E-01    0.105E-01
DAV:   3    -0.640772818808E+02    0.14056E-03   -0.25954E-04 15368   0.113E-01    0.148E-02
DAV:   4    -0.640772965961E+02   -0.14715E-04   -0.14227E-04  8568   0.547E-02
  41 F= -.64077297E+02 E0= -.64077683E+02  d E =-.596257E-01
       N       E                     dE             d eps       ncg     rms          rms(c)
DAV:   1    -0.641222296964E+02   -0.44948E-01   -0.10403E+00 13832   0.507E+00    0.395E-01
DAV:   2    -0.641238262043E+02   -0.15965E-02   -0.36483E-02 17632   0.895E-01    0.292E-01
DAV:   3    -0.641226827137E+02    0.11435E-02   -0.24246E-03 15904   0.306E-01    0.252E-02
DAV:   4    -0.641227631777E+02   -0.80464E-04   -0.92913E-04 16560   0.143E-01
  42 F= -.64122763E+02 E0= -.64123199E+02  d E =-.454666E-01
       N       E                     dE             d eps       ncg     rms          rms(c)
DAV:   1    -0.641323451000E+02   -0.96624E-02   -0.46864E-01 13912   0.340E+00    0.268E-01
DAV:   2    -0.641331501318E+02   -0.80503E-03   -0.16977E-02 17664   0.610E-01    0.198E-01
DAV:   3    -0.641326522849E+02    0.49785E-03   -0.10055E-03 15784   0.198E-01    0.177E-02
DAV:   4    -0.641326923141E+02   -0.40029E-04   -0.40642E-04 15160   0.946E-02
  43 F= -.64132692E+02 E0= -.64133141E+02  d E =-.553957E-01
       N       E                     dE             d eps       ncg     rms          rms(c)
DAV:   1    -0.641694730268E+02   -0.36821E-01   -0.73420E-01 13816   0.423E+00    0.334E-01
DAV:   2    -0.641704808909E+02   -0.10079E-02   -0.24095E-02 17640   0.724E-01    0.245E-01
DAV:   3    -0.641697539651E+02    0.72693E-03   -0.16526E-03 15984   0.248E-01    0.244E-02
DAV:   4    -0.641697973099E+02   -0.43345E-04   -0.56446E-04 15744   0.110E-01
  44 F= -.64169797E+02 E0= -.64170276E+02  d E =-.371050E-01
       N       E                     dE             d eps       ncg     rms          rms(c)
DAV:   1    -0.641886618561E+02   -0.18908E-01   -0.15552E+00 13792   0.615E+00    0.483E-01
DAV:   2    -0.641910702569E+02   -0.24084E-02   -0.52308E-02 17640   0.106E+00    0.358E-01
DAV:   3    -0.641894794735E+02    0.15908E-02   -0.32030E-03 15920   0.344E-01    0.333E-02
DAV:   4    -0.641895848056E+02   -0.10533E-03   -0.11592E-03 16760   0.157E-01    0.269E-02
DAV:   5    -0.641895726515E+02    0.12154E-04   -0.17459E-05  8424   0.272E-02
  45 F= -.64189573E+02 E0= -.64189879E+02  d E =-.568803E-01
       N       E                     dE             d eps       ncg     rms          rms(c)
DAV:   1    -0.642201323231E+02   -0.30548E-01   -0.63049E-01 13664   0.389E+00    0.295E-01
DAV:   2    -0.642212844268E+02   -0.11521E-02   -0.21657E-02 17640   0.679E-01    0.225E-01
DAV:   3    -0.642207401141E+02    0.54431E-03   -0.13810E-03 15704   0.227E-01    0.237E-02
DAV:   4    -0.642207752899E+02   -0.35176E-04   -0.48630E-04 16040   0.100E-01
  46 F= -.64220775E+02 E0= -.64220918E+02  d E =-.312026E-01
       N       E                     dE             d eps       ncg     rms          rms(c)
DAV:   1    -0.642399024095E+02   -0.19162E-01   -0.17326E+00 13648   0.645E+00    0.485E-01
DAV:   2    -0.642432915679E+02   -0.33892E-02   -0.60188E-02 17656   0.113E+00    0.371E-01
DAV:   3    -0.642418849224E+02    0.14066E-02   -0.36400E-03 15544   0.366E-01    0.400E-02
DAV:   4    -0.642419813443E+02   -0.96422E-04   -0.12718E-03 16808   0.162E-01    0.281E-02
DAV:   5    -0.642419704522E+02    0.10892E-04   -0.24840E-05  9000   0.326E-02
  47 F= -.64241970E+02 E0= -.64242005E+02  d E =-.523978E-01
       N       E                     dE             d eps       ncg     rms          rms(c)
DAV:   1    -0.642749617832E+02   -0.32980E-01   -0.81188E-01 13640   0.444E+00    0.324E-01
DAV:   2    -0.642763686166E+02   -0.14068E-02   -0.26397E-02 17832   0.761E-01    0.248E-01
DAV:   3    -0.642756780038E+02    0.69061E-03   -0.16796E-03 15656   0.248E-01    0.262E-02
DAV:   4    -0.642757321197E+02   -0.54116E-04   -0.63949E-04 16240   0.114E-01
  48 F= -.64275732E+02 E0= -.64275793E+02  d E =-.337617E-01
       N       E                     dE             d eps       ncg     rms          rms(c)
DAV:   1    -0.642842712176E+02   -0.85932E-02   -0.56277E-01 13648   0.371E+00    0.269E-01
DAV:   2    -0.642853819434E+02   -0.11107E-02   -0.19000E-02 17840   0.644E-01    0.207E-01
DAV:   3    -0.642849320070E+02    0.44994E-03   -0.10516E-03 15720   0.198E-01    0.240E-02
DAV:   4    -0.642849760772E+02   -0.44070E-04   -0.43790E-04 15808   0.938E-02
  49 F= -.64284976E+02 E0= -.64285066E+02  d E =-.430056E-01
       N       E                     dE             d eps       ncg     rms          rms(c)
DAV:   1    -0.643075494318E+02   -0.22617E-01   -0.52254E-01 13712   0.353E+00    0.255E-01
DAV:   2    -0.643082056255E+02   -0.65619E-03   -0.13673E-02 17616   0.548E-01    0.188E-01
DAV:   3    -0.643078336350E+02    0.37199E-03   -0.97082E-04 15504   0.184E-01    0.194E-02
DAV:   4    -0.643078581925E+02   -0.24557E-04   -0.33506E-04 15032   0.834E-02
  50 F= -.64307858E+02 E0= -.64307946E+02  d E =-.228821E-01
       N       E                     dE             d eps       ncg     rms          rms(c)
DAV:   1    -0.643176635435E+02   -0.98299E-02   -0.91110E-01 13680   0.467E+00    0.338E-01
DAV:   2    -0.643188385260E+02   -0.11750E-02   -0.24499E-02 17592   0.732E-01    0.251E-01
DAV:   3    -0.643181504626E+02    0.68806E-03   -0.16807E-03 15536   0.243E-01    0.247E-02
DAV:   4    -0.643181983647E+02   -0.47902E-04   -0.60195E-04 16184   0.111E-01
  51 F= -.64318198E+02 E0= -.64318283E+02  d E =-.332223E-01
       N       E                     dE             d eps       ncg     rms          rms(c)
DAV:   1    -0.643359611217E+02   -0.17811E-01   -0.35220E-01 13664   0.287E+00    0.212E-01
DAV:   2    -0.643363884225E+02   -0.42730E-03   -0.87529E-03 17728   0.432E-01    0.155E-01
DAV:   3    -0.643361820966E+02    0.20633E-03   -0.63622E-04 15464   0.140E-01    0.167E-02
DAV:   4    -0.643361938674E+02   -0.11771E-04   -0.18087E-04 13048   0.614E-02
  52 F= -.64336194E+02 E0= -.64336270E+02  d E =-.179955E-01
       N       E                     dE             d eps       ncg     rms          rms(c)
DAV:   1    -0.643652877426E+02   -0.29106E-01   -0.31511E+00 13592   0.861E+00    0.637E-01
DAV:   2    -0.643687970841E+02   -0.35093E-02   -0.79323E-02 17744   0.130E+00    0.464E-01
DAV:   3    -0.643667004398E+02    0.20966E-02   -0.59347E-03 15448   0.425E-01    0.505E-02
DAV:   4    -0.643668008345E+02   -0.10039E-03   -0.16249E-03 16720   0.185E-01    0.381E-02
DAV:   5    -0.643667772592E+02    0.23575E-04   -0.40255E-05  9496   0.374E-02
  53 F= -.64366777E+02 E0= -.64366861E+02  d E =-.485789E-01
       N       E                     dE             d eps       ncg     rms          rms(c)
DAV:   1    -0.644008628256E+02   -0.34062E-01   -0.97521E-01 13600   0.482E+00    0.384E-01
DAV:   2    -0.644016113691E+02   -0.74854E-03   -0.25976E-02 17640   0.755E-01    0.271E-01
DAV:   3    -0.644007826933E+02    0.82868E-03   -0.20931E-03 15648   0.269E-01    0.276E-02
DAV:   4    -0.644008355693E+02   -0.52876E-04   -0.70319E-04 16456   0.124E-01
  54 F= -.64400836E+02 E0= -.64400920E+02  d E =-.340583E-01
       N       E                     dE             d eps       ncg     rms          rms(c)
DAV:   1    -0.644105645552E+02   -0.97819E-02   -0.68380E-01 13592   0.404E+00    0.319E-01
DAV:   2    -0.644112313756E+02   -0.66682E-03   -0.18695E-02 17704   0.640E-01    0.226E-01
DAV:   3    -0.644106993239E+02    0.53205E-03   -0.13700E-03 15632   0.215E-01    0.233E-02
DAV:   4    -0.644107368629E+02   -0.37539E-04   -0.45647E-04 16056   0.993E-02
  55 F= -.64410737E+02 E0= -.64410822E+02  d E =-.439596E-01
       N       E                     dE             d eps       ncg     rms          rms(c)
DAV:   1    -0.644300265973E+02   -0.19327E-01   -0.66097E-01 13544   0.396E+00    0.296E-01
DAV:   2    -0.644305937694E+02   -0.56717E-03   -0.15524E-02 17696   0.580E-01    0.209E-01
DAV:   3    -0.644301678452E+02    0.42592E-03   -0.12410E-03 15816   0.189E-01    0.220E-02
DAV:   4    -0.644301903042E+02   -0.22459E-04   -0.32818E-04 15160   0.844E-02
  56 F= -.64430190E+02 E0= -.64430275E+02  d E =-.194534E-01
       N       E                     dE             d eps       ncg     rms          rms(c)
DAV:   1    -0.644413209534E+02   -0.11153E-01   -0.15320E+00 13576   0.604E+00    0.449E-01
DAV:   2    -0.644426556928E+02   -0.13347E-02   -0.36538E-02 17624   0.889E-01    0.317E-01
DAV:   3    -0.644416480591E+02    0.10076E-02   -0.28098E-03 15904   0.284E-01    0.333E-02
DAV:   4    -0.644417020582E+02   -0.53999E-04   -0.74024E-04 16440   0.127E-01
  57 F= -.64441702E+02 E0= -.64441786E+02  d E =-.309652E-01
       N       E                     dE             d eps       ncg     rms          rms(c)
DAV:   1    -0.644574698794E+02   -0.15822E-01   -0.35411E-01 13560   0.289E+00    0.211E-01
DAV:   2    -0.644577320315E+02   -0.26215E-03   -0.72136E-03 17696   0.391E-01    0.147E-01
DAV:   3    -0.644575511486E+02    0.18088E-03   -0.61569E-04 15296   0.125E-01    0.170E-02
DAV:   4    -0.644575551653E+02   -0.40167E-05   -0.12349E-04 10880   0.516E-02
  58 F= -.64457555E+02 E0= -.64457643E+02  d E =-.158531E-01
       N       E                     dE             d eps       ncg     rms          rms(c)
DAV:   1    -0.644848527273E+02   -0.27302E-01   -0.31898E+00 13544   0.869E+00    0.637E-01
DAV:   2    -0.644869114584E+02   -0.20587E-02   -0.66382E-02 17744   0.118E+00    0.443E-01
DAV:   3    -0.644850008169E+02    0.19106E-02   -0.55698E-03 15296   0.378E-01    0.486E-02
DAV:   4    -0.644850515753E+02   -0.50758E-04   -0.11429E-03 16952   0.155E-01    0.357E-02
DAV:   5    -0.644850274833E+02    0.24092E-04   -0.43351E-05  8824   0.351E-02
  59 F= -.64485027E+02 E0= -.64485128E+02  d E =-.433254E-01
       N       E                     dE             d eps       ncg     rms          rms(c)
DAV:   1    -0.644873072027E+02   -0.22556E-02   -0.47175E-01 13568   0.334E+00    0.247E-01
DAV:   2    -0.644876071995E+02   -0.30000E-03   -0.98983E-03 17688   0.459E-01    0.173E-01
DAV:   3    -0.644873177571E+02    0.28944E-03   -0.88928E-04 15280   0.151E-01    0.210E-02
DAV:   4    -0.644873211530E+02   -0.33959E-05   -0.17896E-04 13432   0.620E-02
  60 F= -.64487321E+02 E0= -.64487426E+02  d E =-.456191E-01
