 running on   32 total cores
 distrk:  each k-point on   32 cores,    1 groups
 distr:  one band on    8 cores,    4 groups
 using from now: INCAR     
 vasp.5.4.4.18Apr17-6-g9f103f2a35 (build Nov 01 2019 12:17:22) complex          
  
 POSCAR found type information on POSCAR  H  Sr H  Nb H 
 POSCAR found :  5 types and      20 ions

 ----------------------------------------------------------------------------- 
|                                                                             |
|  ADVICE TO THIS USER RUNNING 'VASP/VAMP'   (HEAR YOUR MASTER'S VOICE ...):  |
|                                                                             |
|      You have a (more or less) 'large supercell' and for larger cells       |
|      it might be more efficient to use real space projection opertators     |
|      So try LREAL= Auto  in the INCAR   file.                               |
|      Mind:          For very  accurate calculation you might also keep the  |
|      reciprocal projection scheme          (i.e. LREAL=.FALSE.)             |
|                                                                             |
 ----------------------------------------------------------------------------- 

 LDA part: xc-table for Pade appr. of Perdew
 generate k-points for:    9    7    7
 POSCAR, INCAR and KPOINTS ok, starting setup
 FFT: planning ...
 WAVECAR not read
 entering main loop
       N       E                     dE             d eps       ncg     rms          rms(c)
DAV:   1     0.113096894459E+03    0.11310E+03   -0.12164E+04 14912   0.624E+02
DAV:   2    -0.636237315326E+02   -0.17672E+03   -0.17127E+03 17600   0.237E+02
DAV:   3    -0.744200812164E+02   -0.10796E+02   -0.10706E+02 21992   0.480E+01
DAV:   4    -0.748529583262E+02   -0.43288E+00   -0.43120E+00 22360   0.834E+00
DAV:   5    -0.748604555055E+02   -0.74972E-02   -0.74961E-02 20432   0.895E-01    0.358E+01
DAV:   6    -0.721533766494E+02    0.27071E+01   -0.40358E+00 21272   0.116E+01    0.163E+01
DAV:   7    -0.712164574024E+02    0.93692E+00   -0.16435E+00 21176   0.545E+00    0.660E+00
DAV:   8    -0.711801092125E+02    0.36348E-01   -0.38957E-01 21040   0.320E+00    0.191E+00
DAV:   9    -0.711823127150E+02   -0.22035E-02   -0.16821E-02 17640   0.675E-01    0.112E+00
DAV:  10    -0.711850222823E+02   -0.27096E-02   -0.97028E-03 20440   0.498E-01    0.131E-01
DAV:  11    -0.711853830305E+02   -0.36075E-03   -0.92566E-04 18728   0.156E-01    0.884E-02
DAV:  12    -0.711855542531E+02   -0.17122E-03   -0.19377E-04 17176   0.694E-02    0.389E-02
DAV:  13    -0.711855662105E+02   -0.11957E-04   -0.23149E-05 11520   0.263E-02
   1 F= -.71185566E+02 E0= -.71185548E+02  d E =-.711856E+02
 curvature:   0.00 expect dE= 0.000E+00 dE for cont linesearch  0.000E+00
 trial: gam= 0.00000 g(F)=  0.169E-02 g(S)=  0.216E-03 ort = 0.000E+00 (trialstep = 0.100E+01)
 search vector abs. value=  0.191E-02
 bond charge predicted
       N       E                     dE             d eps       ncg     rms          rms(c)
DAV:   1    -0.711855673328E+02   -0.13080E-04   -0.53114E-02 17160   0.154E+00    0.110E-01
DAV:   2    -0.711859375263E+02   -0.37019E-03   -0.52735E-03 17632   0.378E-01    0.748E-02
DAV:   3    -0.711858838541E+02    0.53672E-04   -0.86225E-05 15416   0.617E-02
   2 F= -.71185884E+02 E0= -.71185857E+02  d E =-.317644E-03
 trial-energy change:   -0.000318  1 .order   -0.000407   -0.001911    0.001098
 step:   0.6352(harm=  0.6352)  dis= 0.00190  next Energy=   -71.186173 (dE=-0.607E-03)
 bond charge predicted
       N       E                     dE             d eps       ncg     rms          rms(c)
DAV:   1    -0.711860785637E+02   -0.14104E-03   -0.79554E-03 16336   0.597E-01    0.430E-02
DAV:   2    -0.711861475333E+02   -0.68970E-04   -0.92860E-04 17472   0.160E-01
   3 F= -.71186148E+02 E0= -.71186124E+02  d E =-.581323E-03
 curvature:  -0.32 expect dE=-0.403E-03 dE for cont linesearch -0.832E-05
 trial: gam= 0.78073 g(F)=  0.121E-02 g(S)=  0.627E-04 ort =-0.224E-03 (trialstep = 0.850E+00)
 search vector abs. value=  0.208E-02
 reached required accuracy - stopping structural energy minimisation
