       N       E                     dE             d eps       ncg     rms          rms(c)
DAV:   1     0.111645716009E+03    0.11165E+03   -0.90340E+03 27256   0.735E+02
DAV:   2    -0.280663481108E+02   -0.13971E+03   -0.13650E+03 34736   0.292E+02
DAV:   3    -0.354919632277E+02   -0.74256E+01   -0.73581E+01 48932   0.524E+01
DAV:   4    -0.356573710133E+02   -0.16541E+00   -0.16475E+00 37896   0.611E+00
DAV:   5    -0.356630076321E+02   -0.56366E-02   -0.56337E-02 44136   0.109E+00    0.335E+01
DAV:   6    -0.332795728565E+02    0.23834E+01   -0.70847E+00 39512   0.197E+01    0.131E+01
DAV:   7    -0.329687315827E+02    0.31084E+00   -0.97320E-01 41312   0.516E+00    0.763E+00
DAV:   8    -0.329513070898E+02    0.17424E-01   -0.26643E-01 42384   0.303E+00    0.199E+00
DAV:   9    -0.329465996633E+02    0.47074E-02   -0.43480E-02 34856   0.130E+00    0.293E-01
DAV:  10    -0.329465728778E+02    0.26786E-04   -0.27606E-03 37800   0.405E-01    0.106E-01
DAV:  11    -0.329465941801E+02   -0.21302E-04   -0.19058E-04 27704   0.108E-01
   1 F= -.32946594E+02 E0= -.32946604E+02  d E =-.329466E+02
       N       E                     dE             d eps       ncg     rms          rms(c)
DAV:   1    -0.329459380637E+02    0.63481E-03   -0.10525E-01 32908   0.326E+00    0.130E-01
DAV:   2    -0.329470990335E+02   -0.11610E-02   -0.13432E-02 29000   0.730E-01    0.729E-02
DAV:   3    -0.329470824527E+02    0.16581E-04   -0.20726E-04 40448   0.105E-01
   2 F= -.32947082E+02 E0= -.32947093E+02  d E =-.488273E-03
       N       E                     dE             d eps       ncg     rms          rms(c)
DAV:   1    -0.329470649710E+02    0.34063E-04   -0.30317E-03 34136   0.557E-01    0.227E-02
DAV:   2    -0.329471004908E+02   -0.35520E-04   -0.39294E-04 30532   0.129E-01
   3 F= -.32947100E+02 E0= -.32947111E+02  d E =-.506311E-03
