   8   8   0   0
  0.8288940E+01  0.3441919E-09  0.6541524E-09  0.3435950E-09  0.5000000E-15
  1.000000000000000E-004
  CAR 
 unknown system                          
     12.17319739    -33.97101004  301      3.82830154      1.00000000
    -33.971  0.0000E+00  0.0000E+00
    -33.817  0.0000E+00  0.0000E+00
    -33.663  0.0000E+00  0.0000E+00
    -33.510  0.0000E+00  0.0000E+00
    -33.356  0.0000E+00  0.0000E+00
    -33.202  0.0000E+00  0.0000E+00
    -33.048  0.0000E+00  0.0000E+00
    -32.894  0.0000E+00  0.0000E+00
    -32.740  0.9943E-33  0.1529E-33
    -32.587  0.2436E-22  0.3747E-23
    -32.433  0.4747E-14  0.7302E-15
    -32.279  0.6791E-08  0.1045E-08
    -32.125  0.5536E-04  0.8516E-05
    -31.971 -0.1558E-02 -0.2311E-03
    -31.818  0.7347E-01  0.1107E-01
    -31.664  0.1494E+00  0.3405E-01
    -31.510 -0.4928E-02  0.3330E-01
    -31.356  0.2386E-03  0.3333E-01
    -31.202  0.1364E-06  0.3333E-01
    -31.049  0.3659E-12  0.3333E-01
    -30.895  0.0000E+00  0.3333E-01
    -30.741  0.0000E+00  0.3333E-01
    -30.587  0.0000E+00  0.3333E-01
    -30.433  0.0000E+00  0.3333E-01
    -30.279  0.0000E+00  0.3333E-01
    -30.126  0.0000E+00  0.3333E-01
    -29.972  0.0000E+00  0.3333E-01
    -29.818  0.0000E+00  0.3333E-01
    -29.664  0.0000E+00  0.3333E-01
    -29.510  0.0000E+00  0.3333E-01
    -29.357  0.0000E+00  0.3333E-01
    -29.203  0.0000E+00  0.3333E-01
    -29.049  0.0000E+00  0.3333E-01
    -28.895  0.0000E+00  0.3333E-01
    -28.741  0.0000E+00  0.3333E-01
    -28.588  0.4590E-32  0.3333E-01
    -28.434  0.1029E-21  0.3333E-01
    -28.280  0.1831E-13  0.3333E-01
    -28.126  0.2323E-07  0.3333E-01
    -27.972  0.1449E-03  0.3336E-01
    -27.818 -0.4623E-02  0.3264E-01
    -27.665  0.1260E+00  0.5203E-01
    -27.511  0.4087E+00  0.1149E+00
    -27.357  0.1203E+00  0.1334E+00
    -27.203 -0.4321E-03  0.1333E+00
    -27.049  0.4410E-04  0.1333E+00
    -26.896  0.1292E-08  0.1333E+00
    -26.742  0.2248E-15  0.1333E+00
    -26.588  0.0000E+00  0.1333E+00
    -26.434  0.0000E+00  0.1333E+00
    -26.280  0.0000E+00  0.1333E+00
    -26.126  0.0000E+00  0.1333E+00
    -25.973  0.0000E+00  0.1333E+00
    -25.819  0.0000E+00  0.1333E+00
    -25.665  0.0000E+00  0.1333E+00
    -25.511  0.0000E+00  0.1333E+00
    -25.357  0.0000E+00  0.1333E+00
    -25.204  0.0000E+00  0.1333E+00
    -25.050  0.0000E+00  0.1333E+00
    -24.896  0.0000E+00  0.1333E+00
    -24.742  0.0000E+00  0.1333E+00
    -24.588  0.0000E+00  0.1333E+00
    -24.435  0.0000E+00  0.1333E+00
    -24.281  0.0000E+00  0.1333E+00
    -24.127  0.0000E+00  0.1333E+00
    -23.973  0.0000E+00  0.1333E+00
    -23.819  0.0000E+00  0.1333E+00
    -23.665  0.0000E+00  0.1333E+00
    -23.512  0.0000E+00  0.1333E+00
    -23.358  0.0000E+00  0.1333E+00
    -23.204  0.0000E+00  0.1333E+00
    -23.050  0.0000E+00  0.1333E+00
    -22.896  0.0000E+00  0.1333E+00
    -22.743  0.0000E+00  0.1333E+00
    -22.589  0.0000E+00  0.1333E+00
    -22.435  0.0000E+00  0.1333E+00
    -22.281  0.0000E+00  0.1333E+00
    -22.127  0.0000E+00  0.1333E+00
    -21.974  0.0000E+00  0.1333E+00
    -21.820  0.0000E+00  0.1333E+00
    -21.666  0.0000E+00  0.1333E+00
    -21.512  0.0000E+00  0.1333E+00
    -21.358  0.0000E+00  0.1333E+00
    -21.204  0.0000E+00  0.1333E+00
    -21.051  0.0000E+00  0.1333E+00
    -20.897  0.0000E+00  0.1333E+00
    -20.743  0.0000E+00  0.1333E+00
    -20.589  0.0000E+00  0.1333E+00
    -20.435  0.0000E+00  0.1333E+00
    -20.282  0.0000E+00  0.1333E+00
    -20.128  0.0000E+00  0.1333E+00
    -19.974  0.0000E+00  0.1333E+00
    -19.820  0.0000E+00  0.1333E+00
    -19.666  0.0000E+00  0.1333E+00
    -19.512  0.0000E+00  0.1333E+00
    -19.359  0.0000E+00  0.1333E+00
    -19.205  0.0000E+00  0.1333E+00
    -19.051  0.0000E+00  0.1333E+00
    -18.897  0.0000E+00  0.1333E+00
    -18.743  0.0000E+00  0.1333E+00
    -18.590  0.0000E+00  0.1333E+00
    -18.436  0.0000E+00  0.1333E+00
    -18.282  0.0000E+00  0.1333E+00
    -18.128  0.0000E+00  0.1333E+00
    -17.974  0.0000E+00  0.1333E+00
    -17.821  0.0000E+00  0.1333E+00
    -17.667  0.0000E+00  0.1333E+00
    -17.513  0.0000E+00  0.1333E+00
    -17.359  0.0000E+00  0.1333E+00
    -17.205  0.0000E+00  0.1333E+00
    -17.051  0.0000E+00  0.1333E+00
    -16.898  0.0000E+00  0.1333E+00
    -16.744  0.0000E+00  0.1333E+00
    -16.590  0.0000E+00  0.1333E+00
    -16.436  0.0000E+00  0.1333E+00
    -16.282  0.0000E+00  0.1333E+00
    -16.129  0.0000E+00  0.1333E+00
    -15.975  0.0000E+00  0.1333E+00
    -15.821  0.0000E+00  0.1333E+00
    -15.667  0.0000E+00  0.1333E+00
    -15.513  0.0000E+00  0.1333E+00
    -15.360  0.7539E-29  0.1333E+00
    -15.206  0.2448E-19  0.1333E+00
    -15.052  0.6269E-12  0.1333E+00
    -14.898  0.1125E-06  0.1333E+00
    -14.744  0.8517E-04  0.1333E+00
    -14.590 -0.8545E-03  0.1332E+00
    -14.437  0.4099E-01  0.1395E+00
    -14.283  0.8593E-01  0.1527E+00
    -14.129  0.5871E-01  0.1618E+00
    -13.975  0.5729E-01  0.1706E+00
    -13.821  0.1387E+00  0.1919E+00
    -13.668  0.1834E+00  0.2201E+00
    -13.514  0.8662E-01  0.2334E+00
    -13.360 -0.9085E-03  0.2333E+00
    -13.206  0.1847E-03  0.2333E+00
    -13.052  0.3801E-06  0.2333E+00
    -12.898  0.2854E-11  0.2333E+00
    -12.745  0.0000E+00  0.2333E+00
    -12.591  0.0000E+00  0.2333E+00
    -12.437  0.0000E+00  0.2333E+00
    -12.283  0.0000E+00  0.2333E+00
    -12.129  0.0000E+00  0.2333E+00
    -11.976  0.0000E+00  0.2333E+00
    -11.822  0.0000E+00  0.2333E+00
    -11.668  0.0000E+00  0.2333E+00
    -11.514  0.0000E+00  0.2333E+00
    -11.360  0.0000E+00  0.2333E+00
    -11.207  0.0000E+00  0.2333E+00
    -11.053  0.0000E+00  0.2333E+00
    -10.899  0.0000E+00  0.2333E+00
    -10.745  0.0000E+00  0.2333E+00
    -10.591  0.0000E+00  0.2333E+00
    -10.437  0.0000E+00  0.2333E+00
    -10.284  0.0000E+00  0.2333E+00
    -10.130  0.0000E+00  0.2333E+00
     -9.976  0.0000E+00  0.2333E+00
     -9.822  0.0000E+00  0.2333E+00
     -9.668  0.0000E+00  0.2333E+00
     -9.515  0.0000E+00  0.2333E+00
     -9.361  0.0000E+00  0.2333E+00
     -9.207  0.0000E+00  0.2333E+00
     -9.053  0.0000E+00  0.2333E+00
     -8.899  0.0000E+00  0.2333E+00
     -8.746  0.0000E+00  0.2333E+00
     -8.592  0.0000E+00  0.2333E+00
     -8.438  0.0000E+00  0.2333E+00
     -8.284  0.0000E+00  0.2333E+00
     -8.130  0.0000E+00  0.2333E+00
     -7.976  0.0000E+00  0.2333E+00
     -7.823  0.0000E+00  0.2333E+00
     -7.669  0.0000E+00  0.2333E+00
     -7.515  0.0000E+00  0.2333E+00
     -7.361  0.0000E+00  0.2333E+00
     -7.207  0.0000E+00  0.2333E+00
     -7.054  0.0000E+00  0.2333E+00
     -6.900  0.0000E+00  0.2333E+00
     -6.746  0.2777E-36  0.2333E+00
     -6.592  0.1324E-25  0.2333E+00
     -6.438  0.4791E-17  0.2333E+00
     -6.284  0.1168E-10  0.2333E+00
     -6.131  0.1325E-06  0.2333E+00
     -5.977 -0.2763E-05  0.2333E+00
     -5.823  0.8550E-04  0.2333E+00
     -5.669  0.1626E-02  0.2336E+00
     -5.515  0.2451E-02  0.2340E+00
     -5.362  0.3306E-02  0.2345E+00
     -5.208  0.5426E-02  0.2353E+00
     -5.054  0.3222E-02  0.2358E+00
     -4.900  0.7775E-02  0.2370E+00
     -4.746  0.5912E-02  0.2379E+00
     -4.593  0.9082E-02  0.2393E+00
     -4.439  0.9673E-02  0.2408E+00
     -4.285  0.1033E-01  0.2424E+00
     -4.131  0.1366E-01  0.2445E+00
     -3.977  0.1227E-01  0.2464E+00
     -3.823  0.2167E-01  0.2497E+00
     -3.670  0.2197E-01  0.2531E+00
     -3.516  0.1769E-01  0.2558E+00
     -3.362  0.1798E-01  0.2586E+00
     -3.208  0.1538E-01  0.2609E+00
     -3.054  0.1730E-01  0.2636E+00
     -2.901  0.1955E-01  0.2666E+00
     -2.747  0.1606E-01  0.2691E+00
     -2.593  0.1300E-01  0.2711E+00
     -2.439  0.1681E-01  0.2737E+00
     -2.285  0.1907E-01  0.2766E+00
     -2.132  0.2566E-01  0.2805E+00
     -1.978  0.3587E-01  0.2861E+00
     -1.824  0.4849E-01  0.2935E+00
     -1.670  0.5804E-01  0.3025E+00
     -1.516  0.6049E-01  0.3118E+00
     -1.362  0.5487E-01  0.3202E+00
     -1.209  0.7371E-01  0.3315E+00
     -1.055  0.6073E-01  0.3409E+00
     -0.901  0.7017E-01  0.3517E+00
     -0.747  0.5137E-01  0.3596E+00
     -0.593  0.4959E-01  0.3672E+00
     -0.440  0.3331E-01  0.3723E+00
     -0.286  0.2683E-01  0.3764E+00
     -0.132  0.2533E-01  0.3803E+00
      0.022  0.2106E-01  0.3836E+00
      0.176  0.2982E-01  0.3882E+00
      0.330  0.2815E-01  0.3925E+00
      0.483  0.1726E-01  0.3952E+00
      0.637  0.1094E-01  0.3968E+00
      0.791  0.1177E-01  0.3986E+00
      0.945  0.9072E-02  0.4000E+00
      1.099  0.8795E-02  0.4014E+00
      1.252  0.1512E-01  0.4037E+00
      1.406  0.1397E-01  0.4059E+00
      1.560  0.1387E-01  0.4080E+00
      1.714  0.1134E-01  0.4097E+00
      1.868  0.1637E-01  0.4123E+00
      2.021  0.2529E-01  0.4162E+00
      2.175  0.2743E-01  0.4204E+00
      2.329  0.1682E-01  0.4230E+00
      2.483  0.1993E-01  0.4260E+00
      2.637  0.2371E-01  0.4297E+00
      2.791  0.1996E-01  0.4327E+00
      2.944  0.2140E-01  0.4360E+00
      3.098  0.1795E-01  0.4388E+00
      3.252  0.1202E-01  0.4406E+00
      3.406  0.2621E-01  0.4447E+00
      3.560  0.1550E-01  0.4471E+00
      3.713  0.7377E-02  0.4482E+00
      3.867  0.1747E-01  0.4509E+00
      4.021  0.1409E-01  0.4531E+00
      4.175  0.1567E-01  0.4555E+00
      4.329  0.2690E-01  0.4596E+00
      4.482  0.1140E-01  0.4614E+00
      4.636  0.2628E-01  0.4654E+00
      4.790  0.2699E-01  0.4695E+00
      4.944  0.2959E-01  0.4741E+00
      5.098  0.2982E-01  0.4787E+00
      5.252  0.1775E-01  0.4814E+00
      5.405  0.2792E-01  0.4857E+00
      5.559  0.2833E-01  0.4901E+00
      5.713  0.3341E-01  0.4952E+00
      5.867  0.5836E-01  0.5042E+00
      6.021  0.5770E-01  0.5131E+00
      6.174  0.5041E-01  0.5208E+00
      6.328  0.4026E-01  0.5270E+00
      6.482  0.2680E-01  0.5311E+00
      6.636  0.2921E-01  0.5356E+00
      6.790  0.3423E-01  0.5409E+00
      6.944  0.4478E-01  0.5478E+00
      7.097  0.3987E-01  0.5539E+00
      7.251  0.2630E-01  0.5579E+00
      7.405  0.3581E-01  0.5635E+00
      7.559  0.2781E-01  0.5677E+00
      7.713  0.4305E-01  0.5744E+00
      7.866  0.5262E-01  0.5824E+00
      8.020  0.5917E-01  0.5916E+00
      8.174  0.6633E-01  0.6018E+00
      8.328  0.6619E-01  0.6119E+00
      8.482  0.5801E-01  0.6209E+00
      8.635  0.4599E-01  0.6279E+00
      8.789  0.4470E-01  0.6348E+00
      8.943  0.4827E-01  0.6422E+00
      9.097  0.6242E-01  0.6518E+00
      9.251  0.4829E-01  0.6593E+00
      9.405  0.2894E-01  0.6637E+00
      9.558  0.1157E-01  0.6655E+00
      9.712  0.4213E-02  0.6661E+00
      9.866  0.2546E-02  0.6665E+00
     10.020  0.5483E-03  0.6666E+00
     10.174  0.3573E-03  0.6667E+00
     10.327 -0.1913E-04  0.6667E+00
     10.481  0.7260E-06  0.6667E+00
     10.635  0.1988E-09  0.6667E+00
     10.789  0.2098E-15  0.6667E+00
     10.943  0.0000E+00  0.6667E+00
     11.096  0.0000E+00  0.6667E+00
     11.250  0.0000E+00  0.6667E+00
     11.404  0.0000E+00  0.6667E+00
     11.558  0.0000E+00  0.6667E+00
     11.712  0.0000E+00  0.6667E+00
     11.866  0.0000E+00  0.6667E+00
     12.019  0.0000E+00  0.6667E+00
     12.173  0.0000E+00  0.6667E+00
