  12  12   1   0
  0.1173628E+02  0.5341610E-09  0.6231716E-09  0.4457889E-09  0.5000000E-15
  1.000000000000000E-004
  CAR 
 unknown system                          
      9.54947814    -36.23125694  301      1.63322603      1.00000000
    -36.231  0.0000E+00  0.0000E+00  0.0000E+00  0.0000E+00
    -36.079  0.0000E+00  0.0000E+00  0.0000E+00  0.0000E+00
    -35.926  0.0000E+00  0.0000E+00  0.0000E+00  0.0000E+00
    -35.773  0.0000E+00  0.0000E+00  0.0000E+00  0.0000E+00
    -35.621  0.0000E+00  0.0000E+00  0.0000E+00  0.0000E+00
    -35.468  0.0000E+00  0.0000E+00  0.0000E+00  0.0000E+00
    -35.316  0.0000E+00  0.0000E+00  0.0000E+00  0.0000E+00
    -35.163  0.0000E+00  0.0000E+00  0.0000E+00  0.0000E+00
    -35.010  0.0000E+00  0.0000E+00  0.0000E+00  0.0000E+00
    -34.858  0.0000E+00  0.0000E+00  0.0000E+00  0.0000E+00
    -34.705  0.0000E+00  0.0000E+00  0.0000E+00  0.0000E+00
    -34.553  0.0000E+00  0.0000E+00  0.0000E+00  0.0000E+00
    -34.400  0.0000E+00  0.0000E+00  0.0000E+00  0.0000E+00
    -34.247  0.0000E+00  0.0000E+00  0.0000E+00  0.0000E+00
    -34.095  0.0000E+00  0.0000E+00  0.1010E-01  0.1010E-01
    -33.942  0.0000E+00  0.0000E+00  0.1010E-01  0.1010E-01
    -33.790  0.0000E+00  0.0000E+00  0.2020E-01  0.2020E-01
    -33.637  0.0000E+00  0.0000E+00  0.2020E-01  0.2020E-01
    -33.484  0.0000E+00  0.0000E+00  0.2020E-01  0.2020E-01
    -33.332  0.0000E+00  0.0000E+00  0.2020E-01  0.2020E-01
    -33.179  0.0000E+00  0.0000E+00  0.2020E-01  0.2020E-01
    -33.027  0.0000E+00  0.0000E+00  0.2020E-01  0.2020E-01
    -32.874  0.0000E+00  0.0000E+00  0.2020E-01  0.2020E-01
    -32.721  0.0000E+00  0.0000E+00  0.2020E-01  0.2020E-01
    -32.569  0.0000E+00  0.0000E+00  0.2020E-01  0.2020E-01
    -32.416  0.0000E+00  0.0000E+00  0.2020E-01  0.2020E-01
    -32.264  0.0000E+00  0.0000E+00  0.2020E-01  0.2020E-01
    -32.111  0.0000E+00  0.0000E+00  0.2020E-01  0.2020E-01
    -31.958  0.0000E+00  0.0000E+00  0.2020E-01  0.2020E-01
    -31.806  0.0000E+00  0.0000E+00  0.2020E-01  0.2020E-01
    -31.653  0.0000E+00  0.0000E+00  0.2020E-01  0.2020E-01
    -31.501  0.0000E+00  0.0000E+00  0.2020E-01  0.2020E-01
    -31.348  0.0000E+00  0.0000E+00  0.2020E-01  0.2020E-01
    -31.195  0.0000E+00  0.0000E+00  0.2020E-01  0.2020E-01
    -31.043  0.0000E+00  0.0000E+00  0.2020E-01  0.2020E-01
    -30.890  0.0000E+00  0.0000E+00  0.2020E-01  0.2020E-01
    -30.738  0.0000E+00  0.0000E+00  0.2020E-01  0.2020E-01
    -30.585  0.0000E+00  0.0000E+00  0.2020E-01  0.2020E-01
    -30.432  0.0000E+00  0.0000E+00  0.2020E-01  0.2020E-01
    -30.280  0.0000E+00  0.0000E+00  0.2020E-01  0.2020E-01
    -30.127  0.0000E+00  0.0000E+00  0.2020E-01  0.2020E-01
    -29.975  0.0000E+00  0.0000E+00  0.2020E-01  0.2020E-01
    -29.822  0.0000E+00  0.0000E+00  0.2020E-01  0.2020E-01
    -29.669  0.0000E+00  0.0000E+00  0.2020E-01  0.2020E-01
    -29.517  0.0000E+00  0.0000E+00  0.2020E-01  0.2020E-01
    -29.364  0.0000E+00  0.0000E+00  0.5051E-01  0.5051E-01
    -29.212  0.0000E+00  0.0000E+00  0.5051E-01  0.5051E-01
    -29.059  0.0000E+00  0.0000E+00  0.5051E-01  0.5051E-01
    -28.906  0.0000E+00  0.0000E+00  0.5051E-01  0.5051E-01
    -28.754  0.0000E+00  0.0000E+00  0.5051E-01  0.5051E-01
    -28.601  0.0000E+00  0.0000E+00  0.5051E-01  0.5051E-01
    -28.449  0.0000E+00  0.0000E+00  0.5051E-01  0.5051E-01
    -28.296  0.0000E+00  0.0000E+00  0.5051E-01  0.5051E-01
    -28.143  0.0000E+00  0.0000E+00  0.5051E-01  0.5051E-01
    -27.991  0.0000E+00  0.0000E+00  0.5051E-01  0.5051E-01
    -27.838  0.0000E+00  0.0000E+00  0.5051E-01  0.5051E-01
    -27.686  0.0000E+00  0.0000E+00  0.5051E-01  0.5051E-01
    -27.533  0.0000E+00  0.0000E+00  0.5051E-01  0.5051E-01
    -27.380  0.0000E+00  0.0000E+00  0.5051E-01  0.5051E-01
    -27.228  0.0000E+00  0.0000E+00  0.5051E-01  0.5051E-01
    -27.075  0.0000E+00  0.0000E+00  0.5051E-01  0.5051E-01
    -26.923  0.0000E+00  0.0000E+00  0.5051E-01  0.5051E-01
    -26.770  0.0000E+00  0.0000E+00  0.5051E-01  0.5051E-01
    -26.617  0.0000E+00  0.0000E+00  0.5051E-01  0.5051E-01
    -26.465  0.0000E+00  0.0000E+00  0.5051E-01  0.5051E-01
    -26.312  0.0000E+00  0.0000E+00  0.5051E-01  0.5051E-01
    -26.159  0.0000E+00  0.0000E+00  0.5051E-01  0.5051E-01
    -26.007  0.0000E+00  0.0000E+00  0.5051E-01  0.5051E-01
    -25.854  0.0000E+00  0.0000E+00  0.5051E-01  0.5051E-01
    -25.702  0.0000E+00  0.0000E+00  0.5051E-01  0.5051E-01
    -25.549  0.0000E+00  0.0000E+00  0.5051E-01  0.5051E-01
    -25.396  0.0000E+00  0.0000E+00  0.5051E-01  0.5051E-01
    -25.244  0.0000E+00  0.0000E+00  0.5051E-01  0.5051E-01
    -25.091  0.0000E+00  0.0000E+00  0.5051E-01  0.5051E-01
    -24.939  0.0000E+00  0.0000E+00  0.5051E-01  0.5051E-01
    -24.786  0.0000E+00  0.0000E+00  0.5051E-01  0.5051E-01
    -24.633  0.0000E+00  0.0000E+00  0.5051E-01  0.5051E-01
    -24.481  0.0000E+00  0.0000E+00  0.5051E-01  0.5051E-01
    -24.328  0.0000E+00  0.0000E+00  0.5051E-01  0.5051E-01
    -24.176  0.0000E+00  0.0000E+00  0.5051E-01  0.5051E-01
    -24.023  0.0000E+00  0.0000E+00  0.5051E-01  0.5051E-01
    -23.870  0.0000E+00  0.0000E+00  0.5051E-01  0.5051E-01
    -23.718  0.0000E+00  0.0000E+00  0.5051E-01  0.5051E-01
    -23.565  0.0000E+00  0.0000E+00  0.5051E-01  0.5051E-01
    -23.413  0.0000E+00  0.0000E+00  0.5051E-01  0.5051E-01
    -23.260  0.0000E+00  0.0000E+00  0.5051E-01  0.5051E-01
    -23.107  0.0000E+00  0.0000E+00  0.5051E-01  0.5051E-01
    -22.955  0.0000E+00  0.0000E+00  0.5051E-01  0.5051E-01
    -22.802  0.0000E+00  0.0000E+00  0.5051E-01  0.5051E-01
    -22.650  0.0000E+00  0.0000E+00  0.5051E-01  0.5051E-01
    -22.497  0.0000E+00  0.0000E+00  0.5051E-01  0.5051E-01
    -22.344  0.0000E+00  0.0000E+00  0.5051E-01  0.5051E-01
    -22.192  0.0000E+00  0.0000E+00  0.5051E-01  0.5051E-01
    -22.039  0.0000E+00  0.0000E+00  0.5051E-01  0.5051E-01
    -21.887  0.0000E+00  0.0000E+00  0.5051E-01  0.5051E-01
    -21.734  0.0000E+00  0.0000E+00  0.5051E-01  0.5051E-01
    -21.581  0.0000E+00  0.0000E+00  0.5051E-01  0.5051E-01
    -21.429  0.0000E+00  0.0000E+00  0.5051E-01  0.5051E-01
    -21.276  0.0000E+00  0.0000E+00  0.5051E-01  0.5051E-01
    -21.124  0.0000E+00  0.0000E+00  0.5051E-01  0.5051E-01
    -20.971  0.0000E+00  0.0000E+00  0.5051E-01  0.5051E-01
    -20.818  0.0000E+00  0.0000E+00  0.5051E-01  0.5051E-01
    -20.666  0.0000E+00  0.0000E+00  0.5051E-01  0.5051E-01
    -20.513  0.0000E+00  0.0000E+00  0.5051E-01  0.5051E-01
    -20.361  0.0000E+00  0.0000E+00  0.5051E-01  0.5051E-01
    -20.208  0.0000E+00  0.0000E+00  0.5051E-01  0.5051E-01
    -20.055  0.0000E+00  0.0000E+00  0.5051E-01  0.5051E-01
    -19.903  0.0000E+00  0.0000E+00  0.5051E-01  0.5051E-01
    -19.750  0.0000E+00  0.0000E+00  0.5051E-01  0.5051E-01
    -19.598  0.0000E+00  0.0000E+00  0.5051E-01  0.5051E-01
    -19.445  0.0000E+00  0.0000E+00  0.5051E-01  0.5051E-01
    -19.292  0.0000E+00  0.0000E+00  0.5051E-01  0.5051E-01
    -19.140  0.0000E+00  0.0000E+00  0.5051E-01  0.5051E-01
    -18.987  0.0000E+00  0.0000E+00  0.5051E-01  0.5051E-01
    -18.835  0.0000E+00  0.0000E+00  0.5051E-01  0.5051E-01
    -18.682  0.0000E+00  0.0000E+00  0.5051E-01  0.5051E-01
    -18.529  0.0000E+00  0.0000E+00  0.5051E-01  0.5051E-01
    -18.377  0.0000E+00  0.0000E+00  0.5051E-01  0.5051E-01
    -18.224  0.0000E+00  0.0000E+00  0.5051E-01  0.5051E-01
    -18.072  0.0000E+00  0.0000E+00  0.5051E-01  0.5051E-01
    -17.919  0.0000E+00  0.0000E+00  0.5051E-01  0.5051E-01
    -17.766  0.0000E+00  0.0000E+00  0.5051E-01  0.5051E-01
    -17.614  0.0000E+00  0.0000E+00  0.5051E-01  0.5051E-01
    -17.461  0.0000E+00  0.0000E+00  0.5051E-01  0.5051E-01
    -17.309  0.0000E+00  0.0000E+00  0.5051E-01  0.5051E-01
    -17.156  0.0000E+00  0.0000E+00  0.5051E-01  0.5051E-01
    -17.003  0.0000E+00  0.0000E+00  0.5051E-01  0.5051E-01
    -16.851  0.0000E+00  0.0000E+00  0.5051E-01  0.5051E-01
    -16.698  0.0000E+00  0.0000E+00  0.5051E-01  0.5051E-01
    -16.546  0.0000E+00  0.0000E+00  0.5051E-01  0.5051E-01
    -16.393  0.0000E+00  0.0000E+00  0.5051E-01  0.5051E-01
    -16.240  0.0000E+00  0.0000E+00  0.6061E-01  0.6061E-01
    -16.088  0.2298E+00  0.2298E+00  0.8299E-01  0.8299E-01
    -15.935  0.1202E+00  0.1202E+00  0.9870E-01  0.9870E-01
    -15.783  0.0000E+00  0.0000E+00  0.1111E+00  0.1111E+00
    -15.630  0.0000E+00  0.0000E+00  0.1111E+00  0.1111E+00
    -15.477  0.0000E+00  0.0000E+00  0.1111E+00  0.1111E+00
    -15.325  0.0000E+00  0.0000E+00  0.1111E+00  0.1111E+00
    -15.172  0.0000E+00  0.0000E+00  0.1111E+00  0.1111E+00
    -15.020  0.0000E+00  0.0000E+00  0.1111E+00  0.1111E+00
    -14.867  0.0000E+00  0.0000E+00  0.1111E+00  0.1111E+00
    -14.714  0.0000E+00  0.0000E+00  0.1111E+00  0.1111E+00
    -14.562  0.0000E+00  0.0000E+00  0.1111E+00  0.1111E+00
    -14.409  0.0000E+00  0.0000E+00  0.1111E+00  0.1111E+00
    -14.257  0.0000E+00  0.0000E+00  0.1111E+00  0.1111E+00
    -14.104  0.0000E+00  0.0000E+00  0.1111E+00  0.1111E+00
    -13.951  0.0000E+00  0.0000E+00  0.1111E+00  0.1111E+00
    -13.799  0.0000E+00  0.0000E+00  0.1111E+00  0.1111E+00
    -13.646  0.0000E+00  0.0000E+00  0.1111E+00  0.1111E+00
    -13.493  0.0000E+00  0.0000E+00  0.1111E+00  0.1111E+00
    -13.341  0.0000E+00  0.0000E+00  0.1111E+00  0.1111E+00
    -13.188  0.0000E+00  0.0000E+00  0.1111E+00  0.1111E+00
    -13.036  0.0000E+00  0.0000E+00  0.1111E+00  0.1111E+00
    -12.883  0.0000E+00  0.0000E+00  0.1111E+00  0.1111E+00
    -12.730  0.0000E+00  0.0000E+00  0.1111E+00  0.1111E+00
    -12.578  0.0000E+00  0.0000E+00  0.1111E+00  0.1111E+00
    -12.425  0.0000E+00  0.0000E+00  0.1111E+00  0.1111E+00
    -12.273  0.0000E+00  0.0000E+00  0.1111E+00  0.1111E+00
    -12.120  0.0000E+00  0.0000E+00  0.1111E+00  0.1111E+00
    -11.967  0.0000E+00  0.0000E+00  0.1111E+00  0.1111E+00
    -11.815  0.0000E+00  0.0000E+00  0.1111E+00  0.1111E+00
    -11.662  0.0000E+00  0.0000E+00  0.1111E+00  0.1111E+00
    -11.510  0.0000E+00  0.0000E+00  0.1111E+00  0.1111E+00
    -11.357  0.0000E+00  0.0000E+00  0.1111E+00  0.1111E+00
    -11.204  0.0000E+00  0.0000E+00  0.1111E+00  0.1111E+00
    -11.052  0.0000E+00  0.0000E+00  0.1111E+00  0.1111E+00
    -10.899  0.0000E+00  0.0000E+00  0.1111E+00  0.1111E+00
    -10.747  0.0000E+00  0.0000E+00  0.1111E+00  0.1111E+00
    -10.594  0.0000E+00  0.0000E+00  0.1111E+00  0.1111E+00
    -10.441  0.0000E+00  0.0000E+00  0.1111E+00  0.1111E+00
    -10.289  0.0000E+00  0.0000E+00  0.1111E+00  0.1111E+00
    -10.136  0.0000E+00  0.0000E+00  0.1111E+00  0.1111E+00
     -9.984  0.0000E+00  0.0000E+00  0.1111E+00  0.1111E+00
     -9.831  0.0000E+00  0.0000E+00  0.1111E+00  0.1111E+00
     -9.678  0.0000E+00  0.0000E+00  0.1111E+00  0.1111E+00
     -9.526  0.0000E+00  0.0000E+00  0.1111E+00  0.1111E+00
     -9.373  0.0000E+00  0.0000E+00  0.1111E+00  0.1111E+00
     -9.221  0.0000E+00  0.0000E+00  0.1111E+00  0.1111E+00
     -9.068  0.0000E+00  0.0000E+00  0.1111E+00  0.1111E+00
     -8.915  0.0000E+00  0.0000E+00  0.1111E+00  0.1111E+00
     -8.763  0.0000E+00  0.0000E+00  0.1111E+00  0.1111E+00
     -8.610  0.0000E+00  0.0000E+00  0.1111E+00  0.1111E+00
     -8.458  0.0000E+00  0.0000E+00  0.1111E+00  0.1111E+00
     -8.305  0.0000E+00  0.0000E+00  0.1111E+00  0.1111E+00
     -8.152  0.0000E+00  0.0000E+00  0.1111E+00  0.1111E+00
     -8.000  0.0000E+00  0.0000E+00  0.1111E+00  0.1111E+00
     -7.847  0.0000E+00  0.0000E+00  0.1111E+00  0.1111E+00
     -7.695  0.0000E+00  0.0000E+00  0.1111E+00  0.1111E+00
     -7.542  0.8590E-02  0.8592E-02  0.1114E+00  0.1114E+00
     -7.389  0.5733E-01  0.5733E-01  0.1165E+00  0.1165E+00
     -7.237  0.0000E+00  0.0000E+00  0.1212E+00  0.1212E+00
     -7.084  0.0000E+00  0.0000E+00  0.1212E+00  0.1212E+00
     -6.932  0.0000E+00  0.0000E+00  0.1212E+00  0.1212E+00
     -6.779  0.0000E+00  0.0000E+00  0.1212E+00  0.1212E+00
     -6.626  0.0000E+00  0.0000E+00  0.1212E+00  0.1212E+00
     -6.474  0.0000E+00  0.0000E+00  0.1212E+00  0.1212E+00
     -6.321  0.0000E+00  0.0000E+00  0.1212E+00  0.1212E+00
     -6.169  0.0000E+00  0.0000E+00  0.1212E+00  0.1212E+00
     -6.016  0.0000E+00  0.0000E+00  0.1212E+00  0.1212E+00
     -5.863  0.0000E+00  0.0000E+00  0.1212E+00  0.1212E+00
     -5.711  0.0000E+00  0.0000E+00  0.1212E+00  0.1212E+00
     -5.558  0.0000E+00  0.0000E+00  0.1212E+00  0.1212E+00
     -5.406  0.0000E+00  0.0000E+00  0.1212E+00  0.1212E+00
     -5.253  0.0000E+00  0.0000E+00  0.1212E+00  0.1212E+00
     -5.100  0.0000E+00  0.0000E+00  0.1212E+00  0.1212E+00
     -4.948  0.5543E-02  0.5542E-02  0.1214E+00  0.1214E+00
     -4.795  0.1622E-01  0.1622E-01  0.1232E+00  0.1232E+00
     -4.643  0.1310E-01  0.1310E-01  0.1255E+00  0.1255E+00
     -4.490  0.1187E-01  0.1187E-01  0.1274E+00  0.1274E+00
     -4.337  0.2128E-01  0.2128E-01  0.1298E+00  0.1298E+00
     -4.185  0.1049E-03  0.1054E-03  0.1313E+00  0.1313E+00
     -4.032  0.0000E+00  0.0000E+00  0.1313E+00  0.1313E+00
     -3.880  0.0000E+00  0.0000E+00  0.1313E+00  0.1313E+00
     -3.727  0.0000E+00  0.0000E+00  0.1313E+00  0.1313E+00
     -3.574  0.0000E+00  0.0000E+00  0.1313E+00  0.1313E+00
     -3.422  0.1961E-06  0.1934E-06  0.1313E+00  0.1313E+00
     -3.269  0.2536E-02  0.2536E-02  0.1314E+00  0.1314E+00
     -3.117  0.8757E-02  0.8757E-02  0.1323E+00  0.1323E+00
     -2.964  0.2406E-01  0.2406E-01  0.1348E+00  0.1348E+00
     -2.811  0.2023E-01  0.2023E-01  0.1382E+00  0.1382E+00
     -2.659  0.3322E-01  0.3322E-01  0.1416E+00  0.1416E+00
     -2.506  0.2675E-01  0.2675E-01  0.1491E+00  0.1491E+00
     -2.354  0.2054E-01  0.2054E-01  0.1529E+00  0.1529E+00
     -2.201  0.2352E-01  0.2352E-01  0.1565E+00  0.1565E+00
     -2.048  0.4516E-01  0.4517E-01  0.1612E+00  0.1612E+00
     -1.896  0.3115E-01  0.3114E-01  0.1705E+00  0.1705E+00
     -1.743  0.4273E-01  0.4273E-01  0.1807E+00  0.1807E+00
     -1.591  0.0000E+00  0.0000E+00  0.1818E+00  0.1818E+00
     -1.438  0.7650E-03  0.7650E-03  0.1818E+00  0.1818E+00
     -1.285  0.2154E-01  0.2154E-01  0.1838E+00  0.1838E+00
     -1.133  0.3318E-01  0.3318E-01  0.1880E+00  0.1880E+00
     -0.980  0.3868E-02  0.3869E-02  0.1919E+00  0.1919E+00
     -0.827  0.0000E+00  0.0000E+00  0.1919E+00  0.1919E+00
     -0.675  0.0000E+00  0.0000E+00  0.1919E+00  0.1919E+00
     -0.522  0.0000E+00  0.0000E+00  0.1919E+00  0.1919E+00
     -0.370  0.0000E+00  0.0000E+00  0.1919E+00  0.1919E+00
     -0.217  0.0000E+00  0.0000E+00  0.1919E+00  0.1919E+00
     -0.064  0.0000E+00  0.0000E+00  0.1919E+00  0.1919E+00
      0.088  0.0000E+00  0.0000E+00  0.1919E+00  0.1919E+00
      0.241  0.0000E+00  0.0000E+00  0.1919E+00  0.1919E+00
      0.393  0.0000E+00  0.0000E+00  0.1919E+00  0.1919E+00
      0.546  0.0000E+00  0.0000E+00  0.1919E+00  0.1919E+00
      0.699  0.2276E-06  0.2240E-06  0.1919E+00  0.1919E+00
      0.851  0.9919E-02  0.9917E-02  0.1923E+00  0.1923E+00
      1.004  0.2207E-01  0.2207E-01  0.1951E+00  0.1951E+00
      1.156  0.1882E-01  0.1882E-01  0.1983E+00  0.1983E+00
      1.309  0.1625E-01  0.1625E-01  0.2011E+00  0.2011E+00
      1.462  0.6978E-03  0.6982E-03  0.2020E+00  0.2020E+00
      1.614  0.0000E+00  0.0000E+00  0.2020E+00  0.2020E+00
      1.767  0.0000E+00  0.0000E+00  0.2020E+00  0.2020E+00
      1.919  0.0000E+00  0.0000E+00  0.2020E+00  0.2020E+00
      2.072  0.4489E-05  0.4534E-05  0.2020E+00  0.2020E+00
      2.225  0.7947E-02  0.7949E-02  0.2024E+00  0.2024E+00
      2.377  0.2816E-01  0.2816E-01  0.2050E+00  0.2050E+00
      2.530  0.1850E-01  0.1850E-01  0.2103E+00  0.2103E+00
      2.682  0.4602E-02  0.4603E-02  0.2117E+00  0.2117E+00
      2.835  0.2431E-02  0.2430E-02  0.2121E+00  0.2121E+00
      2.988  0.1234E-01  0.1234E-01  0.2131E+00  0.2131E+00
      3.140  0.3310E-01  0.3310E-01  0.2164E+00  0.2164E+00
      3.293  0.2884E-01  0.2884E-01  0.2226E+00  0.2226E+00
      3.445  0.2553E-01  0.2552E-01  0.2263E+00  0.2263E+00
      3.598  0.3461E-01  0.3461E-01  0.2310E+00  0.2310E+00
      3.751  0.3279E-01  0.3279E-01  0.2364E+00  0.2364E+00
      3.903  0.1801E-01  0.1801E-01  0.2398E+00  0.2398E+00
      4.056  0.4714E-02  0.4715E-02  0.2420E+00  0.2420E+00
      4.208  0.1054E-02  0.1054E-02  0.2424E+00  0.2424E+00
      4.361  0.1154E-01  0.1153E-01  0.2431E+00  0.2431E+00
      4.514  0.4530E-01  0.4530E-01  0.2480E+00  0.2480E+00
      4.666  0.2188E-01  0.2188E-01  0.2531E+00  0.2531E+00
      4.819  0.3263E-01  0.3262E-01  0.2567E+00  0.2567E+00
      4.971  0.1666E-01  0.1667E-01  0.2615E+00  0.2615E+00
      5.124  0.8178E-02  0.8172E-02  0.2629E+00  0.2629E+00
      5.277  0.3162E-01  0.3161E-01  0.2656E+00  0.2656E+00
      5.429  0.2287E-01  0.2289E-01  0.2711E+00  0.2711E+00
      5.582  0.2013E-01  0.2011E-01  0.2734E+00  0.2734E+00
      5.734  0.3284E-01  0.3284E-01  0.2781E+00  0.2781E+00
      5.887  0.2662E-01  0.2663E-01  0.2826E+00  0.2826E+00
      6.040  0.2214E-01  0.2213E-01  0.2858E+00  0.2858E+00
      6.192  0.2453E-01  0.2453E-01  0.2897E+00  0.2897E+00
      6.345  0.1489E-01  0.1489E-01  0.2926E+00  0.2926E+00
      6.497  0.2952E-01  0.2952E-01  0.2966E+00  0.2966E+00
      6.650  0.3302E-01  0.3302E-01  0.3012E+00  0.3012E+00
      6.803  0.5241E-01  0.5241E-01  0.3081E+00  0.3081E+00
      6.955  0.3807E-01  0.3799E-01  0.3141E+00  0.3141E+00
      7.108  0.3266E-01  0.3200E-01  0.3195E+00  0.3195E+00
      7.260  0.7793E-02  0.7835E-02  0.3229E+00  0.3229E+00
      7.413  0.4258E-03  0.2618E-03  0.3232E+00  0.3232E+00
      7.566  0.0000E+00  0.0000E+00  0.3232E+00  0.3232E+00
      7.718  0.0000E+00  0.0000E+00  0.3232E+00  0.3232E+00
      7.871  0.0000E+00  0.0000E+00  0.3232E+00  0.3232E+00
      8.023  0.0000E+00  0.0000E+00  0.3232E+00  0.3232E+00
      8.176  0.0000E+00  0.0000E+00  0.3232E+00  0.3232E+00
      8.329  0.0000E+00  0.0000E+00  0.3232E+00  0.3232E+00
      8.481  0.0000E+00  0.0000E+00  0.3232E+00  0.3232E+00
      8.634  0.0000E+00  0.0000E+00  0.3232E+00  0.3232E+00
      8.786  0.0000E+00  0.0000E+00  0.3232E+00  0.3232E+00
      8.939  0.0000E+00  0.0000E+00  0.3232E+00  0.3232E+00
      9.092  0.0000E+00  0.0000E+00  0.3232E+00  0.3232E+00
      9.244  0.0000E+00  0.0000E+00  0.3232E+00  0.3232E+00
      9.397  0.0000E+00  0.0000E+00  0.3232E+00  0.3232E+00
      9.549  0.0000E+00  0.0000E+00  0.3232E+00  0.3232E+00
      9.54947814    -36.23125694  301      1.63322603      1.00000000
    -36.231  0.0000E+00  0.0000E+00  0.0000E+00  0.0000E+00  0.0000E+00  0.0000E+00  0.0000E+00  0.0000E+00  0.0000E+00  0.0000E+00  0.0000E+00  0.0000E+00  0.0000E+00  0.0000E+00  0.0000E+00  0.0000E+00  0.0000E+00  0.0000E+00
    -36.079  0.0000E+00  0.0000E+00  0.0000E+00  0.0000E+00  0.0000E+00  0.0000E+00  0.0000E+00  0.0000E+00  0.0000E+00  0.0000E+00  0.0000E+00  0.0000E+00  0.0000E+00  0.0000E+00  0.0000E+00  0.0000E+00  0.0000E+00  0.0000E+00
    -35.926  0.0000E+00  0.0000E+00  0.0000E+00  0.0000E+00  0.0000E+00  0.0000E+00  0.0000E+00  0.0000E+00  0.0000E+00  0.0000E+00  0.0000E+00  0.0000E+00  0.0000E+00  0.0000E+00  0.0000E+00  0.0000E+00  0.0000E+00  0.0000E+00
    -35.773  0.0000E+00  0.0000E+00  0.0000E+00  0.0000E+00  0.0000E+00  0.0000E+00  0.0000E+00  0.0000E+00  0.0000E+00  0.0000E+00  0.0000E+00  0.0000E+00  0.0000E+00  0.0000E+00  0.0000E+00  0.0000E+00  0.0000E+00  0.0000E+00
    -35.621  0.0000E+00  0.0000E+00  0.0000E+00  0.0000E+00  0.0000E+00  0.0000E+00  0.0000E+00  0.0000E+00  0.0000E+00  0.0000E+00  0.0000E+00  0.0000E+00  0.0000E+00  0.0000E+00  0.0000E+00  0.0000E+00  0.0000E+00  0.0000E+00
    -35.468  0.0000E+00  0.0000E+00  0.0000E+00  0.0000E+00  0.0000E+00  0.0000E+00  0.0000E+00  0.0000E+00  0.0000E+00  0.0000E+00  0.0000E+00  0.0000E+00  0.0000E+00  0.0000E+00  0.0000E+00  0.0000E+00  0.0000E+00  0.0000E+00
    -35.316  0.0000E+00  0.0000E+00  0.0000E+00  0.0000E+00  0.0000E+00  0.0000E+00  0.0000E+00  0.0000E+00  0.0000E+00  0.0000E+00  0.0000E+00  0.0000E+00  0.0000E+00  0.0000E+00  0.0000E+00  0.0000E+00  0.0000E+00  0.0000E+00
    -35.163  0.0000E+00  0.0000E+00  0.0000E+00  0.0000E+00  0.0000E+00  0.0000E+00  0.0000E+00  0.0000E+00  0.0000E+00  0.0000E+00  0.0000E+00  0.0000E+00  0.0000E+00  0.0000E+00  0.0000E+00  0.0000E+00  0.0000E+00  0.0000E+00
    -35.010  0.0000E+00  0.0000E+00  0.0000E+00  0.0000E+00  0.0000E+00  0.0000E+00  0.0000E+00  0.0000E+00  0.0000E+00  0.0000E+00  0.0000E+00  0.0000E+00  0.0000E+00  0.0000E+00  0.0000E+00  0.0000E+00  0.0000E+00  0.0000E+00
    -34.858  0.0000E+00  0.0000E+00  0.0000E+00  0.0000E+00  0.0000E+00  0.0000E+00  0.0000E+00  0.0000E+00  0.0000E+00  0.0000E+00  0.0000E+00  0.0000E+00  0.0000E+00  0.0000E+00  0.0000E+00  0.0000E+00  0.0000E+00  0.0000E+00
    -34.705  0.0000E+00  0.0000E+00  0.0000E+00  0.0000E+00  0.0000E+00  0.0000E+00  0.0000E+00  0.0000E+00  0.0000E+00  0.0000E+00  0.0000E+00  0.0000E+00  0.0000E+00  0.0000E+00  0.0000E+00  0.0000E+00  0.0000E+00  0.0000E+00
    -34.553  0.0000E+00  0.0000E+00  0.0000E+00  0.0000E+00  0.0000E+00  0.0000E+00  0.0000E+00  0.0000E+00  0.0000E+00  0.0000E+00  0.0000E+00  0.0000E+00  0.0000E+00  0.0000E+00  0.0000E+00  0.0000E+00  0.0000E+00  0.0000E+00
    -34.400  0.0000E+00  0.0000E+00  0.0000E+00  0.0000E+00  0.0000E+00  0.0000E+00  0.0000E+00  0.0000E+00  0.0000E+00  0.0000E+00  0.0000E+00  0.0000E+00  0.0000E+00  0.0000E+00  0.0000E+00  0.0000E+00  0.0000E+00  0.0000E+00
    -34.247  0.0000E+00  0.0000E+00  0.0000E+00  0.0000E+00  0.0000E+00  0.0000E+00  0.0000E+00  0.0000E+00  0.0000E+00  0.0000E+00  0.0000E+00  0.0000E+00  0.0000E+00  0.0000E+00  0.0000E+00  0.0000E+00  0.0000E+00  0.0000E+00
    -34.095  0.0000E+00  0.0000E+00  0.0000E+00  0.0000E+00  0.0000E+00  0.0000E+00  0.0000E+00  0.0000E+00  0.0000E+00  0.0000E+00  0.0000E+00  0.0000E+00  0.0000E+00  0.0000E+00  0.0000E+00  0.0000E+00  0.0000E+00  0.0000E+00
    -33.942  0.0000E+00  0.0000E+00  0.0000E+00  0.0000E+00  0.0000E+00  0.0000E+00  0.0000E+00  0.0000E+00  0.0000E+00  0.0000E+00  0.0000E+00  0.0000E+00  0.0000E+00  0.0000E+00  0.0000E+00  0.0000E+00  0.0000E+00  0.0000E+00
    -33.790  0.0000E+00  0.0000E+00  0.0000E+00  0.0000E+00  0.0000E+00  0.0000E+00  0.0000E+00  0.0000E+00  0.0000E+00  0.0000E+00  0.0000E+00  0.0000E+00  0.0000E+00  0.0000E+00  0.0000E+00  0.0000E+00  0.0000E+00  0.0000E+00
    -33.637  0.0000E+00  0.0000E+00  0.0000E+00  0.0000E+00  0.0000E+00  0.0000E+00  0.0000E+00  0.0000E+00  0.0000E+00  0.0000E+00  0.0000E+00  0.0000E+00  0.0000E+00  0.0000E+00  0.0000E+00  0.0000E+00  0.0000E+00  0.0000E+00
    -33.484  0.0000E+00  0.0000E+00  0.0000E+00  0.0000E+00  0.0000E+00  0.0000E+00  0.0000E+00  0.0000E+00  0.0000E+00  0.0000E+00  0.0000E+00  0.0000E+00  0.0000E+00  0.0000E+00  0.0000E+00  0.0000E+00  0.0000E+00  0.0000E+00
    -33.332  0.0000E+00  0.0000E+00  0.0000E+00  0.0000E+00  0.0000E+00  0.0000E+00  0.0000E+00  0.0000E+00  0.0000E+00  0.0000E+00  0.0000E+00  0.0000E+00  0.0000E+00  0.0000E+00  0.0000E+00  0.0000E+00  0.0000E+00  0.0000E+00
    -33.179  0.0000E+00  0.0000E+00  0.0000E+00  0.0000E+00  0.0000E+00  0.0000E+00  0.0000E+00  0.0000E+00  0.0000E+00  0.0000E+00  0.0000E+00  0.0000E+00  0.0000E+00  0.0000E+00  0.0000E+00  0.0000E+00  0.0000E+00  0.0000E+00
    -33.027  0.0000E+00  0.0000E+00  0.0000E+00  0.0000E+00  0.0000E+00  0.0000E+00  0.0000E+00  0.0000E+00  0.0000E+00  0.0000E+00  0.0000E+00  0.0000E+00  0.0000E+00  0.0000E+00  0.0000E+00  0.0000E+00  0.0000E+00  0.0000E+00
    -32.874  0.0000E+00  0.0000E+00  0.0000E+00  0.0000E+00  0.0000E+00  0.0000E+00  0.0000E+00  0.0000E+00  0.0000E+00  0.0000E+00  0.0000E+00  0.0000E+00  0.0000E+00  0.0000E+00  0.0000E+00  0.0000E+00  0.0000E+00  0.0000E+00
    -32.721  0.0000E+00  0.0000E+00  0.0000E+00  0.0000E+00  0.0000E+00  0.0000E+00  0.0000E+00  0.0000E+00  0.0000E+00  0.0000E+00  0.0000E+00  0.0000E+00  0.0000E+00  0.0000E+00  0.0000E+00  0.0000E+00  0.0000E+00  0.0000E+00
    -32.569  0.0000E+00  0.0000E+00  0.0000E+00  0.0000E+00  0.0000E+00  0.0000E+00  0.0000E+00  0.0000E+00  0.0000E+00  0.0000E+00  0.0000E+00  0.0000E+00  0.0000E+00  0.0000E+00  0.0000E+00  0.0000E+00  0.0000E+00  0.0000E+00
    -32.416  0.0000E+00  0.0000E+00  0.0000E+00  0.0000E+00  0.0000E+00  0.0000E+00  0.0000E+00  0.0000E+00  0.0000E+00  0.0000E+00  0.0000E+00  0.0000E+00  0.0000E+00  0.0000E+00  0.0000E+00  0.0000E+00  0.0000E+00  0.0000E+00
    -32.264  0.0000E+00  0.0000E+00  0.0000E+00  0.0000E+00  0.0000E+00  0.0000E+00  0.0000E+00  0.0000E+00  0.0000E+00  0.0000E+00  0.0000E+00  0.0000E+00  0.0000E+00  0.0000E+00  0.0000E+00  0.0000E+00  0.0000E+00  0.0000E+00
    -32.111  0.0000E+00  0.0000E+00  0.0000E+00  0.0000E+00  0.0000E+00  0.0000E+00  0.0000E+00  0.0000E+00  0.0000E+00  0.0000E+00  0.0000E+00  0.0000E+00  0.0000E+00  0.0000E+00  0.0000E+00  0.0000E+00  0.0000E+00  0.0000E+00
    -31.958  0.0000E+00  0.0000E+00  0.0000E+00  0.0000E+00  0.0000E+00  0.0000E+00  0.0000E+00  0.0000E+00  0.0000E+00  0.0000E+00  0.0000E+00  0.0000E+00  0.0000E+00  0.0000E+00  0.0000E+00  0.0000E+00  0.0000E+00  0.0000E+00
    -31.806  0.0000E+00  0.0000E+00  0.0000E+00  0.0000E+00  0.0000E+00  0.0000E+00  0.0000E+00  0.0000E+00  0.0000E+00  0.0000E+00  0.0000E+00  0.0000E+00  0.0000E+00  0.0000E+00  0.0000E+00  0.0000E+00  0.0000E+00  0.0000E+00
    -31.653  0.0000E+00  0.0000E+00  0.0000E+00  0.0000E+00  0.0000E+00  0.0000E+00  0.0000E+00  0.0000E+00  0.0000E+00  0.0000E+00  0.0000E+00  0.0000E+00  0.0000E+00  0.0000E+00  0.0000E+00  0.0000E+00  0.0000E+00  0.0000E+00
    -31.501  0.0000E+00  0.0000E+00  0.0000E+00  0.0000E+00  0.0000E+00  0.0000E+00  0.0000E+00  0.0000E+00  0.0000E+00  0.0000E+00  0.0000E+00  0.0000E+00  0.0000E+00  0.0000E+00  0.0000E+00  0.0000E+00  0.0000E+00  0.0000E+00
    -31.348  0.0000E+00  0.0000E+00  0.0000E+00  0.0000E+00  0.0000E+00  0.0000E+00  0.0000E+00  0.0000E+00  0.0000E+00  0.0000E+00  0.0000E+00  0.0000E+00  0.0000E+00  0.0000E+00  0.0000E+00  0.0000E+00  0.0000E+00  0.0000E+00
    -31.195  0.0000E+00  0.0000E+00  0.0000E+00  0.0000E+00  0.0000E+00  0.0000E+00  0.0000E+00  0.0000E+00  0.0000E+00  0.0000E+00  0.0000E+00  0.0000E+00  0.0000E+00  0.0000E+00  0.0000E+00  0.0000E+00  0.0000E+00  0.0000E+00
    -31.043  0.0000E+00  0.0000E+00  0.0000E+00  0.0000E+00  0.0000E+00  0.0000E+00  0.0000E+00  0.0000E+00  0.0000E+00  0.0000E+00  0.0000E+00  0.0000E+00  0.0000E+00  0.0000E+00  0.0000E+00  0.0000E+00  0.0000E+00  0.0000E+00
    -30.890  0.0000E+00  0.0000E+00  0.0000E+00  0.0000E+00  0.0000E+00  0.0000E+00  0.0000E+00  0.0000E+00  0.0000E+00  0.0000E+00  0.0000E+00  0.0000E+00  0.0000E+00  0.0000E+00  0.0000E+00  0.0000E+00  0.0000E+00  0.0000E+00
    -30.738  0.0000E+00  0.0000E+00  0.0000E+00  0.0000E+00  0.0000E+00  0.0000E+00  0.0000E+00  0.0000E+00  0.0000E+00  0.0000E+00  0.0000E+00  0.0000E+00  0.0000E+00  0.0000E+00  0.0000E+00  0.0000E+00  0.0000E+00  0.0000E+00
    -30.585  0.0000E+00  0.0000E+00  0.0000E+00  0.0000E+00  0.0000E+00  0.0000E+00  0.0000E+00  0.0000E+00  0.0000E+00  0.0000E+00  0.0000E+00  0.0000E+00  0.0000E+00  0.0000E+00  0.0000E+00  0.0000E+00  0.0000E+00  0.0000E+00
    -30.432  0.0000E+00  0.0000E+00  0.0000E+00  0.0000E+00  0.0000E+00  0.0000E+00  0.0000E+00  0.0000E+00  0.0000E+00  0.0000E+00  0.0000E+00  0.0000E+00  0.0000E+00  0.0000E+00  0.0000E+00  0.0000E+00  0.0000E+00  0.0000E+00
    -30.280  0.0000E+00  0.0000E+00  0.0000E+00  0.0000E+00  0.0000E+00  0.0000E+00  0.0000E+00  0.0000E+00  0.0000E+00  0.0000E+00  0.0000E+00  0.0000E+00  0.0000E+00  0.0000E+00  0.0000E+00  0.0000E+00  0.0000E+00  0.0000E+00
    -30.127  0.0000E+00  0.0000E+00  0.0000E+00  0.0000E+00  0.0000E+00  0.0000E+00  0.0000E+00  0.0000E+00  0.0000E+00  0.0000E+00  0.0000E+00  0.0000E+00  0.0000E+00  0.0000E+00  0.0000E+00  0.0000E+00  0.0000E+00  0.0000E+00
    -29.975  0.0000E+00  0.0000E+00  0.0000E+00  0.0000E+00  0.0000E+00  0.0000E+00  0.0000E+00  0.0000E+00  0.0000E+00  0.0000E+00  0.0000E+00  0.0000E+00  0.0000E+00  0.0000E+00  0.0000E+00  0.0000E+00  0.0000E+00  0.0000E+00
    -29.822  0.0000E+00  0.0000E+00  0.0000E+00  0.0000E+00  0.0000E+00  0.0000E+00  0.0000E+00  0.0000E+00  0.0000E+00  0.0000E+00  0.0000E+00  0.0000E+00  0.0000E+00  0.0000E+00  0.0000E+00  0.0000E+00  0.0000E+00  0.0000E+00
    -29.669  0.0000E+00  0.0000E+00  0.0000E+00  0.0000E+00  0.0000E+00  0.0000E+00  0.0000E+00  0.0000E+00  0.0000E+00  0.0000E+00  0.0000E+00  0.0000E+00  0.0000E+00  0.0000E+00  0.0000E+00  0.0000E+00  0.0000E+00  0.0000E+00
    -29.517  0.0000E+00  0.0000E+00  0.0000E+00  0.0000E+00  0.0000E+00  0.0000E+00  0.0000E+00  0.0000E+00  0.0000E+00  0.0000E+00  0.0000E+00  0.0000E+00  0.0000E+00  0.0000E+00  0.0000E+00  0.0000E+00  0.0000E+00  0.0000E+00
    -29.364  0.0000E+00  0.0000E+00  0.0000E+00  0.0000E+00  0.0000E+00  0.0000E+00  0.0000E+00  0.0000E+00  0.0000E+00  0.0000E+00  0.0000E+00  0.0000E+00  0.0000E+00  0.0000E+00  0.0000E+00  0.0000E+00  0.0000E+00  0.0000E+00
    -29.212  0.0000E+00  0.0000E+00  0.0000E+00  0.0000E+00  0.0000E+00  0.0000E+00  0.0000E+00  0.0000E+00  0.0000E+00  0.0000E+00  0.0000E+00  0.0000E+00  0.0000E+00  0.0000E+00  0.0000E+00  0.0000E+00  0.0000E+00  0.0000E+00
    -29.059  0.0000E+00  0.0000E+00  0.0000E+00  0.0000E+00  0.0000E+00  0.0000E+00  0.0000E+00  0.0000E+00  0.0000E+00  0.0000E+00  0.0000E+00  0.0000E+00  0.0000E+00  0.0000E+00  0.0000E+00  0.0000E+00  0.0000E+00  0.0000E+00
    -28.906  0.0000E+00  0.0000E+00  0.0000E+00  0.0000E+00  0.0000E+00  0.0000E+00  0.0000E+00  0.0000E+00  0.0000E+00  0.0000E+00  0.0000E+00  0.0000E+00  0.0000E+00  0.0000E+00  0.0000E+00  0.0000E+00  0.0000E+00  0.0000E+00
    -28.754  0.0000E+00  0.0000E+00  0.0000E+00  0.0000E+00  0.0000E+00  0.0000E+00  0.0000E+00  0.0000E+00  0.0000E+00  0.0000E+00  0.0000E+00  0.0000E+00  0.0000E+00  0.0000E+00  0.0000E+00  0.0000E+00  0.0000E+00  0.0000E+00
    -28.601  0.0000E+00  0.0000E+00  0.0000E+00  0.0000E+00  0.0000E+00  0.0000E+00  0.0000E+00  0.0000E+00  0.0000E+00  0.0000E+00  0.0000E+00  0.0000E+00  0.0000E+00  0.0000E+00  0.0000E+00  0.0000E+00  0.0000E+00  0.0000E+00