unknown system                          
           1
     5.337486   -0.207668   -0.030174
     0.231812    6.105529   -1.225992
     0.014457   -0.545511    4.424362
   Sr   Nb   H 
   2   1   9
Direct configuration=     1
   0.92629200  0.32345800  0.25783400
   0.42661600  0.77312800  0.00841800
   0.42673000  0.18606100  0.69643400
   0.67278900  0.05696800  0.87176800
   0.67865200  0.42417200  0.80605700
   0.92760600  0.70188800  0.09344200
   0.92329400  0.80726200  0.24123100
   0.19016800  0.06473000  0.39536000
   0.42569200  0.87797600  0.55571100
   0.17840400  0.05586500  0.87015500
   0.66474100  0.06317000  0.39765500
   0.17336700  0.42424700  0.80305600
unknown system                          
           1
     5.387428   -0.210309   -0.031658
     0.233470    6.163019   -1.237974
     0.013634   -0.551269    4.464330
   Sr   Nb   H 
   2   1   9
Direct configuration=     2
   0.92629034  0.32279136  0.25753566
   0.42658753  0.77330731  0.00857345
   0.42589658  0.18665693  0.69710357
   0.67260859  0.05691974  0.87173294
   0.67838874  0.42393062  0.80587703
   0.92749356  0.70184145  0.09332179
   0.92342087  0.80734695  0.24138265
   0.19041324  0.06466853  0.39553890
   0.42579727  0.87828687  0.55555586
   0.17889747  0.05605483  0.86995197
   0.66475012  0.06305916  0.39741076
   0.17380670  0.42406124  0.80313641
unknown system                          
           1
     5.423901   -0.212238   -0.032742
     0.234681    6.205003   -1.246724
     0.013033   -0.555474    4.493518
   Sr   Nb   H 
   2   1   9
Direct configuration=     3
   0.92628906  0.32230902  0.25731967
   0.42656697  0.77343706  0.00868597
   0.42529370  0.18708807  0.69758806
   0.67247804  0.05688481  0.87170752
   0.67819823  0.42375593  0.80574669
   0.92741218  0.70180775  0.09323476
   0.92351269  0.80740844  0.24149245
   0.19059069  0.06462411  0.39566844
   0.42587344  0.87851177  0.55544363
   0.17925449  0.05619220  0.86980515
   0.66475668  0.06297894  0.39723397
   0.17412483  0.42392689  0.80319469
unknown system                          
           1
     5.459893   -0.212714   -0.033982
     0.237166    6.237941   -1.263528
     0.011992   -0.564176    4.525232
   Sr   Nb   H 
   2   1   9
Direct configuration=     4
   0.92620937  0.32067193  0.25657349
   0.42652307  0.77451926  0.00905701
   0.42633501  0.18396012  0.69569629
   0.67087850  0.05771240  0.87131747
   0.67692014  0.42306335  0.80545055
   0.92717645  0.70397463  0.09633697
   0.92373736  0.80523145  0.23842419
   0.19165568  0.06525933  0.39682153
   0.42587736  0.88022516  0.55601809
   0.18056396  0.05706165  0.86958704
   0.66326129  0.06384020  0.39857420
   0.17521283  0.42340552  0.80326415
unknown system                          
           1
     5.450978   -0.212596   -0.033675
     0.236550    6.229784   -1.259366
     0.012250   -0.562021    4.517378
   Sr   Nb   H 
   2   1   9
Direct configuration=     5
   0.92622891  0.32107547  0.25675798
   0.42653392  0.77425252  0.00896512
   0.42607870  0.18473129  0.69616338
   0.67127211  0.05750850  0.87141302
   0.67723457  0.42323402  0.80552385
   0.92723444  0.70344007  0.09557264
   0.92368208  0.80576849  0.23918018
   0.19139364  0.06510261  0.39653747
   0.42587647  0.87980285  0.55587581
   0.18024184  0.05684749  0.86964014
   0.66362921  0.06362766  0.39824410
   0.17494510  0.42353401  0.80324731
unknown system                          
           1
     5.450622   -0.211918   -0.034293
     0.237316    6.226981   -1.263763
     0.011635   -0.563763    4.523155
   Sr   Nb   H 
   2   1   9
Direct configuration=     6
   0.92618926  0.31922253  0.25589931
   0.42650235  0.77532891  0.00908969
   0.42671314  0.18348460  0.69532701
   0.66962906  0.05824211  0.87101725
   0.67567490  0.42225438  0.80513570
   0.92713497  0.70288414  0.09490207
   0.92377976  0.80623483  0.23987325
   0.19257494  0.06570223  0.39764276
   0.42589237  0.88087694  0.55624653
   0.18172413  0.05764069  0.86936230
   0.66211950  0.06441455  0.39950561
   0.17641661  0.42263907  0.80311950
unknown system                          
           1
     5.450455   -0.211601   -0.034582
     0.237674    6.225668   -1.265821
     0.011347   -0.564579    4.525860
   Sr   Nb   H 
   2   1   9
Direct configuration=     7
   0.92617080  0.31835442  0.25549679
   0.42648748  0.77583317  0.00914851
   0.42701027  0.18290048  0.69493527
   0.66885965  0.05858583  0.87083247
   0.67494466  0.42179550  0.80495360
   0.92708841  0.70262366  0.09458820
   0.92382549  0.80645335  0.24019761
   0.19312808  0.06598317  0.39816001
   0.42589975  0.88138014  0.55642046
   0.18241813  0.05801218  0.86923287
   0.66141260  0.06478335  0.40009587
   0.17710569  0.42221975  0.80305934
unknown system                          
           1
     5.452517   -0.211464   -0.035339
     0.238048    6.225268   -1.270847
     0.010649   -0.567017    4.531526
   Sr   Nb   H 
   2   1   9
Direct configuration=     8
   0.92617590  0.31638548  0.25454568
   0.42645683  0.77667599  0.00912935
   0.42672477  0.18446430  0.69573025
   0.66759453  0.05895696  0.87071279
   0.67340011  0.42076095  0.80455730
   0.92697295  0.70261446  0.09471520
   0.92395496  0.80630054  0.24005835
   0.19411510  0.06627253  0.39877831
   0.42597848  0.88158349  0.55633577
   0.18383114  0.05856064  0.86907536
   0.66038749  0.06515312  0.40059063
   0.17875875  0.42119653  0.80289199
unknown system                          
           1
     5.454655   -0.211323   -0.036125
     0.238436    6.224854   -1.276060
     0.009926   -0.569546    4.537402
   Sr   Nb   H 
   2   1   9
Direct configuration=     9
   0.92618124  0.31434288  0.25355809
   0.42642497  0.77755020  0.00911050
   0.42642876  0.18608663  0.69655559
   0.66628294  0.05934191  0.87058906
   0.67179891  0.41968776  0.80414529
   0.92685328  0.70260496  0.09484673
   0.92408917  0.80614200  0.23991394
   0.19513839  0.06657284  0.39941930
   0.42606008  0.88179440  0.55624830
   0.18529595  0.05912946  0.86891309
   0.65932479  0.06553685  0.40110343
   0.18047253  0.42013509  0.80271769
unknown system                          
           1
     5.466994   -0.211712   -0.036702
     0.238893    6.231376   -1.280187
     0.009446   -0.572055    4.542654
   Sr   Nb   H 
   2   1   9
Direct configuration=    10
   0.92618274  0.31331911  0.25301991
   0.42640439  0.77777732  0.00898957
   0.42625217  0.18622283  0.69666265
   0.66591919  0.05946807  0.87095997
   0.67150328  0.41974601  0.80427866
   0.92677517  0.70276556  0.09516832
   0.92417339  0.80583514  0.23956609
   0.19531173  0.06662922  0.39924972
   0.42611193  0.88198772  0.55614943
   0.18575679  0.05935673  0.86926653
   0.65912037  0.06563307  0.40084337
   0.18083986  0.42018422  0.80296678
unknown system                          
           1
     5.504014   -0.212877   -0.038435
     0.240262    6.250944   -1.292567
     0.008007   -0.579582    4.558410
   Sr   Nb   H 
   2   1   9
Direct configuration=    11
   0.92618723  0.31025035  0.25140517
   0.42634274  0.77845786  0.00862758
   0.42572358  0.18663112  0.69698369
   0.66483046  0.05984650  0.87207161
   0.67061840  0.41992070  0.80467836
   0.92654143  0.70324716  0.09613236
   0.92442546  0.80491516  0.23852313
   0.19583051  0.06679805  0.39874170
   0.42626708  0.88256701  0.55585350
   0.18713627  0.06003819  0.87032630
   0.65850844  0.06592120  0.40006414
   0.18193940  0.42033170  0.80371346
