unknown system                          
           1
     5.021870    0.232169   -0.262266
    -0.906602    6.163299    0.095262
    -1.031943   -1.064413    7.636336
   Sr   Nb   H 
   3   2  20
Direct configuration=     1
   0.11465800  0.25431800  0.88411400
   0.68613300  0.70857300  0.95449200
   0.97758200  0.78751000  0.50668100
   0.71044400  0.21387000  0.23296400
   0.40167400  0.34914000  0.49767500
   0.29321300  0.85906800  0.80713800
   0.39294400  0.92400200  0.76030600
   0.53609600  0.62575100  0.59231300
   0.57874800  0.33080000  0.03361400
   0.84455300  0.92895300  0.75751500
   0.86924800  0.08842400  0.06272600
   0.36278700  0.29174600  0.24300000
   0.05022400  0.19987900  0.39355100
   0.20262500  0.74795000  0.24001700
   0.20274000  0.86968200  0.23760800
   0.45003300  0.02685100  0.08307100
   0.92306500  0.44377900  0.17711800
   0.71574100  0.44905800  0.41380900
   0.76004300  0.93167500  0.24992800
   0.63251900  0.35742200  0.71788200
   0.59074000  0.10330000  0.43316900
   0.27753100  0.13284000  0.61367300
   0.24975300  0.55471800  0.38967400
   0.16394300  0.63846900  0.93274900
   0.19326900  0.46832700  0.64435300
unknown system                          
           1
     5.070527    0.232442   -0.272095
    -0.917460    6.220380    0.103234
    -1.053241   -1.066773    7.705176
   Sr   Nb   H 
   3   2  20
Direct configuration=     2
   0.11449910  0.25427546  0.88415056
   0.68619207  0.70876204  0.95441274
   0.97768592  0.78749356  0.50680432
   0.71039211  0.21353614  0.23253223
   0.40199538  0.35029372  0.49779983
   0.29306094  0.85888098  0.80734203
   0.39303926  0.92420856  0.76027850
   0.53580278  0.62509146  0.59202487
   0.57881650  0.33060623  0.03382471
   0.84470835  0.92896388  0.75757864
   0.86912115  0.08853708  0.06281394
   0.36311285  0.29172665  0.24310104
   0.05031553  0.19982189  0.39356113
   0.20241791  0.74793840  0.23994091
   0.20242295  0.86960540  0.23746850
   0.45037532  0.02724703  0.08331044
   0.92278037  0.44334774  0.17711300
   0.71545061  0.44885344  0.41380584
   0.75988493  0.93205045  0.24990241
   0.63249645  0.35752773  0.71774912
   0.59080729  0.10340802  0.43310600
   0.27764331  0.13307973  0.61368243
   0.24987972  0.55426422  0.38986387
   0.16390646  0.63836588  0.93267670
   0.19349874  0.46821932  0.64429626
unknown system                          
           1
     5.171343    0.233009   -0.292459
    -0.939956    6.338647    0.119750
    -1.097368   -1.071663    7.847809
   Sr   Nb   H 
   3   2  20
Direct configuration=     3
   0.11417307  0.25418788  0.88422541
   0.68631307  0.70915031  0.95424972
   0.97789978  0.78745960  0.50705779
   0.71028349  0.21285190  0.23164606
   0.40265624  0.35266181  0.49805465
   0.29274963  0.85849644  0.80776109
   0.39323477  0.92463270  0.76022181
   0.53519927  0.62373815  0.59143382
   0.57895793  0.33020803  0.03425793
   0.84502752  0.92898621  0.75770962
   0.86886124  0.08876883  0.06299407
   0.36378214  0.29168700  0.24330921
   0.05050343  0.19970473  0.39358221
   0.20199250  0.74791460  0.23978426
   0.20177150  0.86944821  0.23718155
   0.45107926  0.02805964  0.08380207
   0.92219588  0.44246229  0.17710297
   0.71485442  0.44843328  0.41379918
   0.75956055  0.93282101  0.24984884
   0.63244964  0.35774507  0.71747598
   0.59094518  0.10362995  0.43297657
   0.27787400  0.13357187  0.61370156
   0.25014041  0.55333244  0.39025488
   0.16383107  0.63815437  0.93252836
   0.19397001  0.46799866  0.64418039
unknown system                          
           1
     5.120382    0.232722   -0.282165
    -0.928585    6.278865    0.111401
    -1.075062   -1.069191    7.775710
   Sr   Nb   H 
   3   2  20
Direct configuration=     4
   0.11433461  0.25423155  0.88418848
   0.68625331  0.70895752  0.95433088
   0.97779318  0.78747665  0.50693173
   0.71033945  0.21319017  0.23208543
   0.40232734  0.35148750  0.49792968
   0.29290321  0.85868779  0.80755301
   0.39313782  0.92442221  0.76025015
   0.53550020  0.62440881  0.59172656
   0.57888696  0.33040596  0.03404239
   0.84486895  0.92897515  0.75764432
   0.86898968  0.08865425  0.06290511
   0.36344979  0.29170661  0.24320520
   0.05041023  0.19976277  0.39357146
   0.20220382  0.74792641  0.23986240
   0.20209523  0.86952611  0.23732447
   0.45072889  0.02765694  0.08355810
   0.92248599  0.44290164  0.17710770
   0.71515020  0.44864190  0.41380267
   0.75972133  0.93243898  0.24987643
   0.63247339  0.35763698  0.71761181
   0.59087702  0.10351967  0.43304089
   0.27775943  0.13332774  0.61369229
   0.25001053  0.55379486  0.39005969
   0.16386883  0.63825911  0.93260188
   0.19373661  0.46810772  0.64423726
unknown system                          
           1
     5.101649    0.232617   -0.278381
    -0.924405    6.256889    0.108332
    -1.066863   -1.068282    7.749207
   Sr   Nb   H 
   3   2  20
Direct configuration=     5
   0.11439459  0.25424772  0.88417474
   0.68623109  0.70888601  0.95436094
   0.97775372  0.78748294  0.50688501
   0.71035983  0.21331591  0.23224852
   0.40220548  0.35105165  0.49788304
   0.29296036  0.85875869  0.80747584
   0.39310184  0.92434412  0.76026063
   0.53561158  0.62465780  0.59183527
   0.57886077  0.33047933  0.03396252
   0.84481015  0.92897104  0.75762015
   0.86903744  0.08861166  0.06287203
   0.36332652  0.29171389  0.24316674
   0.05037565  0.19978432  0.39356753
   0.20228218  0.74793079  0.23989132
   0.20221525  0.86955503  0.23737740
   0.45059909  0.02750743  0.08346758
   0.92259362  0.44306466  0.17710950
   0.71525996  0.44871928  0.41380393
   0.75978102  0.93229718  0.24988649
   0.63248210  0.35759692  0.71766215
   0.59085168  0.10347878  0.43306474
   0.27771693  0.13323714  0.61368881
   0.24996243  0.55396642  0.38998748
   0.16388278  0.63829801  0.93262917
   0.19364993  0.46814827  0.64425848
unknown system                          
           1
     5.128364    0.230531   -0.280135
    -0.932541    6.282357    0.116771
    -1.073442   -1.062244    7.776901
   Sr   Nb   H 
   3   2  20
Direct configuration=     6
   0.11409067  0.25419256  0.88416806
   0.68655310  0.70944787  0.95416437
   0.97797525  0.78728425  0.50719496
   0.70889399  0.21343838  0.23250403
   0.40223853  0.35001065  0.49785539
   0.29589550  0.86036368  0.80636893
   0.39004259  0.92259781  0.76167691
   0.53505689  0.62299553  0.59110272
   0.57901693  0.32985610  0.03485500
   0.84557495  0.92888483  0.75764029
   0.86797921  0.08956028  0.06374696
   0.36585014  0.29151536  0.24417803
   0.05080793  0.20051326  0.39335366
   0.20185287  0.75077602  0.23983331
   0.20168284  0.86663119  0.23726502
   0.45229115  0.02890004  0.08437332
   0.92091592  0.44106355  0.17734130
   0.71397249  0.44719738  0.41326895
   0.75942232  0.93394900  0.24983937
   0.63160765  0.35805298  0.71655112
   0.59054205  0.10557901  0.43238107
   0.27866843  0.13514636  0.61301365
   0.25024273  0.55311168  0.39074000
   0.16375603  0.63767984  0.93245973
   0.19537583  0.46735740  0.64326386
unknown system                          
           1
     5.120312    0.231160   -0.279607
    -0.930089    6.274681    0.114228
    -1.071459   -1.064064    7.768554
   Sr   Nb   H 
   3   2  20
Direct configuration=     7
   0.11418181  0.25420916  0.88417006
   0.68645646  0.70927910  0.95422357
   0.97790883  0.78734399  0.50710181
   0.70933349  0.21340198  0.23242734
   0.40222881  0.35032306  0.49786338
   0.29501516  0.85988100  0.80670183
   0.39096014  0.92312307  0.76125105
   0.53522358  0.62349415  0.59132223
   0.57897015  0.33004354  0.03458677
   0.84534563  0.92891059  0.75763420
   0.86829629  0.08927616  0.06348448
   0.36509337  0.29157502  0.24387422
   0.05067819  0.20029432  0.39341811
   0.20198109  0.74992215  0.23985159
   0.20184303  0.86750873  0.23729790
   0.45178344  0.02848225  0.08410169
   0.92141934  0.44166450  0.17727109
   0.71435887  0.44765408  0.41342918
   0.75952958  0.93345329  0.24985402
   0.63186987  0.35791572  0.71688495
   0.59063457  0.10494842  0.43258703
   0.27838282  0.13457290  0.61321699
   0.25015878  0.55336852  0.39051373
   0.16379416  0.63786531  0.93251043
   0.19485853  0.46759401  0.64356233
unknown system                          
           1
     5.137214    0.230450   -0.279446
    -0.934513    6.291443    0.119162
    -1.074284   -1.060619    7.777264
   Sr   Nb   H 
   3   2  20
Direct configuration=     8
   0.11386739  0.25426228  0.88421286
   0.68694947  0.70994281  0.95405792
   0.97806228  0.78690753  0.50741181
   0.70859787  0.21367193  0.23314883
   0.40209795  0.34934219  0.49733464
   0.29528092  0.85964857  0.80690867
   0.39066737  0.92324254  0.76135019
   0.53458580  0.62124441  0.59033858
   0.57890256  0.32934303  0.03566293
   0.84653374  0.92877366  0.75760862
   0.86673376  0.09069332  0.06470557
   0.36823731  0.29133045  0.24526818
   0.05104920  0.20142016  0.39299994
   0.20143234  0.74898418  0.23988783
   0.20118128  0.86842096  0.23709533
   0.45376920  0.03016627  0.08515769
   0.91911780  0.43907329  0.17761472
   0.71270073  0.44567146  0.41272767
   0.75908947  0.93552777  0.24988264
   0.63068795  0.35846512  0.71539972
   0.59010117  0.10776034  0.43174481
   0.27943678  0.13673367  0.61249111
   0.25048844  0.55216275  0.39159824
   0.16353467  0.63687038  0.93231314
   0.19720056  0.46644593  0.64221835
unknown system                          
           1
     5.148390    0.229980   -0.279340
    -0.937438    6.302527    0.122425
    -1.076152   -1.058341    7.783024
   Sr   Nb   H 
   3   2  20
Direct configuration=     9
   0.11366018  0.25429724  0.88424115
   0.68727449  0.71038062  0.95394821
   0.97816339  0.78661959  0.50761673
   0.70811317  0.21384948  0.23362535
   0.40201149  0.34869564  0.49698579
   0.29545606  0.85949524  0.80704535
   0.39047444  0.92332123  0.76141565
   0.53416499  0.61976131  0.58968980
   0.57885803  0.32888057  0.03637403
   0.84731676  0.92868354  0.75759166
   0.86570432  0.09162699  0.06551171
   0.37030952  0.29116894  0.24618870
   0.05129385  0.20216280  0.39272327
   0.20107054  0.74836558  0.23991218
   0.20074525  0.86902250  0.23696124
   0.45507834  0.03127648  0.08585435
   0.91760056  0.43736415  0.17784291
   0.71160750  0.44436422  0.41226523
   0.75879973  0.93689563  0.24990078
   0.62990889  0.35882796  0.71441861
   0.58974995  0.10961488  0.43118747
   0.28013166  0.13815900  0.61201073
   0.25070565  0.55136717  0.39231500
   0.16336346  0.63621438  0.93218323
   0.19874378  0.46568986  0.64133087
unknown system                          
           1
     5.171602    0.230405   -0.280670
    -0.941922    6.322737    0.125323
    -1.082443   -1.058559    7.794989
   Sr   Nb   H 
   3   2  20
Direct configuration=    10
   0.11348770  0.25447178  0.88445719
   0.68800722  0.71102672  0.95405925
   0.97810524  0.78555319  0.50760167
   0.71027135  0.21388723  0.23408927
   0.40235243  0.35007177  0.49590916
   0.29420021  0.85815350  0.80803568
   0.39172420  0.92459131  0.76073188
   0.53371432  0.61714119  0.58848347
   0.57802152  0.32845151  0.03731207
   0.84910274  0.92847640  0.75759344
   0.86408025  0.09338749  0.06654613
   0.37255271  0.29100835  0.24740274
   0.05132461  0.20354438  0.39205742
   0.20023883  0.75016469  0.23993736
   0.19981315  0.86709499  0.23681766
   0.45633735  0.03265710  0.08665054
   0.91545365  0.43516391  0.17819517
   0.71027183  0.44292934  0.41187024
   0.75844336  0.93846702  0.25032460
   0.62885451  0.35927943  0.71294116
   0.58910018  0.11205210  0.43074860
   0.28054881  0.13912127  0.61198671
   0.25045729  0.55026751  0.39330889
   0.16289215  0.63480568  0.93186437
   0.20095039  0.46433713  0.64021533
unknown system                          
           1
     5.160707    0.230206   -0.280045
    -0.939818    6.313251    0.123963
    -1.079490   -1.058456    7.789373
   Sr   Nb   H 
   3   2  20
Direct configuration=    11
   0.11356819  0.25439015  0.88435596
   0.68766472  0.71072442  0.95400730
   0.97813252  0.78605210  0.50760857
   0.70926268  0.21386952  0.23387184
   0.40219341  0.34942781  0.49641394
   0.29478677  0.85878140  0.80757135
   0.39114037  0.92399697  0.76105252
   0.53392565  0.61836689  0.58904846
   0.57841207  0.32865239  0.03687238
   0.84826821  0.92857323  0.75759257
   0.86483855  0.09256404  0.06606159
   0.37150404  0.29108352  0.24683372
   0.05131037  0.20289793  0.39236969
   0.20062728  0.74932302  0.23992582
   0.20024895  0.86799680  0.23688467
   0.45574859  0.03201122  0.08627759
   0.91645693  0.43619343  0.17802976
   0.71089626  0.44360066  0.41205516
   0.75860956  0.93773191  0.25012620
   0.62934775  0.35906809  0.71363367
   0.58940374  0.11091183  0.43095465
   0.28035380  0.13867105  0.61199810
   0.25057305  0.55078211  0.39284292
   0.16311265  0.63546472  0.93201361
   0.19991987  0.46496977  0.64073795
