unknown system                          
           1
     3.400278   -0.482098    0.098572
    -1.197637    4.520147   -0.522094
    -0.253919   -2.783063    7.150166
   H 
  16
Direct configuration=     1
   0.90095600  0.49863486  0.93145716
   0.75461984  0.52349181  0.87717485
   0.52812424  0.95204712  0.04687396
   0.53813469  0.90976137  0.12854900
   0.19029922  0.16955126  0.96563208
   0.31616561  0.55479530  0.73065338
   0.27987063  0.36665160  0.37306306
   0.37297131  0.41927476  0.65186436
   0.95855143  0.73411717  0.52854235
   0.98258014  0.68616531  0.60602433
   0.07070968  0.09122677  0.86538389
   0.65485943  0.06697780  0.56960636
   0.64291444  0.05185245  0.46920099
   0.92492435  0.74127207  0.24692513
   0.93237063  0.58136098  0.24229705
   0.17013035  0.24865037  0.26921404
unknown system                          
           1
     3.401979   -0.482716    0.097891
    -1.200105    4.510983   -0.527152
    -0.255392   -2.785209    7.154174
   H 
  16
Direct configuration=     2
   0.90156940  0.49831760  0.93155977
   0.75402607  0.52340485  0.87690966
   0.52869138  0.95249743  0.04659258
   0.53797531  0.90945421  0.12905055
   0.19057255  0.16974687  0.96595293
   0.31618544  0.55484646  0.73072855
   0.27987793  0.36673941  0.37303507
   0.37279283  0.41974565  0.65205230
   0.95818553  0.73457747  0.52826405
   0.98237087  0.68578698  0.60630523
   0.07075023  0.09108626  0.86545678
   0.65457346  0.06680605  0.56973758
   0.64253435  0.05176511  0.46838822
   0.92498309  0.74037675  0.24674362
   0.93217372  0.58172408  0.24218134
   0.17091984  0.24895581  0.26950377
unknown system                          
           1
     3.401337   -0.482483    0.098148
    -1.199174    4.514440   -0.525244
    -0.254836   -2.784400    7.152662
   H 
  16
Direct configuration=     3
   0.90133831  0.49843756  0.93152117
   0.75425006  0.52343780  0.87700970
   0.52847728  0.95232708  0.04669849
   0.53803552  0.90957037  0.12886157
   0.19046930  0.16967284  0.96583189
   0.31617792  0.55482710  0.73070020
   0.27987513  0.36670620  0.37304560
   0.37285978  0.41956753  0.65198129
   0.95832324  0.73440340  0.52836883
   0.98244998  0.68593008  0.60619946
   0.07073502  0.09113940  0.86542934
   0.65468138  0.06687102  0.56968818
   0.64267787  0.05179823  0.46869469
   0.92496157  0.74071543  0.24681235
   0.93224774  0.58158675  0.24222485
   0.17062190  0.24884021  0.26939441
unknown system                          
           1
     3.402689   -0.482922    0.097207
    -1.200984    4.507598   -0.527801
    -0.256591   -2.784534    7.153190
   H 
  16
Direct configuration=     4
   0.90135367  0.49826912  0.93142920
   0.75424632  0.52329156  0.87697355
   0.52894824  0.95250363  0.04680873
   0.53787555  0.90950515  0.12892157
   0.19059183  0.16976772  0.96600842
   0.31612003  0.55505084  0.73086513
   0.28005614  0.36696389  0.37318874
   0.37280040  0.41974745  0.65201904
   0.95812961  0.73458066  0.52843641
   0.98220340  0.68581381  0.60613172
   0.07084933  0.09108643  0.86555623
   0.65441590  0.06667932  0.56940226
   0.64243547  0.05179113  0.46845938
   0.92497868  0.74060209  0.24668995
   0.93212239  0.58128976  0.24212073
   0.17105502  0.24888843  0.26945094
unknown system                          
           1
     3.406743   -0.484239    0.094383
    -1.206416    4.487073   -0.535474
    -0.261857   -2.784939    7.154775
   H 
  16
Direct configuration=     5
   0.90139898  0.49776280  0.93115308
   0.75423452  0.52285200  0.87686489
   0.53036150  0.95303457  0.04713989
   0.53739565  0.90930901  0.12910138
   0.19095993  0.17005300  0.96653816
   0.31594752  0.55572336  0.73136018
   0.28060020  0.36773857  0.37361859
   0.37262306  0.42028824  0.65213253
   0.95754969  0.73511341  0.52863928
   0.98146337  0.68546420  0.60592823
   0.07119215  0.09092727  0.86593684
   0.65361856  0.06610291  0.56854420
   0.64170811  0.05176968  0.46775338
   0.92502937  0.74026141  0.24632264
   0.93174519  0.58039697  0.24180792
   0.17235420  0.24903360  0.26962081
unknown system                          
           1
     3.414851   -0.486874    0.088737
    -1.217280    4.446023   -0.550819
    -0.272388   -2.785747    7.157945
   H 
  16
Direct configuration=     6
   0.90148479  0.49674418  0.93059954
   0.75420726  0.52196764  0.87664634
   0.53319026  0.95410407  0.04780486
   0.53643586  0.90891403  0.12945992
   0.19169924  0.17062738  0.96759855
   0.31560951  0.55707627  0.73235188
   0.28169447  0.36929766  0.37448083
   0.37227318  0.42137606  0.65236088
   0.95639567  0.73618469  0.52904597
   0.97998148  0.68476012  0.60551967
   0.07187710  0.09060748  0.86669771
   0.65201840  0.06494239  0.56682608
   0.64025247  0.05172569  0.46634102
   0.92512691  0.73957598  0.24558724
   0.93098376  0.57860046  0.24117949
   0.17495161  0.24932689  0.26996203
unknown system                          
           1
     3.431069   -0.492144    0.077444
    -1.239008    4.363922   -0.581508
    -0.293449   -2.787364    7.164284
   H 
  16
Direct configuration=     7
   0.90163699  0.49468253  0.92948707
   0.75413791  0.52017768  0.87620414
   0.53885721  0.95627419  0.04914553
   0.53451627  0.90811301  0.13017263
   0.19319038  0.17179173  0.96972307
   0.31496179  0.55981422  0.73434179
   0.28390802  0.37245548  0.37621571
   0.37159292  0.42357712  0.65282319
   0.95411118  0.73835085  0.52986329
   0.97701018  0.68333222  0.60469612
   0.07324415  0.08996190  0.86821806
   0.64879583  0.06258986  0.56338171
   0.63733741  0.05163328  0.46351476
   0.92530649  0.73818861  0.24411322
   0.92943243  0.57496286  0.23991120
   0.18014284  0.24992545  0.27065051
unknown system                          
           1
     3.435917   -0.493328    0.075726
    -1.243616    4.351642   -0.586810
    -0.296710   -2.788474    7.167033
   H 
  16
Direct configuration=     8
   0.90154640  0.49413112  0.92913920
   0.75413233  0.51965443  0.87607367
   0.54013673  0.95659494  0.04970369
   0.53408978  0.90804686  0.13007523
   0.19373115  0.17223281  0.97041638
   0.31494275  0.56029336  0.73470169
   0.28513526  0.37406662  0.37735915
   0.37144999  0.42433888  0.65306805
   0.95365634  0.73888421  0.53004870
   0.97640799  0.68308431  0.60448968
   0.07334837  0.08975251  0.86843324
   0.64797008  0.06196122  0.56223210
   0.63668244  0.05159476  0.46324564
   0.92521645  0.73922291  0.24381095
   0.92913110  0.57269145  0.23960379
   0.18060483  0.24928060  0.27006082
unknown system                          
           1
     3.435138   -0.493138    0.076002
    -1.242876    4.353615   -0.585958
    -0.296186   -2.788296    7.166591
   H 
  16
Direct configuration=     9
   0.90156124  0.49422008  0.92919517
   0.75413348  0.51973884  0.87609472
   0.53993114  0.95654312  0.04961391
   0.53415827  0.90805756  0.13009091
   0.19364405  0.17216162  0.97030492
   0.31494553  0.56021606  0.73464380
   0.28493740  0.37380665  0.37717516
   0.37147255  0.42421601  0.65302860
   0.95372907  0.73879820  0.53001885
   0.97650478  0.68312433  0.60452291
   0.07333170  0.08978628  0.86839871
   0.64810307  0.06206269  0.56241691
   0.63678762  0.05160101  0.46328891
   0.92523048  0.73905608  0.24385934
   0.92918053  0.57305787  0.23965356
   0.18053107  0.24938461  0.27015563
unknown system                          
           1
     3.438511   -0.493403    0.075386
    -1.244806    4.349903   -0.588387
    -0.297836   -2.789924    7.169063
   H 
  16
Direct configuration=    10
   0.90151551  0.49383665  0.92896391
   0.75405140  0.51937688  0.87596322
   0.54064343  0.95674820  0.04980443
   0.53390053  0.90791558  0.13014521
   0.19383909  0.17236968  0.97063251
   0.31496276  0.56051605  0.73485819
   0.28521900  0.37426454  0.37741933
   0.37145068  0.42469595  0.65318957
   0.95351515  0.73913677  0.53008898
   0.97623973  0.68303703  0.60441912
   0.07350807  0.08981636  0.86865809
   0.64763130  0.06170247  0.56194734
   0.63637346  0.05150690  0.46294986
   0.92514527  0.73879274  0.24367808
   0.92900769  0.57257303  0.23951937
   0.18117893  0.24954216  0.27022478
unknown system                          
           1
     3.448631   -0.494198    0.073537
    -1.250598    4.338766   -0.595673
    -0.302786   -2.794807    7.176476
   H 
  16
Direct configuration=    11
   0.90137686  0.49268478  0.92826984
   0.75380403  0.51828955  0.87556839
   0.54277918  0.95736436  0.05037625
   0.53312769  0.90748914  0.13030782
   0.19442480  0.17299488  0.97161529
   0.31501569  0.56141728  0.73550154
   0.28606481  0.37564010  0.37815228
   0.37138689  0.42613767  0.65367294
   0.95287519  0.74015381  0.53029969
   0.97544490  0.68277470  0.60410767
   0.07403718  0.08990689  0.86943608
   0.64621549  0.06062013  0.56053850
   0.63513134  0.05122399  0.46193280
   0.92488875  0.73800162  0.24313410
   0.92848794  0.57111661  0.23911627
   0.18312125  0.25001549  0.27043254
unknown system                          
           1
     3.468871   -0.495789    0.069839
    -1.262181    4.316492   -0.610246
    -0.312685   -2.804573    7.191303
   H 
  16
Direct configuration=    12
   0.90109090  0.49037144  0.92688002
   0.75330262  0.51610617  0.87477654
   0.54704402  0.95860225  0.05152159
   0.53158431  0.90663322  0.13063115
   0.19559990  0.17425134  0.97358086
   0.31512898  0.56322738  0.73678934
   0.28776257  0.37840262  0.37962077
   0.37127032  0.42903259  0.65464242
   0.95160606  0.74219575  0.53072294
   0.97385720  0.68224759  0.60348424
   0.07509539  0.09008971  0.87099106
   0.64338075  0.05844532  0.55772000
   0.63264927  0.05065457  0.45989926
   0.92437047  0.73641268  0.24204503
   0.92744096  0.56819224  0.23830678
   0.18699828  0.25096614  0.27085002
unknown system                          
           1
     3.469817   -0.495204    0.069101
    -1.261632    4.316817   -0.609726
    -0.314771   -2.804761    7.189931
   H 
  16
Direct configuration=    13
   0.90083083  0.49006203  0.92661839
   0.75333112  0.51572347  0.87469768
   0.54744553  0.95874513  0.05138828
   0.53133927  0.90630575  0.13086197
   0.19511891  0.17400107  0.97327025
   0.31474033  0.56435803  0.73748074
   0.28664503  0.37712789  0.37843883
   0.37175577  0.42841582  0.65415489
   0.95169857  0.74219265  0.53112433
   0.97373297  0.68264471  0.60310282
   0.07585152  0.09064268  0.87172856
   0.64316508  0.05830763  0.55799384
   0.63236993  0.05053292  0.45922380
   0.92427518  0.73414027  0.24189271
   0.92734511  0.57002816  0.23830507
   0.18853684  0.25260277  0.27217984
unknown system                          
           1
     3.469290   -0.495529    0.069512
    -1.261938    4.316636   -0.610016
    -0.313610   -2.804656    7.190694
   H 
  16
Direct configuration=    14
   0.90097556  0.49023419  0.92676400
   0.75331525  0.51593639  0.87474155
   0.54722226  0.95866568  0.05146246
   0.53147544  0.90648788  0.13073351
   0.19538655  0.17414032  0.97344312
   0.31495638  0.56372889  0.73709603
   0.28726697  0.37783716  0.37909661
   0.37148586  0.42875905  0.65442616
   0.95164695  0.74219432  0.53090094
   0.97380227  0.68242383  0.60331512
   0.07543070  0.09033499  0.87131811
   0.64328492  0.05838418  0.55784145
   0.63252557  0.05060068  0.45959972
   0.92432796  0.73540449  0.24197738
   0.92739865  0.56900678  0.23830611
   0.18768069  0.25169217  0.27143975
