  14  14   1   0
  0.1125907E+02  0.6856240E-09  0.5313199E-09  0.5037322E-09  0.5000000E-15
  1.000000000000000E-004
  CAR 
 unknown system                          
     13.08095567    -35.47784856  301      2.31708740      1.00000000
    -35.478  0.0000E+00  0.0000E+00  0.0000E+00  0.0000E+00
    -35.316  0.0000E+00  0.0000E+00  0.0000E+00  0.0000E+00
    -35.154  0.0000E+00  0.0000E+00  0.0000E+00  0.0000E+00
    -34.992  0.0000E+00  0.0000E+00  0.0000E+00  0.0000E+00
    -34.830  0.0000E+00  0.0000E+00  0.0000E+00  0.0000E+00
    -34.669  0.0000E+00  0.0000E+00  0.0000E+00  0.0000E+00
    -34.507  0.0000E+00  0.0000E+00  0.0000E+00  0.0000E+00
    -34.345  0.0000E+00  0.0000E+00  0.0000E+00  0.0000E+00
    -34.183  0.0000E+00  0.0000E+00  0.0000E+00  0.0000E+00
    -34.021  0.0000E+00  0.0000E+00  0.0000E+00  0.0000E+00
    -33.859  0.0000E+00  0.0000E+00  0.0000E+00  0.0000E+00
    -33.697  0.0000E+00  0.0000E+00  0.0000E+00  0.0000E+00
    -33.535  0.0000E+00  0.0000E+00  0.0000E+00  0.0000E+00
    -33.374  0.0000E+00  0.0000E+00  0.0000E+00  0.0000E+00
    -33.212  0.4024E+00  0.4038E+00  0.1875E-01  0.1791E-01
    -33.050  0.0000E+00  0.0000E+00  0.2020E-01  0.2020E-01
    -32.888  0.0000E+00  0.0000E+00  0.2020E-01  0.2020E-01
    -32.726  0.0000E+00  0.0000E+00  0.2020E-01  0.2020E-01
    -32.564  0.0000E+00  0.0000E+00  0.3030E-01  0.3030E-01
    -32.402  0.0000E+00  0.0000E+00  0.3030E-01  0.3030E-01
    -32.241  0.0000E+00  0.0000E+00  0.3030E-01  0.3030E-01
    -32.079  0.0000E+00  0.0000E+00  0.3030E-01  0.3030E-01
    -31.917  0.0000E+00  0.0000E+00  0.3030E-01  0.3030E-01
    -31.755  0.0000E+00  0.0000E+00  0.3030E-01  0.3030E-01
    -31.593  0.0000E+00  0.0000E+00  0.3030E-01  0.3030E-01
    -31.431  0.0000E+00  0.0000E+00  0.3030E-01  0.3030E-01
    -31.269  0.0000E+00  0.0000E+00  0.3030E-01  0.3030E-01
    -31.108  0.0000E+00  0.0000E+00  0.3030E-01  0.3030E-01
    -30.946  0.0000E+00  0.0000E+00  0.3030E-01  0.3030E-01
    -30.784  0.0000E+00  0.0000E+00  0.3030E-01  0.3030E-01
    -30.622  0.0000E+00  0.0000E+00  0.3030E-01  0.3030E-01
    -30.460  0.0000E+00  0.0000E+00  0.3030E-01  0.3030E-01
    -30.298  0.0000E+00  0.0000E+00  0.3030E-01  0.3030E-01
    -30.136  0.0000E+00  0.0000E+00  0.3030E-01  0.3030E-01
    -29.975  0.0000E+00  0.0000E+00  0.3030E-01  0.3030E-01
    -29.813  0.0000E+00  0.0000E+00  0.3030E-01  0.3030E-01
    -29.651  0.0000E+00  0.0000E+00  0.3030E-01  0.3030E-01
    -29.489  0.0000E+00  0.0000E+00  0.3030E-01  0.3030E-01
    -29.327  0.0000E+00  0.0000E+00  0.3030E-01  0.3030E-01
    -29.165  0.0000E+00  0.0000E+00  0.3030E-01  0.3030E-01
    -29.003  0.0000E+00  0.0000E+00  0.3030E-01  0.3030E-01
    -28.841  0.0000E+00  0.0000E+00  0.3030E-01  0.3030E-01
    -28.680  0.0000E+00  0.0000E+00  0.6061E-01  0.3030E-01
    -28.518  0.0000E+00  0.0000E+00  0.6061E-01  0.3030E-01
    -28.356  0.0000E+00  0.0000E+00  0.6061E-01  0.4040E-01
    -28.194  0.0000E+00  0.0000E+00  0.6061E-01  0.5051E-01
    -28.032  0.0000E+00  0.0000E+00  0.6061E-01  0.6061E-01
    -27.870  0.0000E+00  0.0000E+00  0.6061E-01  0.6061E-01
    -27.708  0.0000E+00  0.0000E+00  0.6061E-01  0.6061E-01
    -27.547  0.0000E+00  0.0000E+00  0.6061E-01  0.6061E-01
    -27.385  0.0000E+00  0.0000E+00  0.6061E-01  0.6061E-01
    -27.223  0.0000E+00  0.0000E+00  0.6061E-01  0.6061E-01
    -27.061  0.0000E+00  0.0000E+00  0.6061E-01  0.6061E-01
    -26.899  0.0000E+00  0.0000E+00  0.6061E-01  0.6061E-01
    -26.737  0.0000E+00  0.0000E+00  0.6061E-01  0.6061E-01
    -26.575  0.0000E+00  0.0000E+00  0.6061E-01  0.6061E-01
    -26.414  0.0000E+00  0.0000E+00  0.6061E-01  0.6061E-01
    -26.252  0.0000E+00  0.0000E+00  0.6061E-01  0.6061E-01
    -26.090  0.0000E+00  0.0000E+00  0.6061E-01  0.6061E-01
    -25.928  0.0000E+00  0.0000E+00  0.6061E-01  0.6061E-01
    -25.766  0.0000E+00  0.0000E+00  0.6061E-01  0.6061E-01
    -25.604  0.0000E+00  0.0000E+00  0.6061E-01  0.6061E-01
    -25.442  0.0000E+00  0.0000E+00  0.6061E-01  0.6061E-01
    -25.280  0.0000E+00  0.0000E+00  0.6061E-01  0.6061E-01
    -25.119  0.0000E+00  0.0000E+00  0.6061E-01  0.6061E-01
    -24.957  0.0000E+00  0.0000E+00  0.6061E-01  0.6061E-01
    -24.795  0.0000E+00  0.0000E+00  0.6061E-01  0.6061E-01
    -24.633  0.0000E+00  0.0000E+00  0.6061E-01  0.6061E-01
    -24.471  0.0000E+00  0.0000E+00  0.6061E-01  0.6061E-01
    -24.309  0.0000E+00  0.0000E+00  0.6061E-01  0.6061E-01
    -24.147  0.0000E+00  0.0000E+00  0.6061E-01  0.6061E-01
    -23.986  0.0000E+00  0.0000E+00  0.6061E-01  0.6061E-01
    -23.824  0.0000E+00  0.0000E+00  0.6061E-01  0.6061E-01
    -23.662  0.0000E+00  0.0000E+00  0.6061E-01  0.6061E-01
    -23.500  0.0000E+00  0.0000E+00  0.6061E-01  0.6061E-01
    -23.338  0.0000E+00  0.0000E+00  0.6061E-01  0.6061E-01
    -23.176  0.0000E+00  0.0000E+00  0.6061E-01  0.6061E-01
    -23.014  0.0000E+00  0.0000E+00  0.6061E-01  0.6061E-01
    -22.853  0.0000E+00  0.0000E+00  0.6061E-01  0.6061E-01
    -22.691  0.0000E+00  0.0000E+00  0.6061E-01  0.6061E-01
    -22.529  0.0000E+00  0.0000E+00  0.6061E-01  0.6061E-01
    -22.367  0.0000E+00  0.0000E+00  0.6061E-01  0.6061E-01
    -22.205  0.0000E+00  0.0000E+00  0.6061E-01  0.6061E-01
    -22.043  0.0000E+00  0.0000E+00  0.6061E-01  0.6061E-01
    -21.881  0.0000E+00  0.0000E+00  0.6061E-01  0.6061E-01
    -21.720  0.0000E+00  0.0000E+00  0.6061E-01  0.6061E-01
    -21.558  0.0000E+00  0.0000E+00  0.6061E-01  0.6061E-01
    -21.396  0.0000E+00  0.0000E+00  0.6061E-01  0.6061E-01
    -21.234  0.0000E+00  0.0000E+00  0.6061E-01  0.6061E-01
    -21.072  0.0000E+00  0.0000E+00  0.6061E-01  0.6061E-01
    -20.910  0.0000E+00  0.0000E+00  0.6061E-01  0.6061E-01
    -20.748  0.0000E+00  0.0000E+00  0.6061E-01  0.6061E-01
    -20.586  0.0000E+00  0.0000E+00  0.6061E-01  0.6061E-01
    -20.425  0.0000E+00  0.0000E+00  0.6061E-01  0.6061E-01
    -20.263  0.0000E+00  0.0000E+00  0.6061E-01  0.6061E-01
    -20.101  0.0000E+00  0.0000E+00  0.6061E-01  0.6061E-01
    -19.939  0.0000E+00  0.0000E+00  0.6061E-01  0.6061E-01
    -19.777  0.0000E+00  0.0000E+00  0.6061E-01  0.6061E-01
    -19.615  0.0000E+00  0.0000E+00  0.6061E-01  0.6061E-01
    -19.453  0.0000E+00  0.0000E+00  0.6061E-01  0.6061E-01
    -19.292  0.0000E+00  0.0000E+00  0.6061E-01  0.6061E-01
    -19.130  0.0000E+00  0.0000E+00  0.6061E-01  0.6061E-01
    -18.968  0.0000E+00  0.0000E+00  0.6061E-01  0.6061E-01
    -18.806  0.0000E+00  0.0000E+00  0.6061E-01  0.6061E-01
    -18.644  0.0000E+00  0.0000E+00  0.6061E-01  0.6061E-01
    -18.482  0.0000E+00  0.0000E+00  0.6061E-01  0.6061E-01
    -18.320  0.0000E+00  0.0000E+00  0.6061E-01  0.6061E-01
    -18.159  0.0000E+00  0.0000E+00  0.6061E-01  0.6061E-01
    -17.997  0.0000E+00  0.0000E+00  0.6061E-01  0.6061E-01
    -17.835  0.0000E+00  0.0000E+00  0.6061E-01  0.6061E-01
    -17.673  0.0000E+00  0.0000E+00  0.6061E-01  0.6061E-01
    -17.511  0.0000E+00  0.0000E+00  0.6061E-01  0.6061E-01
    -17.349  0.0000E+00  0.0000E+00  0.6061E-01  0.6061E-01
    -17.187  0.0000E+00  0.0000E+00  0.6061E-01  0.6061E-01
    -17.026  0.0000E+00  0.0000E+00  0.6061E-01  0.6061E-01
    -16.864  0.0000E+00  0.0000E+00  0.6061E-01  0.6061E-01
    -16.702  0.0000E+00  0.0000E+00  0.6061E-01  0.6061E-01
    -16.540  0.0000E+00  0.0000E+00  0.6061E-01  0.6061E-01
    -16.378  0.0000E+00  0.0000E+00  0.6061E-01  0.6061E-01
    -16.216  0.0000E+00  0.0000E+00  0.6061E-01  0.6061E-01
    -16.054  0.0000E+00  0.0000E+00  0.6061E-01  0.6061E-01
    -15.892  0.0000E+00  0.0000E+00  0.6061E-01  0.6061E-01
    -15.731  0.0000E+00  0.0000E+00  0.6061E-01  0.6061E-01
    -15.569  0.4168E-01  0.3836E-01  0.6129E-01  0.6107E-01
    -15.407  0.9866E-01  0.1001E+00  0.7818E-01  0.7783E-01
    -15.245  0.1092E+00  0.1899E+00  0.9925E-01  0.9868E-01
    -15.083  0.0000E+00  0.0000E+00  0.1212E+00  0.1212E+00
    -14.921  0.0000E+00  0.0000E+00  0.1212E+00  0.1212E+00
    -14.759  0.0000E+00  0.7767E+00  0.1414E+00  0.1373E+00
    -14.598  0.0000E+00  0.0000E+00  0.1515E+00  0.1515E+00
    -14.436  0.0000E+00  0.0000E+00  0.1515E+00  0.1515E+00
    -14.274  0.0000E+00  0.0000E+00  0.1515E+00  0.1515E+00
    -14.112  0.0000E+00  0.0000E+00  0.1515E+00  0.1515E+00
    -13.950  0.0000E+00  0.0000E+00  0.1515E+00  0.1515E+00
    -13.788  0.0000E+00  0.0000E+00  0.1515E+00  0.1515E+00
    -13.626  0.0000E+00  0.0000E+00  0.1515E+00  0.1515E+00
    -13.465  0.0000E+00  0.0000E+00  0.1515E+00  0.1515E+00
    -13.303  0.0000E+00  0.0000E+00  0.1515E+00  0.1515E+00
    -13.141  0.0000E+00  0.0000E+00  0.1515E+00  0.1515E+00
    -12.979  0.0000E+00  0.0000E+00  0.1515E+00  0.1515E+00
    -12.817  0.0000E+00  0.0000E+00  0.1515E+00  0.1515E+00
    -12.655  0.0000E+00  0.0000E+00  0.1515E+00  0.1515E+00
    -12.493  0.0000E+00  0.0000E+00  0.1515E+00  0.1515E+00
    -12.331  0.0000E+00  0.0000E+00  0.1515E+00  0.1515E+00
    -12.170  0.0000E+00  0.0000E+00  0.1515E+00  0.1515E+00
    -12.008  0.0000E+00  0.0000E+00  0.1515E+00  0.1515E+00
    -11.846  0.0000E+00  0.0000E+00  0.1515E+00  0.1515E+00
    -11.684  0.0000E+00  0.0000E+00  0.1515E+00  0.1515E+00
    -11.522  0.0000E+00  0.0000E+00  0.1515E+00  0.1515E+00
    -11.360  0.0000E+00  0.0000E+00  0.1515E+00  0.1515E+00
    -11.198  0.0000E+00  0.0000E+00  0.1515E+00  0.1515E+00
    -11.037  0.0000E+00  0.0000E+00  0.1515E+00  0.1515E+00
    -10.875  0.0000E+00  0.0000E+00  0.1515E+00  0.1515E+00
    -10.713  0.0000E+00  0.0000E+00  0.1515E+00  0.1515E+00
    -10.551  0.0000E+00  0.0000E+00  0.1515E+00  0.1515E+00
    -10.389  0.0000E+00  0.0000E+00  0.1515E+00  0.1515E+00
    -10.227  0.0000E+00  0.0000E+00  0.1515E+00  0.1515E+00
    -10.065  0.0000E+00  0.0000E+00  0.1515E+00  0.1515E+00
     -9.904  0.0000E+00  0.0000E+00  0.1515E+00  0.1515E+00
     -9.742  0.0000E+00  0.0000E+00  0.1515E+00  0.1515E+00
     -9.580  0.0000E+00  0.0000E+00  0.1515E+00  0.1515E+00
     -9.418  0.0000E+00  0.0000E+00  0.1515E+00  0.1515E+00
     -9.256  0.0000E+00  0.0000E+00  0.1515E+00  0.1515E+00
     -9.094  0.0000E+00  0.0000E+00  0.1515E+00  0.1515E+00
     -8.932  0.0000E+00  0.0000E+00  0.1515E+00  0.1515E+00
     -8.771  0.0000E+00  0.0000E+00  0.1515E+00  0.1515E+00
     -8.609  0.0000E+00  0.0000E+00  0.1515E+00  0.1515E+00
     -8.447  0.0000E+00  0.0000E+00  0.1515E+00  0.1515E+00
     -8.285  0.0000E+00  0.0000E+00  0.1515E+00  0.1515E+00
     -8.123  0.0000E+00  0.0000E+00  0.1515E+00  0.1515E+00
     -7.961  0.0000E+00  0.0000E+00  0.1515E+00  0.1515E+00
     -7.799  0.0000E+00  0.0000E+00  0.1515E+00  0.1515E+00
     -7.637  0.0000E+00  0.0000E+00  0.1515E+00  0.1515E+00
     -7.476  0.0000E+00  0.0000E+00  0.1515E+00  0.1515E+00
     -7.314  0.0000E+00  0.0000E+00  0.1515E+00  0.1515E+00
     -7.152  0.0000E+00  0.0000E+00  0.1515E+00  0.1515E+00
     -6.990  0.0000E+00  0.0000E+00  0.1515E+00  0.1515E+00
     -6.828  0.0000E+00  0.0000E+00  0.1515E+00  0.1515E+00
     -6.666  0.0000E+00  0.0000E+00  0.1515E+00  0.1515E+00
     -6.504  0.0000E+00  0.0000E+00  0.1515E+00  0.1515E+00
     -6.343  0.0000E+00  0.0000E+00  0.1515E+00  0.1515E+00
     -6.181  0.0000E+00  0.0000E+00  0.1515E+00  0.1515E+00
     -6.019  0.0000E+00  0.0000E+00  0.1515E+00  0.1515E+00
     -5.857  0.0000E+00  0.0000E+00  0.1515E+00  0.1515E+00
     -5.695  0.0000E+00  0.0000E+00  0.1515E+00  0.1515E+00
     -5.533  0.0000E+00  0.0000E+00  0.1515E+00  0.1515E+00
     -5.371  0.0000E+00  0.0000E+00  0.1515E+00  0.1515E+00
     -5.210  0.1487E-04  0.0000E+00  0.1515E+00  0.1515E+00
     -5.048  0.7113E-03  0.1881E-03  0.1516E+00  0.1515E+00
     -4.886  0.2447E-02  0.1320E-02  0.1518E+00  0.1516E+00
     -4.724  0.4830E-02  0.3449E-02  0.1524E+00  0.1520E+00
     -4.562  0.6809E-02  0.5534E-02  0.1533E+00  0.1527E+00
     -4.400  0.8696E-02  0.7398E-02  0.1546E+00  0.1538E+00
     -4.238  0.1356E-01  0.1000E-01  0.1563E+00  0.1551E+00
     -4.076  0.1675E-01  0.1436E-01  0.1588E+00  0.1572E+00
     -3.915  0.9282E-02  0.1345E-01  0.1609E+00  0.1596E+00
     -3.753  0.0000E+00  0.7086E-02  0.1616E+00  0.1612E+00
     -3.591  0.0000E+00  0.0000E+00  0.1616E+00  0.1616E+00
     -3.429  0.0000E+00  0.0000E+00  0.1616E+00  0.1616E+00
     -3.267  0.0000E+00  0.0000E+00  0.1616E+00  0.1616E+00
     -3.105  0.0000E+00  0.0000E+00  0.1616E+00  0.1616E+00
     -2.943  0.9256E-02  0.2469E-02  0.1619E+00  0.1617E+00
     -2.782  0.1917E-01  0.1349E-01  0.1638E+00  0.1632E+00
     -2.620  0.2323E-01  0.2663E-01  0.1681E+00  0.1669E+00
     -2.458  0.8102E-02  0.9837E-02  0.1704E+00  0.1700E+00
     -2.296  0.3393E-01  0.1767E-01  0.1730E+00  0.1717E+00
     -2.134  0.2905E-01  0.3751E-01  0.1792E+00  0.1770E+00
     -1.972  0.3056E-01  0.1065E-01  0.1824E+00  0.1812E+00
     -1.810  0.2477E-01  0.4813E-01  0.1890E+00  0.1867E+00
     -1.649  0.5977E-01  0.7329E-01  0.1977E+00  0.1927E+00
     -1.487  0.1337E-01  0.1947E-01  0.2017E+00  0.2002E+00
     -1.325  0.4566E-01  0.6824E-01  0.2102E+00  0.2026E+00
     -1.163  0.6311E-01  0.2643E-01  0.2150E+00  0.2120E+00
     -1.001  0.6061E-02  0.6101E-01  0.2221E+00  0.2201E+00
     -0.839  0.3721E-01  0.5300E-02  0.2237E+00  0.2224E+00
     -0.677  0.1950E-01  0.5326E-01  0.2312E+00  0.2286E+00
     -0.516  0.1505E-01  0.3765E-02  0.2328E+00  0.2323E+00
     -0.354  0.4374E-01  0.3027E-01  0.2384E+00  0.2346E+00
     -0.192  0.9906E-02  0.1945E-01  0.2419E+00  0.2402E+00
     -0.030  0.1907E-01  0.9421E-02  0.2435E+00  0.2422E+00
      0.132  0.3919E-01  0.3525E-01  0.2487E+00  0.2450E+00
      0.294  0.8281E-02  0.2304E-01  0.2524E+00  0.2509E+00
      0.456  0.0000E+00  0.0000E+00  0.2525E+00  0.2525E+00
      0.618  0.0000E+00  0.0000E+00  0.2525E+00  0.2525E+00
      0.779  0.0000E+00  0.0000E+00  0.2525E+00  0.2525E+00
      0.941  0.0000E+00  0.0000E+00  0.2525E+00  0.2525E+00
      1.103  0.0000E+00  0.0000E+00  0.2525E+00  0.2525E+00
      1.265  0.0000E+00  0.0000E+00  0.2525E+00  0.2525E+00
      1.427  0.0000E+00  0.0000E+00  0.2525E+00  0.2525E+00
      1.589  0.0000E+00  0.0000E+00  0.2525E+00  0.2525E+00
      1.751  0.0000E+00  0.0000E+00  0.2525E+00  0.2525E+00
      1.912  0.2866E-01  0.0000E+00  0.2539E+00  0.2525E+00
      2.074  0.2145E-01  0.0000E+00  0.2582E+00  0.2525E+00
      2.236  0.1452E-01  0.0000E+00  0.2620E+00  0.2525E+00
      2.398  0.0000E+00  0.0000E+00  0.2626E+00  0.2525E+00
      2.560  0.0000E+00  0.0000E+00  0.2626E+00  0.2525E+00
      2.722  0.0000E+00  0.0000E+00  0.2626E+00  0.2525E+00
      2.884  0.0000E+00  0.1738E-01  0.2626E+00  0.2531E+00
      3.045  0.0000E+00  0.2299E-01  0.2626E+00  0.2568E+00
      3.207  0.0000E+00  0.3166E-01  0.2626E+00  0.2601E+00
      3.369  0.1127E-02  0.2089E-03  0.2626E+00  0.2626E+00
      3.531  0.1635E-01  0.6612E-04  0.2640E+00  0.2626E+00
      3.693  0.3509E-01  0.1552E-01  0.2686E+00  0.2634E+00
      3.855  0.1403E-01  0.2827E-01  0.2721E+00  0.2692E+00
      4.017  0.8749E-02  0.1560E-01  0.2738E+00  0.2725E+00
      4.179  0.2658E-01  0.9370E-02  0.2763E+00  0.2740E+00
      4.340  0.2878E-01  0.2928E-01  0.2811E+00  0.2772E+00
      4.502  0.3290E-01  0.3063E-01  0.2856E+00  0.2820E+00
      4.664  0.3116E-01  0.3175E-01  0.2902E+00  0.2871E+00
      4.826  0.1063E-01  0.2255E-01  0.2931E+00  0.2918E+00
      4.988  0.4554E-01  0.8298E-02  0.2972E+00  0.2932E+00
      5.150  0.2063E-01  0.3648E-01  0.3017E+00  0.2984E+00
      5.312  0.3896E-01  0.2066E-01  0.3051E+00  0.3022E+00
      5.473  0.2701E-01  0.3413E-01  0.3115E+00  0.3068E+00
      5.635  0.8290E-02  0.1606E-01  0.3135E+00  0.3122E+00
      5.797  0.3009E-01  0.1158E-01  0.3179E+00  0.3139E+00
      5.959  0.2694E-01  0.2523E-01  0.3231E+00  0.3194E+00
      6.121  0.3761E-01  0.3741E-01  0.3290E+00  0.3253E+00
      6.283  0.2948E-01  0.3194E-01  0.3339E+00  0.3309E+00
      6.445  0.2488E-01  0.4138E-01  0.3395E+00  0.3368E+00
      6.606  0.3421E-01  0.2335E-01  0.3440E+00  0.3411E+00
      6.768  0.3642E-01  0.3909E-01  0.3498E+00  0.3462E+00
      6.930  0.5677E-01  0.3695E-01  0.3566E+00  0.3520E+00
      7.092  0.1848E-01  0.3435E-01  0.3620E+00  0.3600E+00
      7.254  0.3834E-01  0.2696E-01  0.3668E+00  0.3633E+00
      7.416  0.1963E-01  0.3397E-01  0.3714E+00  0.3688E+00
      7.578  0.4299E-01  0.3505E-01  0.3761E+00  0.3732E+00
      7.739  0.1855E-01  0.3526E-01  0.3815E+00  0.3793E+00
      7.901  0.5037E-01  0.2160E-01  0.3868E+00  0.3831E+00
      8.063  0.2724E-01  0.4374E-01  0.3931E+00  0.3900E+00
      8.225  0.3832E-01  0.5436E-01  0.4007E+00  0.3966E+00
      8.387  0.5043E-01  0.2126E-01  0.4058E+00  0.4030E+00
      8.549  0.3339E-01  0.5566E-01  0.4141E+00  0.4111E+00
      8.711  0.4040E-01  0.3991E-01  0.4198E+00  0.4172E+00
      8.873  0.2842E-01  0.1866E-01  0.4239E+00  0.4226E+00
      9.034  0.3052E-01  0.5015E-01  0.4321E+00  0.4292E+00
      9.196  0.4806E-01  0.1825E-01  0.4358E+00  0.4340E+00
      9.358  0.2607E-01  0.4227E-01  0.4431E+00  0.4413E+00
      9.520  0.4517E-01  0.2350E-01  0.4480E+00  0.4455E+00
      9.682  0.3305E-01  0.3259E-01  0.4535E+00  0.4515E+00
      9.844  0.3897E-01  0.4957E-01  0.4608E+00  0.4575E+00
     10.006  0.2063E-01  0.1857E-01  0.4649E+00  0.4638E+00
     10.167  0.3340E-01  0.3389E-01  0.4700E+00  0.4677E+00
     10.329  0.2709E-01  0.3298E-01  0.4752E+00  0.4733E+00
     10.491  0.4116E-01  0.3601E-01  0.4806E+00  0.4774E+00
     10.653  0.1056E-01  0.2194E-01  0.4845E+00  0.4830E+00
     10.815  0.0000E+00  0.2212E-02  0.4848E+00  0.4848E+00
     10.977  0.0000E+00  0.0000E+00  0.4848E+00  0.4848E+00
     11.139  0.0000E+00  0.0000E+00  0.4848E+00  0.4848E+00
     11.300  0.0000E+00  0.0000E+00  0.4848E+00  0.4848E+00
     11.462  0.0000E+00  0.0000E+00  0.4848E+00  0.4848E+00
     11.624  0.0000E+00  0.0000E+00  0.4848E+00  0.4848E+00
     11.786  0.0000E+00  0.0000E+00  0.4848E+00  0.4848E+00
     11.948  0.0000E+00  0.0000E+00  0.4848E+00  0.4848E+00
     12.110  0.0000E+00  0.0000E+00  0.4848E+00  0.4848E+00
     12.272  0.0000E+00  0.0000E+00  0.4848E+00  0.4848E+00
     12.434  0.0000E+00  0.0000E+00  0.4848E+00  0.4848E+00
     12.595  0.0000E+00  0.0000E+00  0.4848E+00  0.4848E+00
     12.757  0.0000E+00  0.0000E+00  0.4848E+00  0.4848E+00
     12.919  0.0000E+00  0.0000E+00  0.4848E+00  0.4848E+00
     13.081  0.0000E+00  0.0000E+00  0.4848E+00  0.4848E+00
     13.08095567    -35.47784856  301      2.31708740      1.00000000
    -35.478  0.0000E+00  0.0000E+00  0.0000E+00  0.0000E+00  0.0000E+00  0.0000E+00  0.0000E+00  0.0000E+00  0.0000E+00  0.0000E+00  0.0000E+00  0.0000E+00  0.0000E+00  0.0000E+00  0.0000E+00  0.0000E+00  0.0000E+00  0.0000E+00
    -35.316  0.0000E+00  0.0000E+00  0.0000E+00  0.0000E+00  0.0000E+00  0.0000E+00  0.0000E+00  0.0000E+00  0.0000E+00  0.0000E+00  0.0000E+00  0.0000E+00  0.0000E+00  0.0000E+00  0.0000E+00  0.0000E+00  0.0000E+00  0.0000E+00
    -35.154  0.0000E+00  0.0000E+00  0.0000E+00  0.0000E+00  0.0000E+00  0.0000E+00  0.0000E+00  0.0000E+00  0.0000E+00  0.0000E+00  0.0000E+00  0.0000E+00  0.0000E+00  0.0000E+00  0.0000E+00  0.0000E+00  0.0000E+00  0.0000E+00
    -34.992  0.0000E+00  0.0000E+00  0.0000E+00  0.0000E+00  0.0000E+00  0.0000E+00  0.0000E+00  0.0000E+00  0.0000E+00  0.0000E+00  0.0000E+00  0.0000E+00  0.0000E+00  0.0000E+00  0.0000E+00  0.0000E+00  0.0000E+00  0.0000E+00
    -34.830  0.0000E+00  0.0000E+00  0.0000E+00  0.0000E+00  0.0000E+00  0.0000E+00  0.0000E+00  0.0000E+00  0.0000E+00  0.0000E+00  0.0000E+00  0.0000E+00  0.0000E+00  0.0000E+00  0.0000E+00  0.0000E+00  0.0000E+00  0.0000E+00
    -34.669  0.0000E+00  0.0000E+00  0.0000E+00  0.0000E+00  0.0000E+00  0.0000E+00  0.0000E+00  0.0000E+00  0.0000E+00  0.0000E+00  0.0000E+00  0.0000E+00  0.0000E+00  0.0000E+00  0.0000E+00  0.0000E+00  0.0000E+00  0.0000E+00
    -34.507  0.0000E+00  0.0000E+00  0.0000E+00  0.0000E+00  0.0000E+00  0.0000E+00  0.0000E+00  0.0000E+00  0.0000E+00  0.0000E+00  0.0000E+00  0.0000E+00  0.0000E+00  0.0000E+00  0.0000E+00  0.0000E+00  0.0000E+00  0.0000E+00
    -34.345  0.0000E+00  0.0000E+00  0.0000E+00  0.0000E+00  0.0000E+00  0.0000E+00  0.0000E+00  0.0000E+00  0.0000E+00  0.0000E+00  0.0000E+00  0.0000E+00  0.0000E+00  0.0000E+00  0.0000E+00  0.0000E+00  0.0000E+00  0.0000E+00
    -34.183  0.0000E+00  0.0000E+00  0.0000E+00  0.0000E+00  0.0000E+00  0.0000E+00  0.0000E+00  0.0000E+00  0.0000E+00  0.0000E+00  0.0000E+00  0.0000E+00  0.0000E+00  0.0000E+00  0.0000E+00  0.0000E+00  0.0000E+00  0.0000E+00
    -34.021  0.0000E+00  0.0000E+00  0.0000E+00  0.0000E+00  0.0000E+00  0.0000E+00  0.0000E+00  0.0000E+00  0.0000E+00  0.0000E+00  0.0000E+00  0.0000E+00  0.0000E+00  0.0000E+00  0.0000E+00  0.0000E+00  0.0000E+00  0.0000E+00
    -33.859  0.0000E+00  0.0000E+00  0.0000E+00  0.0000E+00  0.0000E+00  0.0000E+00  0.0000E+00  0.0000E+00  0.0000E+00  0.0000E+00  0.0000E+00  0.0000E+00  0.0000E+00  0.0000E+00  0.0000E+00  0.0000E+00  0.0000E+00  0.0000E+00
    -33.697  0.0000E+00  0.0000E+00  0.0000E+00  0.0000E+00  0.0000E+00  0.0000E+00  0.0000E+00  0.0000E+00  0.0000E+00  0.0000E+00  0.0000E+00  0.0000E+00  0.0000E+00  0.0000E+00  0.0000E+00  0.0000E+00  0.0000E+00  0.0000E+00
    -33.535  0.0000E+00  0.0000E+00  0.0000E+00  0.0000E+00  0.0000E+00  0.0000E+00  0.0000E+00  0.0000E+00  0.0000E+00  0.0000E+00  0.0000E+00  0.0000E+00  0.0000E+00  0.0000E+00  0.0000E+00  0.0000E+00  0.0000E+00  0.0000E+00
    -33.374  0.0000E+00  0.0000E+00  0.0000E+00  0.0000E+00  0.0000E+00  0.0000E+00  0.0000E+00  0.0000E+00  0.0000E+00  0.0000E+00  0.0000E+00  0.0000E+00  0.0000E+00  0.0000E+00  0.0000E+00  0.0000E+00  0.0000E+00  0.0000E+00
    -33.212  0.9222E+01  0.8978E+01  0.4869E-04  0.5316E-04  0.3529E-04  0.4049E-04  0.1966E-04  0.2052E-04  0.2918E-05  0.3540E-05  0.7615E-05  0.1140E-04  0.2783E-05  0.1540E-05  0.4273E-05  0.2634E-05  0.4146E-05  0.3000E-05
    -33.050  0.0000E+00  0.0000E+00  0.0000E+00  0.0000E+00  0.0000E+00  0.0000E+00  0.0000E+00  0.0000E+00  0.0000E+00  0.0000E+00  0.0000E+00  0.0000E+00  0.0000E+00  0.0000E+00  0.0000E+00  0.0000E+00  0.0000E+00  0.0000E+00
    -32.888  0.0000E+00  0.0000E+00  0.0000E+00  0.0000E+00  0.0000E+00  0.0000E+00  0.0000E+00  0.0000E+00  0.0000E+00  0.0000E+00  0.0000E+00  0.0000E+00  0.0000E+00  0.0000E+00  0.0000E+00  0.0000E+00  0.0000E+00  0.0000E+00
    -32.726  0.0000E+00  0.0000E+00  0.0000E+00  0.0000E+00  0.0000E+00  0.0000E+00  0.0000E+00  0.0000E+00  0.0000E+00  0.0000E+00  0.0000E+00  0.0000E+00  0.0000E+00  0.0000E+00  0.0000E+00  0.0000E+00  0.0000E+00  0.0000E+00
    -32.564  0.0000E+00  0.0000E+00  0.0000E+00  0.0000E+00  0.0000E+00  0.0000E+00  0.0000E+00  0.0000E+00  0.0000E+00  0.0000E+00  0.0000E+00  0.0000E+00  0.0000E+00  0.0000E+00  0.0000E+00  0.0000E+00  0.0000E+00  0.0000E+00
    -32.402  0.0000E+00  0.0000E+00  0.0000E+00  0.0000E+00  0.0000E+00  0.0000E+00  0.0000E+00  0.0000E+00  0.0000E+00  0.0000E+00  0.0000E+00  0.0000E+00  0.0000E+00  0.0000E+00  0.0000E+00  0.0000E+00  0.0000E+00  0.0000E+00
    -32.241  0.0000E+00  0.0000E+00  0.0000E+00  0.0000E+00  0.0000E+00  0.0000E+00  0.0000E+00  0.0000E+00  0.0000E+00  0.0000E+00  0.0000E+00  0.0000E+00  0.0000E+00  0.0000E+00  0.0000E+00  0.0000E+00  0.0000E+00  0.0000E+00
    -32.079  0.0000E+00  0.0000E+00  0.0000E+00  0.0000E+00  0.0000E+00  0.0000E+00  0.0000E+00  0.0000E+00  0.0000E+00  0.0000E+00  0.0000E+00  0.0000E+00  0.0000E+00  0.0000E+00  0.0000E+00  0.0000E+00  0.0000E+00  0.0000E+00
    -31.917  0.0000E+00  0.0000E+00  0.0000E+00  0.0000E+00  0.0000E+00  0.0000E+00  0.0000E+00  0.0000E+00  0.0000E+00  0.0000E+00  0.0000E+00  0.0000E+00  0.0000E+00  0.0000E+00  0.0000E+00  0.0000E+00  0.0000E+00  0.0000E+00
    -31.755  0.0000E+00  0.0000E+00  0.0000E+00  0.0000E+00  0.0000E+00  0.0000E+00  0.0000E+00  0.0000E+00  0.0000E+00  0.0000E+00  0.0000E+00  0.0000E+00  0.0000E+00  0.0000E+00  0.0000E+00  0.0000E+00  0.0000E+00  0.0000E+00
    -31.593  0.0000E+00  0.0000E+00  0.0000E+00  0.0000E+00  0.0000E+00  0.0000E+00  0.0000E+00  0.0000E+00  0.0000E+00  0.0000E+00  0.0000E+00  0.0000E+00  0.0000E+00  0.0000E+00  0.0000E+00  0.0000E+00  0.0000E+00  0.0000E+00
    -31.431  0.0000E+00  0.0000E+00  0.0000E+00  0.0000E+00  0.0000E+00  0.0000E+00  0.0000E+00  0.0000E+00  0.0000E+00  0.0000E+00  0.0000E+00  0.0000E+00  0.0000E+00  0.0000E+00  0.0000E+00  0.0000E+00  0.0000E+00  0.0000E+00
    -31.269  0.0000E+00  0.0000E+00  0.0000E+00  0.0000E+00  0.0000E+00  0.0000E+00  0.0000E+00  0.0000E+00  0.0000E+00  0.0000E+00  0.0000E+00  0.0000E+00  0.0000E+00  0.0000E+00  0.0000E+00  0.0000E+00  0.0000E+00  0.0000E+00
    -31.108  0.0000E+00  0.0000E+00  0.0000E+00  0.0000E+00  0.0000E+00  0.0000E+00  0.0000E+00  0.0000E+00  0.0000E+00  0.0000E+00  0.0000E+00  0.0000E+00  0.0000E+00  0.0000E+00  0.0000E+00  0.0000E+00  0.0000E+00  0.0000E+00
    -30.946  0.0000E+00  0.0000E+00  0.0000E+00  0.0000E+00  0.0000E+00  0.0000E+00  0.0000E+00  0.0000E+00  0.0000E+00  0.0000E+00  0.0000E+00  0.0000E+00  0.0000E+00  0.0000E+00  0.0000E+00  0.0000E+00  0.0000E+00  0.0000E+00
    -30.784  0.0000E+00  0.0000E+00  0.0000E+00  0.0000E+00  0.0000E+00  0.0000E+00  0.0000E+00  0.0000E+00  0.0000E+00  0.0000E+00  0.0000E+00  0.0000E+00  0.0000E+00  0.0000E+00  0.0000E+00  0.0000E+00  0.0000E+00  0.0000E+00
    -30.622  0.0000E+00  0.0000E+00  0.0000E+00  0.0000E+00  0.0000E+00  0.0000E+00  0.0000E+00  0.0000E+00  0.0000E+00  0.0000E+00  0.0000E+00  0.0000E+00  0.0000E+00  0.0000E+00  0.0000E+00  0.0000E+00  0.0000E+00  0.0000E+00
    -30.460  0.0000E+00  0.0000E+00  0.0000E+00  0.0000E+00  0.0000E+00  0.0000E+00  0.0000E+00  0.0000E+00  0.0000E+00  0.0000E+00  0.0000E+00  0.0000E+00  0.0000E+00  0.0000E+00  0.0000E+00  0.0000E+00  0.0000E+00  0.0000E+00
    -30.298  0.0000E+00  0.0000E+00  0.0000E+00  0.0000E+00  0.0000E+00  0.0000E+00  0.0000E+00  0.0000E+00  0.0000E+00  0.0000E+00  0.0000E+00  0.0000E+00  0.0000E+00  0.0000E+00  0.0000E+00  0.0000E+00  0.0000E+00  0.0000E+00
    -30.136  0.0000E+00  0.0000E+00  0.0000E+00  0.0000E+00  0.0000E+00  0.0000E+00  0.0000E+00  0.0000E+00  0.0000E+00  0.0000E+00  0.0000E+00  0.0000E+00  0.0000E+00  0.0000E+00  0.0000E+00  0.0000E+00  0.0000E+00  0.0000E+00
    -29.975  0.0000E+00  0.0000E+00  0.0000E+00  0.0000E+00  0.0000E+00  0.0000E+00  0.0000E+00  0.0000E+00  0.0000E+00  0.0000E+00  0.0000E+00  0.0000E+00  0.0000E+00  0.0000E+00  0.0000E+00  0.0000E+00  0.0000E+00  0.0000E+00
    -29.813  0.0000E+00  0.0000E+00  0.0000E+00  0.0000E+00  0.0000E+00  0.0000E+00  0.0000E+00  0.0000E+00  0.0000E+00  0.0000E+00  0.0000E+00  0.0000E+00  0.0000E+00  0.0000E+00  0.0000E+00  0.0000E+00  0.0000E+00  0.0000E+00
    -29.651  0.0000E+00  0.0000E+00  0.0000E+00  0.0000E+00  0.0000E+00  0.0000E+00  0.0000E+00  0.0000E+00  0.0000E+00  0.0000E+00  0.0000E+00  0.0000E+00  0.0000E+00  0.0000E+00  0.0000E+00  0.0000E+00  0.0000E+00  0.0000E+00
    -29.489  0.0000E+00  0.0000E+00  0.0000E+00  0.0000E+00  0.0000E+00  0.0000E+00  0.0000E+00  0.0000E+00  0.0000E+00  0.0000E+00  0.0000E+00  0.0000E+00  0.0000E+00  0.0000E+00  0.0000E+00  0.0000E+00  0.0000E+00  0.0000E+00
    -29.327  0.0000E+00  0.0000E+00  0.0000E+00  0.0000E+00  0.0000E+00  0.0000E+00  0.0000E+00  0.0000E+00  0.0000E+00  0.0000E+00  0.0000E+00  0.0000E+00  0.0000E+00  0.0000E+00  0.0000E+00  0.0000E+00  0.0000E+00  0.0000E+00
    -29.165  0.0000E+00  0.0000E+00  0.0000E+00  0.0000E+00  0.0000E+00  0.0000E+00  0.0000E+00  0.0000E+00  0.0000E+00  0.0000E+00  0.0000E+00  0.0000E+00  0.0000E+00  0.0000E+00  0.0000E+00  0.0000E+00  0.0000E+00  0.0000E+00
    -29.003  0.0000E+00  0.0000E+00  0.0000E+00  0.0000E+00  0.0000E+00  0.0000E+00  0.0000E+00  0.0000E+00  0.0000E+00  0.0000E+00  0.0000E+00  0.0000E+00  0.0000E+00  0.0000E+00  0.0000E+00  0.0000E+00  0.0000E+00  0.0000E+00
    -28.841  0.0000E+00  0.0000E+00  0.0000E+00  0.0000E+00  0.0000E+00  0.0000E+00  0.0000E+00  0.0000E+00  0.0000E+00  0.0000E+00  0.0000E+00  0.0000E+00  0.0000E+00  0.0000E+00  0.0000E+00  0.0000E+00  0.0000E+00  0.0000E+00
    -28.680  0.0000E+00  0.0000E+00  0.0000E+00  0.0000E+00  0.0000E+00  0.0000E+00  0.0000E+00  0.0000E+00  0.0000E+00  0.0000E+00  0.0000E+00  0.0000E+00  0.0000E+00  0.0000E+00  0.0000E+00  0.0000E+00  0.0000E+00  0.0000E+00
    -28.518  0.0000E+00  0.0000E+00  0.0000E+00  0.0000E+00  0.0000E+00  0.0000E+00  0.0000E+00  0.0000E+00  0.0000E+00  0.0000E+00  0.0000E+00  0.0000E+00  0.0000E+00  0.0000E+00  0.0000E+00  0.0000E+00  0.0000E+00  0.0000E+00
    -28.356  0.0000E+00  0.0000E+00  0.0000E+00  0.0000E+00  0.0000E+00  0.0000E+00  0.0000E+00  0.0000E+00  0.0000E+00  0.0000E+00  0.0000E+00  0.0000E+00  0.0000E+00  0.0000E+00  0.0000E+00  0.0000E+00  0.0000E+00  0.0000E+00
    -28.194  0.0000E+00  0.0000E+00  0.0000E+00  0.0000E+00  0.0000E+00  0.0000E+00  0.0000E+00  0.0000E+00  0.0000E+00  0.0000E+00  0.0000E+00  0.0000E+00  0.0000E+00  0.0000E+00  0.0000E+00  0.0000E+00  0.0000E+00  0.0000E+00
    -28.032  0.0000E+00  0.0000E+00  0.0000E+00  0.0000E+00  0.0000E+00  0.0000E+00  0.0000E+00  0.0000E+00  0.0000E+00  0.0000E+00  0.0000E+00  0.0000E+00  0.0000E+00  0.0000E+00  0.0000E+00  0.0000E+00  0.0000E+00  0.0000E+00
    -27.870  0.0000E+00  0.0000E+00  0.0000E+00  0.0000E+00  0.0000E+00  0.0000E+00  0.0000E+00  0.0000E+00  0.0000E+00  0.0000E+00  0.0000E+00  0.0000E+00  0.0000E+00  0.0000E+00  0.0000E+00  0.0000E+00  0.0000E+00  0.0000E+00
    -27.708  0.0000E+00  0.0000E+00  0.0000E+00  0.0000E+00  0.0000E+00  0.0000E+00  0.0000E+00  0.0000E+00  0.0000E+00  0.0000E+00  0.0000E+00  0.0000E+00  0.0000E+00  0.0000E+00  0.0000E+00  0.0000E+00  0.0000E+00  0.0000E+00
    -27.547  0.0000E+00  0.0000E+00  0.0000E+00  0.0000E+00  0.0000E+00  0.0000E+00  0.0000E+00  0.0000E+00  0.0000E+00  0.0000E+00  0.0000E+00  0.0000E+00  0.0000E+00  0.0000E+00  0.0000E+00  0.0000E+00  0.0000E+00  0.0000E+00
    -27.385  0.0000E+00  0.0000E+00  0.0000E+00  0.0000E+00  0.0000E+00  0.0000E+00  0.0000E+00  0.0000E+00  0.0000E+00  0.0000E+00  0.0000E+00  0.0000E+00  0.0000E+00  0.0000E+00  0.0000E+00  0.0000E+00  0.0000E+00  0.0000E+00