       N       E                     dE             d eps       ncg     rms          rms(c)
DAV:   1     0.292295759272E+03    0.29230E+03   -0.23576E+04  5952   0.975E+02
DAV:   2    -0.312993736926E+02   -0.32360E+03   -0.30913E+03  6288   0.278E+02
DAV:   3    -0.537857309980E+02   -0.22486E+02   -0.22269E+02 10608   0.632E+01
DAV:   4    -0.544980702925E+02   -0.71234E+00   -0.70957E+00  7968   0.852E+00
DAV:   5    -0.545240675910E+02   -0.25997E-01   -0.26009E-01  9168   0.132E+00    0.412E+01
RMM:   6    -0.549763809888E+02   -0.45231E+00   -0.80226E+00  6505   0.836E+00    0.206E+01
RMM:   7    -0.541953445660E+02    0.78104E+00   -0.15788E+00  6577   0.515E+00    0.115E+01
RMM:   8    -0.541833947573E+02    0.11950E-01   -0.36519E-01  6615   0.342E+00    0.490E+00
RMM:   9    -0.542159282892E+02   -0.32534E-01   -0.10841E-01  6708   0.165E+00    0.181E+00
RMM:  10    -0.542102332675E+02    0.56950E-02   -0.22023E-02  6480   0.780E-01    0.805E-01
RMM:  11    -0.542104829040E+02   -0.24964E-03   -0.61570E-03  5760   0.407E-01
   1 F= -.54210483E+02 E0= -.54210483E+02  d E =-.542105E+02  mag=     1.0033
       N       E                     dE             d eps       ncg     rms          rms(c)
DAV:   1    -0.544472590100E+02   -0.23703E+00   -0.44899E+00  7952   0.104E+01    0.419E+00
RMM:   2    -0.543082643003E+02    0.13899E+00   -0.50629E-01  6852   0.308E+00    0.133E+00
RMM:   3    -0.542722607960E+02    0.36004E-01   -0.64336E-02  6657   0.179E+00    0.101E+00
RMM:   4    -0.542619298382E+02    0.10331E-01   -0.29270E-02  6388   0.827E-01    0.103E+00
RMM:   5    -0.542623428903E+02   -0.41305E-03   -0.66304E-03  5640   0.772E-01
   2 F= -.54262343E+02 E0= -.54262343E+02  d E =-.518600E-01  mag=     1.0001
       N       E                     dE             d eps       ncg     rms          rms(c)
DAV:   1    -0.556647469321E+02   -0.14028E+01   -0.35007E+01  6656   0.288E+01    0.119E+01
RMM:   2    -0.545789554148E+02    0.10858E+01   -0.39662E+00  6839   0.847E+00    0.387E+00
RMM:   3    -0.542464092126E+02    0.33255E+00   -0.49596E-01  6465   0.513E+00    0.295E+00
RMM:   4    -0.541667841905E+02    0.79625E-01   -0.20960E-01  6477   0.230E+00    0.342E+00
RMM:   5    -0.541704096371E+02   -0.36254E-02   -0.48978E-02  7203   0.204E+00    0.237E+00
RMM:   6    -0.541680121188E+02    0.23975E-02   -0.64537E-02  7765   0.776E-01    0.121E+00
RMM:   7    -0.541664802754E+02    0.15318E-02   -0.28155E-02  7655   0.561E-01    0.330E-01
RMM:   8    -0.541669140666E+02   -0.43379E-03   -0.44592E-03  5784   0.311E-01
   3 F= -.54166914E+02 E0= -.54166914E+02  d E =0.435688E-01  mag=     1.0000
       N       E                     dE             d eps       ncg     rms          rms(c)
DAV:   1    -0.548135961255E+02   -0.64712E+00   -0.13071E+01  7872   0.171E+01    0.712E+00
RMM:   2    -0.543923106359E+02    0.42129E+00   -0.14022E+00  6855   0.526E+00    0.235E+00
RMM:   3    -0.542932036584E+02    0.99107E-01   -0.19070E-01  6838   0.293E+00    0.139E+00
RMM:   4    -0.542615993489E+02    0.31604E-01   -0.98172E-02  6609   0.141E+00    0.128E+00
RMM:   5    -0.542632284478E+02   -0.16291E-02   -0.24725E-02  6722   0.139E+00    0.102E+00
RMM:   6    -0.542659429435E+02   -0.27145E-02   -0.97291E-03  6297   0.312E-01    0.386E-01
RMM:   7    -0.542653590365E+02    0.58391E-03   -0.41984E-03  6094   0.265E-01
   4 F= -.54265359E+02 E0= -.54265359E+02  d E =-.548761E-01  mag=     1.0000
       N       E                     dE             d eps       ncg     rms          rms(c)
DAV:   1    -0.543521503918E+02   -0.86207E-01   -0.26570E+00  7008   0.856E+00    0.294E+00
RMM:   2    -0.542984491299E+02    0.53701E-01   -0.23005E-01  6703   0.203E+00    0.999E-01
RMM:   3    -0.542821240489E+02    0.16325E-01   -0.35345E-02  6838   0.122E+00    0.610E-01
RMM:   4    -0.542819274685E+02    0.19658E-03   -0.25519E-02  6589   0.580E-01    0.574E-01
RMM:   5    -0.542827749578E+02   -0.84749E-03   -0.29333E-03  5167   0.455E-01    0.481E-01
RMM:   6    -0.542843309716E+02   -0.15560E-02   -0.13593E-03  4678   0.183E-01    0.341E-01
RMM:   7    -0.542839935791E+02    0.33739E-03   -0.26441E-03  5047   0.221E-01
   5 F= -.54283994E+02 E0= -.54283994E+02  d E =-.186345E-01  mag=     1.0000
       N       E                     dE             d eps       ncg     rms          rms(c)
DAV:   1    -0.542842397046E+02    0.91267E-04   -0.37794E-02  8928   0.107E+00    0.403E-01
RMM:   2    -0.542834153736E+02    0.82433E-03   -0.27671E-03  5063   0.243E-01    0.105E-01
RMM:   3    -0.542832425613E+02    0.17281E-03   -0.42612E-04  3552   0.165E-01
   6 F= -.54283243E+02 E0= -.54283243E+02  d E =-.178835E-01  mag=     1.0000
       N       E                     dE             d eps       ncg     rms          rms(c)
DAV:   1    -0.542831888044E+02    0.22657E-03   -0.55018E-01  6992   0.443E+00    0.423E-01
RMM:   2    -0.542872724053E+02   -0.40836E-02   -0.54001E-02  5984   0.841E-01    0.226E-01
RMM:   3    -0.542866238395E+02    0.64857E-03   -0.32770E-03  4687   0.464E-01
   7 F= -.54286624E+02 E0= -.54286624E+02  d E =-.338128E-02  mag=     1.0000
       N       E                     dE             d eps       ncg     rms          rms(c)
DAV:   1    -0.542866151154E+02    0.65729E-03   -0.12824E-02  8960   0.669E-01    0.132E-01
RMM:   2    -0.542866650201E+02   -0.49905E-04   -0.11905E-03  4053   0.129E-01
   8 F= -.54286665E+02 E0= -.54286665E+02  d E =-.342246E-02  mag=     1.0000
