unknown system                          
           1
     6.792239   -0.909475    0.215345
    -1.239119    5.166577    0.033964
     1.764518    0.348472    4.705280
   Sr   Nb   H 
   3   1  10
Direct configuration=     1
   0.43128300  0.93556900  0.85566900
   0.45993600  0.42731400  0.33762000
   0.95280500  0.69896300  0.59757100
   0.98210100  0.25770200  0.07424600
   0.55153800  0.54133100  0.78308700
   0.78347300  0.88512900  0.13950500
   0.14816000  0.10337100  0.77466900
   0.17758200  0.50938900  0.21237400
   0.17589400  0.51233900  0.74912800
   0.12879000  0.08998800  0.22779800
   0.74801000  0.24267300  0.43473000
   0.36773400  0.91179800  0.38517700
   0.94800400  0.58368600  0.09896000
   0.74818400  0.25461600  0.95474200
unknown system                          
           1
     6.845130   -0.916726    0.227257
    -1.248714    5.208065    0.035389
     1.785150    0.353884    4.759293
   Sr   Nb   H 
   3   1  10
Direct configuration=     2
   0.43071227  0.93554042  0.85604819
   0.46040347  0.42765735  0.33755094
   0.95326040  0.69847171  0.59741706
   0.98297321  0.25887453  0.07322493
   0.55122283  0.54129040  0.78342639
   0.78337274  0.88467609  0.13952415
   0.14783968  0.10334685  0.77443211
   0.17713193  0.50922345  0.21309474
   0.17530752  0.51214230  0.74903946
   0.12857675  0.08986303  0.22824863
   0.74850985  0.24283520  0.43542650
   0.36786909  0.91189877  0.38511393
   0.94783349  0.58315557  0.09902643
   0.74848077  0.25489233  0.95370254
unknown system                          
           1
     6.995204   -0.937300    0.261056
    -1.275939    5.325785    0.039431
     1.843692    0.369241    4.912552
   Sr   Nb   H 
   3   1  10
Direct configuration=     3
   0.42910425  0.93545920  0.85711542
   0.46172050  0.42862427  0.33735410
   0.95454340  0.69708928  0.59698275
   0.98543081  0.26217659  0.07035444
   0.55033480  0.54117556  0.78438043
   0.78309024  0.88340113  0.13957881
   0.14693734  0.10327882  0.77376958
   0.17586376  0.50875651  0.21511946
   0.17365529  0.51158819  0.74879481
   0.12797583  0.08951072  0.22951414
   0.74991782  0.24329162  0.43737717
   0.36824971  0.91218259  0.38493612
   0.94735306  0.58166227  0.09921420
   0.74931717  0.25567126  0.95078460
unknown system                          
           1
     6.903994   -0.924796    0.240514
    -1.259392    5.254239    0.036974
     1.808112    0.359908    4.819407
   Sr   Nb   H 
   3   1  10
Direct configuration=     4
   0.43006241  0.93550875  0.85648128
   0.46093583  0.42804885  0.33747505
   0.95377902  0.69791012  0.59724248
   0.98396611  0.26021145  0.07205465
   0.55086401  0.54124469  0.78381548
   0.78325858  0.88415908  0.13954512
   0.14747479  0.10331938  0.77415646
   0.17661964  0.50903560  0.21392259
   0.17463957  0.51191821  0.74893278
   0.12833406  0.08972100  0.22876672
   0.74907936  0.24302059  0.43623376
   0.36802292  0.91201363  0.38504228
   0.94763934  0.58255015  0.09910135
   0.74881835  0.25520652  0.95250600
unknown system                          
           1
     6.856372   -0.920728    0.248426
    -1.252124    5.220008    0.036159
     1.801610    0.357861    4.804787
   Sr   Nb   H 
   3   1  10
Direct configuration=     5
   0.42912103  0.93500350  0.85705477
   0.46090646  0.42797486  0.33775924
   0.95441466  0.69712625  0.59697015
   0.98232901  0.25889295  0.07421638
   0.55115775  0.54189836  0.78371384
   0.78489975  0.88689925  0.13878591
   0.14655439  0.10420881  0.77518709
   0.17539309  0.50781175  0.21354642
   0.17375366  0.51127222  0.74972944
   0.12736641  0.09070165  0.22799913
   0.75123689  0.24341286  0.43430647
   0.36800685  0.91228196  0.38503404
   0.94777971  0.58071198  0.09880256
   0.75057436  0.25567162  0.95217057
unknown system                          
           1
     6.850452   -0.920223    0.249409
    -1.251221    5.215753    0.036058
     1.800802    0.357606    4.802970
   Sr   Nb   H 
   3   1  10
Direct configuration=     6
   0.42900312  0.93494021  0.85712651
   0.46090278  0.42796561  0.33779468
   0.95449426  0.69702821  0.59693602
   0.98212399  0.25872788  0.07448632
   0.55119455  0.54198018  0.78370110
   0.78510533  0.88724224  0.13869087
   0.14643914  0.10432005  0.77531584
   0.17523943  0.50765850  0.21349981
   0.17364270  0.51119133  0.74982899
   0.12724520  0.09082425  0.22790368
   0.75150709  0.24346208  0.43406562
   0.36800484  0.91231553  0.38503302
   0.94779726  0.58048198  0.09876525
   0.75079431  0.25572995  0.95212830
unknown system                          
           1
     6.843129   -0.922615    0.258436
    -1.252127    5.212595    0.037318
     1.804927    0.359158    4.812905
   Sr   Nb   H 
   3   1  10
Direct configuration=     7
   0.42824939  0.93482990  0.85762914
   0.46114797  0.42828178  0.33793149
   0.95477192  0.69641015  0.59683095
   0.98349578  0.25872304  0.07251639
   0.55132125  0.54245163  0.78371649
   0.78547171  0.88782456  0.13861821
   0.14561713  0.10458350  0.77592271
   0.17459053  0.50716616  0.21384402
   0.17276426  0.51058068  0.75065247
   0.12658341  0.09087497  0.22799265
   0.75234015  0.24348681  0.43433313
   0.36811014  0.91257749  0.38497310
   0.94744348  0.58017214  0.09897134
   0.75158688  0.25590520  0.95134392
unknown system                          
           1
     6.842028   -0.922975    0.259793
    -1.252263    5.212121    0.037507
     1.805546    0.359391    4.814398
   Sr   Nb   H 
   3   1  10
Direct configuration=     8
   0.42813591  0.93481320  0.85770474
   0.46118489  0.42832935  0.33795191
   0.95481368  0.69631725  0.59681514
   0.98370231  0.25872255  0.07222058
   0.55134035  0.54252254  0.78371874
   0.78552690  0.88791218  0.13860718
   0.14549340  0.10462299  0.77601395
   0.17449282  0.50709203  0.21389585
   0.17263199  0.51048871  0.75077624
   0.12648380  0.09088251  0.22800619
   0.75246555  0.24349063  0.43437299
   0.36812600  0.91261689  0.38496407
   0.94739021  0.58012549  0.09900236
   0.75170621  0.25593167  0.95122606
