 running on   32 total cores
 distrk:  each k-point on   32 cores,    1 groups
 distr:  one band on    8 cores,    4 groups
 using from now: INCAR     
 vasp.5.4.4.18Apr17-6-g9f103f2a35 (build Nov 01 2019 12:17:22) complex          
  
 POSCAR found type information on POSCAR  Nb H  Nb H  Nb H  Sr
 POSCAR found :  7 types and      19 ions

 ----------------------------------------------------------------------------- 
|                                                                             |
|  ADVICE TO THIS USER RUNNING 'VASP/VAMP'   (HEAR YOUR MASTER'S VOICE ...):  |
|                                                                             |
|      You have a (more or less) 'large supercell' and for larger cells       |
|      it might be more efficient to use real space projection opertators     |
|      So try LREAL= Auto  in the INCAR   file.                               |
|      Mind:          For very  accurate calculation you might also keep the  |
|      reciprocal projection scheme          (i.e. LREAL=.FALSE.)             |
|                                                                             |
 ----------------------------------------------------------------------------- 

 LDA part: xc-table for Pade appr. of Perdew
 generate k-points for:   12    7    5
 POSCAR, INCAR and KPOINTS ok, starting setup
 FFT: planning ...
 WAVECAR not read
 entering main loop
       N       E                     dE             d eps       ncg     rms          rms(c)
DAV:   1     0.329647245848E+03    0.32965E+03   -0.19302E+04 17264   0.826E+02
DAV:   2    -0.660851174370E+02   -0.39573E+03   -0.38354E+03 21088   0.383E+02
DAV:   3    -0.891166151211E+02   -0.23031E+02   -0.22743E+02 26776   0.832E+01
DAV:   4    -0.901206673861E+02   -0.10041E+01   -0.10005E+01 29488   0.149E+01
DAV:   5    -0.901470823347E+02   -0.26415E-01   -0.26401E-01 28016   0.220E+00    0.517E+01
DAV:   6    -0.847994901584E+02    0.53476E+01   -0.13200E+01 25464   0.225E+01    0.208E+01
DAV:   7    -0.840778138251E+02    0.72168E+00   -0.42107E+00 25304   0.106E+01    0.797E+00
DAV:   8    -0.839239621175E+02    0.15385E+00   -0.21058E+00 26512   0.956E+00    0.476E+00
DAV:   9    -0.838625503481E+02    0.61412E-01   -0.68001E-01 25128   0.404E+00    0.149E+00
DAV:  10    -0.838641239166E+02   -0.15736E-02   -0.73837E-02 25952   0.163E+00    0.586E-01
DAV:  11    -0.838656119453E+02   -0.14880E-02   -0.18025E-02 27368   0.105E+00    0.249E-01
DAV:  12    -0.838651874190E+02    0.42453E-03   -0.41911E-03 25544   0.563E-01    0.120E-01
DAV:  13    -0.838653289412E+02   -0.14152E-03   -0.38509E-04 18520   0.126E-01    0.613E-02
DAV:  14    -0.838655230940E+02   -0.19415E-03   -0.20725E-04 16608   0.782E-02    0.317E-02
DAV:  15    -0.838655379483E+02   -0.14854E-04   -0.44737E-05 12904   0.562E-02
   1 F= -.83865538E+02 E0= -.83865846E+02  d E =-.838655E+02
 curvature:   0.00 expect dE= 0.000E+00 dE for cont linesearch  0.000E+00
 trial: gam= 0.00000 g(F)=  0.150E-02 g(S)=  0.275E-03 ort = 0.000E+00 (trialstep = 0.100E+01)
 search vector abs. value=  0.178E-02
 bond charge predicted
       N       E                     dE             d eps       ncg     rms          rms(c)
DAV:   1    -0.838661787477E+02   -0.65565E-03   -0.51554E-02 20160   0.148E+00    0.171E-01
DAV:   2    -0.838663655090E+02   -0.18676E-03   -0.53805E-03 21072   0.427E-01    0.859E-02
DAV:   3    -0.838663129045E+02    0.52605E-04   -0.72960E-04 21496   0.190E-01
   2 F= -.83866313E+02 E0= -.83866605E+02  d E =-.774956E-03
 trial-energy change:   -0.000775  1 .order   -0.000853   -0.001777    0.000071
 step:   0.9613(harm=  0.9613)  dis= 0.00272  next Energy=   -83.866392 (dE=-0.854E-03)
 bond charge predicted
       N       E                     dE             d eps       ncg     rms          rms(c)
DAV:   1    -0.838662681213E+02    0.97388E-04   -0.33344E-04 15000   0.134E-01    0.454E-02
DAV:   2    -0.838662687774E+02   -0.65618E-06   -0.74665E-05 11920   0.691E-02
   3 F= -.83866269E+02 E0= -.83866568E+02  d E =-.730829E-03
 curvature:  -0.48 expect dE=-0.147E-02 dE for cont linesearch -0.334E-05
 trial: gam= 1.78631 g(F)=  0.290E-02 g(S)=  0.166E-03 ort =-0.111E-03 (trialstep = 0.212E+00)
 search vector abs. value=  0.834E-02
 reached required accuracy - stopping structural energy minimisation
