unknown system                          
           1
     3.453325    0.107133   -0.431853
     0.736248    6.674291   -0.119946
    -0.896666    0.717780    7.207264
   H    Sr   H    Nb   H    Nb   H    Sr   Nb   H 
   2   1   2   1   4   1   4   1   1   1
Direct configuration=     1
   0.43200878  0.39448355  0.97983697
   0.36168784  0.50077632  0.91359901
   0.97118388  0.03864269  0.25181034
   0.45279860  0.29652676  0.31365446
   0.61012062  0.01213672  0.49647237
   0.59070868  0.28787181  0.58173586
   0.97197773  0.45942402  0.49677086
   0.31718921  0.13674743  0.02684262
   0.16106836  0.23330395  0.69871235
   0.73265327  0.11916591  0.83913025
   0.26285762  0.96932624  0.82722994
   0.37820586  0.81594023  0.06158651
   0.81616898  0.80875175  0.84418073
   0.21530939  0.82812119  0.57882944
   0.58740531  0.75113944  0.32984791
   0.96907070  0.57032019  0.13908282
   0.75386185  0.71437646  0.59494306
   0.71715132  0.48867734  0.75345749
unknown system                          
           1
     3.453764    0.107102   -0.432727
     0.736376    6.673665   -0.119596
    -0.898350    0.718298    7.209483
   H    Sr   H    Nb   H    Nb   H    Sr   Nb   H 
   2   1   2   1   4   1   4   1   1   1
Direct configuration=     2
   0.43167079  0.39483347  0.97961973
   0.36182370  0.50041283  0.91383906
   0.97125414  0.03860274  0.25183581
   0.45337786  0.29666603  0.31360335
   0.60985754  0.01216184  0.49636797
   0.59074689  0.28793156  0.58175115
   0.97212301  0.45954141  0.49684927
   0.31735697  0.13671023  0.02697305
   0.16124918  0.23313015  0.69871470
   0.73268179  0.11913502  0.83918468
   0.26260314  0.96950516  0.82680248
   0.37806748  0.81579959  0.06175201
   0.81615758  0.80871531  0.84427182
   0.21501906  0.82819021  0.57884183
   0.58735936  0.75110827  0.32982632
   0.96894753  0.57022352  0.13909667
   0.75405945  0.71435236  0.59492337
   0.71707253  0.48871230  0.75346975
unknown system                          
           1
     3.453755    0.107103   -0.432709
     0.736373    6.673678   -0.119604
    -0.898314    0.718287    7.209435
   H    Sr   H    Nb   H    Nb   H    Sr   Nb   H 
   2   1   2   1   4   1   4   1   1   1
Direct configuration=     3
   0.43167805  0.39482596  0.97962440
   0.36182078  0.50042063  0.91383390
   0.97125263  0.03860360  0.25183526
   0.45336543  0.29666304  0.31360445
   0.60986318  0.01216130  0.49637021
   0.59074607  0.28793028  0.58175082
   0.97211989  0.45953889  0.49684758
   0.31735337  0.13671103  0.02697025
   0.16124529  0.23313389  0.69871465
   0.73268117  0.11913568  0.83918351
   0.26260861  0.96950132  0.82681166
   0.37807045  0.81580261  0.06174845
   0.81615782  0.80871609  0.84426986
   0.21502530  0.82818873  0.57884157
   0.58736034  0.75110894  0.32982678
   0.96895018  0.57022559  0.13909637
   0.75405521  0.71435288  0.59492379
   0.71707423  0.48871155  0.75346949
