Automatically generated mesh
      42
Reciprocal lattice
    0.00000000000000    0.00000000000000    0.00000000000000             1
    0.20000000000000    0.00000000000000    0.00000000000000             2
    0.40000000000000    0.00000000000000    0.00000000000000             2
    0.00000000000000    0.25000000000000    0.00000000000000             2
    0.20000000000000    0.25000000000000    0.00000000000000             2
    0.40000000000000    0.25000000000000    0.00000000000000             2
   -0.40000000000000    0.25000000000000    0.00000000000000             2
   -0.20000000000000    0.25000000000000    0.00000000000000             2
    0.00000000000000    0.50000000000000    0.00000000000000             1
    0.20000000000000    0.50000000000000    0.00000000000000             2
    0.40000000000000    0.50000000000000    0.00000000000000             2
    0.00000000000000    0.00000000000000    0.25000000000000             2
    0.20000000000000    0.00000000000000    0.25000000000000             2
    0.40000000000000    0.00000000000000    0.25000000000000             2
   -0.40000000000000    0.00000000000000    0.25000000000000             2
   -0.20000000000000    0.00000000000000    0.25000000000000             2
    0.00000000000000    0.25000000000000    0.25000000000000             2
    0.20000000000000    0.25000000000000    0.25000000000000             2
    0.40000000000000    0.25000000000000    0.25000000000000             2
   -0.40000000000000    0.25000000000000    0.25000000000000             2
   -0.20000000000000    0.25000000000000    0.25000000000000             2
    0.00000000000000    0.50000000000000    0.25000000000000             2
    0.20000000000000    0.50000000000000    0.25000000000000             2
    0.40000000000000    0.50000000000000    0.25000000000000             2
   -0.40000000000000    0.50000000000000    0.25000000000000             2
   -0.20000000000000    0.50000000000000    0.25000000000000             2
    0.00000000000000   -0.25000000000000    0.25000000000000             2
    0.20000000000000   -0.25000000000000    0.25000000000000             2
    0.40000000000000   -0.25000000000000    0.25000000000000             2
   -0.40000000000000   -0.25000000000000    0.25000000000000             2
   -0.20000000000000   -0.25000000000000    0.25000000000000             2
    0.00000000000000    0.00000000000000    0.50000000000000             1
    0.20000000000000    0.00000000000000    0.50000000000000             2
    0.40000000000000    0.00000000000000    0.50000000000000             2
    0.00000000000000    0.25000000000000    0.50000000000000             2
    0.20000000000000    0.25000000000000    0.50000000000000             2
    0.40000000000000    0.25000000000000    0.50000000000000             2
   -0.40000000000000    0.25000000000000    0.50000000000000             2
   -0.20000000000000    0.25000000000000    0.50000000000000             2
    0.00000000000000    0.50000000000000    0.50000000000000             1
    0.20000000000000    0.50000000000000    0.50000000000000             2
    0.40000000000000    0.50000000000000    0.50000000000000             2
Tetrahedra
       240    0.00208333333333
         2         1         4         5        18
         2         1         2         5        18
         2         1         2        13        18
         2         1         4        17        18
         2         1        12        17        18
         2         1        12        13        18
         2         2         5         6        19
         2         2         3         6        19
         2         2         3        14        19
         2         2         5        18        19
         2         2        13        18        19
         2         2        13        14        19
         2         3         6         7        20
         2         3         3         7        20
         2         3         3        15        20
         2         3         6        19        20
         2         3        14        19        20
         2         3        14        15        20
         2         3         7         8        21
         2         2         3         8        21
         2         2         3        16        21
         2         3         7        20        21
         2         3        15        20        21
         2         3        15        16        21
         2         2         4         8        17
         2         1         2         4        17
         2         1         2        12        17
         2         2         8        17        21
         2         2        16        17        21
         2         2        12        16        17
         2         4         9        10        23
         2         4         5        10        23
         2         4         5        18        23
         2         4         9        22        23
         2         4        17        22        23
         2         4        17        18        23
         2         5        10        11        24
         2         5         6        11        24
         2         5         6        19        24
         2         5        10        23        24
         2         5        18        23        24
         2         5        18        19        24
         2         6        11        11        25
         2         6         7        11        25
         2         6         7        20        25
         2         6        11        24        25
         2         6        19        24        25
         2         6        19        20        25
         2         7        10        11        26
         2         7         8        10        26
         2         7         8        21        26
         2         7        11        25        26
         2         7        20        25        26
         2         7        20        21        26
         2         8         9        10        22
         2         4         8         9        22
         2         4         8        17        22
         2         8        10        22        26
         2         8        21        22        26
         2         8        17        21        22
         2         4         8         9        28
         2         8         9        10        28
         2         9        10        23        28
         2         4         9        27        28
         2         9        22        27        28
         2         9        22        23        28
         2         7         8        10        29
         2         7        10        11        29
         2        10        11        24        29
         2         8        10        28        29
         2        10        23        28        29
         2        10        23        24        29
         2         6         7        11        30
         2         6        11        11        30
         2        11        11        25        30
         2         7        11        29        30
         2        11        24        29        30
         2        11        24        25        30
         2         5         6        11        31
         2         5        10        11        31
         2        10        11        26        31
         2         6        11        30        31
         2        11        25        30        31
         2        11        25        26        31
         2         4         5        10        27
         2         4         9        10        27
         2         9        10        22        27
         2         5        10        27        31
         2        10        26        27        31
         2        10        22        26        27
         2         1         2         4        13
         2         2         4         8        13
         2         4         8        13        28
         2         1         4        12        13
         2         4        12        13        27
         2         4        13        27        28
         2         2         3         8        14
         2         3         7         8        14
         2         7         8        14        29
         2         2         8        13        14
         2         8        13        14        28
         2         8        14        28        29
         2         3         3         7        15
         2         3         6         7        15
         2         6         7        15        30
         2         3         7        14        15
         2         7        14        15        29
         2         7        15        29        30
         2         2         3         6        16
         2         2         5         6        16
         2         5         6        16        31
         2         3         6        15        16
         2         6        15        16        30
         2         6        16        30        31
         2         1         2         5        12
         2         1         4         5        12
         2         4         5        12        27
         2         2         5        12        16
         2         5        12        16        31
         2         5        12        27        31
         2        12        17        18        36
         2        12        13        18        36
         2        12        13        33        36
         2        12        17        35        36
         2        12        32        35        36
         2        12        32        33        36
         2        13        18        19        37
         2        13        14        19        37
         2        13        14        34        37
         2        13        18        36        37
         2        13        33        36        37
         2        13        33        34        37
         2        14        19        20        38
         2        14        15        20        38
         2        14        15        34        38
         2        14        19        37        38
         2        14        34        37        38
         2        14        34        34        38
         2        15        20        21        39
         2        15        16        21        39
         2        15        16        33        39
         2        15        20        38        39
         2        15        34        38        39
         2        15        33        34        39
         2        16        17        21        35
         2        12        16        17        35
         2        12        16        32        35
         2        16        21        35        39
         2        16        33        35        39
         2        16        32        33        35
         2        17        22        23        41
         2        17        18        23        41
         2        17        18        36        41
         2        17        22        40        41
         2        17        35        40        41
         2        17        35        36        41
         2        18        23        24        42
         2        18        19        24        42
         2        18        19        37        42
         2        18        23        41        42
         2        18        36        41        42
         2        18        36        37        42
         2        19        24        25        42
         2        19        20        25        42
         2        19        20        38        42
         2        19        24        42        42
         2        19        37        42        42
         2        19        37        38        42
         2        20        25        26        41
         2        20        21        26        41
         2        20        21        39        41
         2        20        25        41        42
         2        20        38        41        42
         2        20        38        39        41
         2        21        22        26        40
         2        17        21        22        40
         2        17        21        35        40
         2        21        26        40        41
         2        21        39        40        41
         2        21        35        39        40
         2        22        27        28        39
         2        22        23        28        39
         2        22        23        39        41
         2        22        27        35        39
         2        22        35        39        40
         2        22        39        40        41
         2        23        28        29        38
         2        23        24        29        38
         2        23        24        38        42
         2        23        28        38        39
         2        23        38        39        41
         2        23        38        41        42
         2        24        29        30        37
         2        24        25        30        37
         2        24        25        37        42
         2        24        29        37        38
         2        24        37        38        42
         2        24        37        42        42
         2        25        30        31        36
         2        25        26        31        36
         2        25        26        36        41
         2        25        30        36        37
         2        25        36        37        42
         2        25        36        41        42
         2        26        27        31        35
         2        22        26        27        35
         2        22        26        35        40
         2        26        31        35        36
         2        26        35        36        41
         2        26        35        40        41
         2        12        13        27        33
         2        13        27        28        33
         2        27        28        33        39
         2        12        27        32        33
         2        27        32        33        35
         2        27        33        35        39
         2        13        14        28        34
         2        14        28        29        34
         2        28        29        34        38
         2        13        28        33        34
         2        28        33        34        39
         2        28        34        38        39
         2        14        15        29        34
         2        15        29        30        34
         2        29        30        34        37
         2        14        29        34        34
         2        29        34        34        38
         2        29        34        37        38
         2        15        16        30        33
         2        16        30        31        33
         2        30        31        33        36
         2        15        30        33        34
         2        30        33        34        37
         2        30        33        36        37
         2        12        16        31        32
         2        12        27        31        32
         2        27        31        32        35
         2        16        31        32        33
         2        31        32        33        36
         2        31        32        35        36
