unknown system                          
           1
     6.411905   -0.038080    0.258029
     3.148296    6.083907   -0.070378
     1.562976    2.232571    6.378239
   Sr   H    Sr   H    Sr   H    Nb   H    Sr   H 
   1   9   1   1   2   2   1   1   1   2
Direct configuration=     1
   0.25224330  0.61838536  0.64518821
   0.27839640  0.52508745  0.01286781
   0.97362000  0.06295754  0.50219479
   0.14098635  0.00358122  0.75462070
   0.51663789  0.80777528  0.39793977
   0.89205542  0.66689832  0.88595524
   0.05443762  0.29758151  0.83559459
   0.67311408  0.49649298  0.75308746
   0.93704506  0.58502838  0.52982170
   0.63907541  0.34382588  0.53828800
   0.26305738  0.14596642  0.17434118
   0.22311943  0.77990414  0.26785542
   0.90862174  0.81720424  0.12654303
   0.59586997  0.51557027  0.13355696
   0.92178341  0.41924509  0.32885408
   0.63077928  0.13295225  0.25127123
   0.92488277  0.29324693  0.62056445
   0.75676456  0.14348665  0.83243666
   0.61301990  0.94884546  0.62869972
   0.23372884  0.26862784  0.49489404
   0.52911320  0.90969981  0.98476196
unknown system                          
           1
     6.408084   -0.039281    0.258790
     3.145244    6.081677   -0.070043
     1.562553    2.231487    6.373845
   Sr   H    Sr   H    Sr   H    Nb   H    Sr   H 
   1   9   1   1   2   2   1   1   1   2
Direct configuration=     2
   0.25226263  0.61840896  0.64514559
   0.27849666  0.52511177  0.01284756
   0.97361185  0.06324893  0.50223697
   0.14065497  0.00386037  0.75451206
   0.51663919  0.80778077  0.39798800
   0.89212532  0.66686545  0.88597873
   0.05407754  0.29741897  0.83587521
   0.67297256  0.49648221  0.75312729
   0.93692211  0.58515945  0.53001565
   0.63922053  0.34396598  0.53813769
   0.26314448  0.14591783  0.17447493
   0.22316668  0.77991530  0.26787103
   0.90868283  0.81725039  0.12648467
   0.59588129  0.51562828  0.13354819
   0.92183402  0.41933599  0.32903939
   0.63078312  0.13293453  0.25128904
   0.92531364  0.29226925  0.62017638
   0.75685538  0.14343583  0.83206354
   0.61312922  0.94883655  0.62867602
   0.23355330  0.26874487  0.49512275
   0.52902468  0.90979132  0.98472630
unknown system                          
           1
     6.408342   -0.039200    0.258738
     3.145450    6.081827   -0.070066
     1.562581    2.231560    6.374142
   Sr   H    Sr   H    Sr   H    Nb   H    Sr   H 
   1   9   1   1   2   2   1   1   1   2
Direct configuration=     3
   0.25226133  0.61840737  0.64514847
   0.27848989  0.52511013  0.01284893
   0.97361239  0.06322927  0.50223412
   0.14067733  0.00384154  0.75451939
   0.51663910  0.80778040  0.39798475
   0.89212060  0.66686767  0.88597715
   0.05410185  0.29742994  0.83585626
   0.67298211  0.49648294  0.75312460
   0.93693040  0.58515061  0.53000256
   0.63921073  0.34395652  0.53814784
   0.26313860  0.14592111  0.17446590
   0.22316349  0.77991455  0.26786998
   0.90867871  0.81724728  0.12648861
   0.59588052  0.51562437  0.13354878
   0.92183060  0.41932986  0.32902688
   0.63078286  0.13293572  0.25128784
   0.92528458  0.29233521  0.62020257
   0.75684926  0.14343925  0.83208873
   0.61312184  0.94883714  0.62867762
   0.23356515  0.26873697  0.49510731
   0.52903065  0.90978514  0.98472871
unknown system                          
           1
     6.404476   -0.040944    0.259915
     3.141859    6.079822   -0.069725
     1.562361    2.230325    6.370023
   Sr   H    Sr   H    Sr   H    Nb   H    Sr   H 
   1   9   1   1   2   2   1   1   1   2
Direct configuration=     4
   0.25232253  0.61837709  0.64510500
   0.27862878  0.52515994  0.01282151
   0.97368310  0.06335025  0.50211857
   0.14039007  0.00392859  0.75444396
   0.51664779  0.80778340  0.39804811
   0.89222312  0.66680459  0.88601034
   0.05352243  0.29709710  0.83622187
   0.67297061  0.49623130  0.75305958
   0.93676405  0.58510469  0.53031277
   0.63939046  0.34411102  0.53786009
   0.26328845  0.14586250  0.17461122
   0.22323093  0.77994157  0.26789260
   0.90877646  0.81734762  0.12639656
   0.59594183  0.51569749  0.13353171
   0.92194703  0.41947164  0.32909963
   0.63079488  0.13291989  0.25129773
   0.92520598  0.29245974  0.62022255
   0.75691380  0.14316298  0.83160351
   0.61329586  0.94880149  0.62864968
   0.23352207  0.26882288  0.49535437
   0.52889178  0.90992724  0.98467564
unknown system                          
           1
     6.394169   -0.045593    0.263053
     3.132284    6.074475   -0.068817
     1.561773    2.227033    6.359041
   Sr   H    Sr   H    Sr   H    Nb   H    Sr   H 
   1   9   1   1   2   2   1   1   1   2
Direct configuration=     5
   0.25248577  0.61829642  0.64498901
   0.27899931  0.52529294  0.01274827
   0.97387189  0.06367300  0.50181023
   0.13962393  0.00416049  0.75424286
   0.51667094  0.80779139  0.39821714
   0.89249653  0.66663644  0.88609883
   0.05197641  0.29620875  0.83719767
   0.67293969  0.49556013  0.75288617
   0.93632016  0.58498201  0.53114050
   0.63987012  0.34452329  0.53709228
   0.26368807  0.14570632  0.17499883
   0.22341082  0.78001369  0.26795290
   0.90903733  0.81761535  0.12615093
   0.59610543  0.51589258  0.13348612
   0.92225774  0.41984990  0.32929362
   0.63082690  0.13287767  0.25132412
   0.92499642  0.29279181  0.62027585
   0.75708581  0.14242622  0.83030902
   0.61376000  0.94870655  0.62857505
   0.23340720  0.26905194  0.49601350
   0.52852152  0.91030611  0.98453411
unknown system                          
           1
     6.393591   -0.046678    0.264085
     3.130946    6.074734   -0.068457
     1.562289    2.226892    6.358811
   Sr   H    Sr   H    Sr   H    Nb   H    Sr   H 
   1   9   1   1   2   2   1   1   1   2
Direct configuration=     6
   0.25255609  0.61820097  0.64497715
   0.27909862  0.52535836  0.01272195
   0.97393895  0.06371304  0.50163110
   0.13946170  0.00411308  0.75423276
   0.51670762  0.80777353  0.39826521
   0.89257070  0.66658045  0.88612367
   0.05149048  0.29591913  0.83771686
   0.67280575  0.49538604  0.75292276
   0.93619285  0.58509231  0.53137129
   0.63991675  0.34467601  0.53679828
   0.26375066  0.14574358  0.17505983
   0.22347565  0.78003822  0.26797242
   0.90913803  0.81777043  0.12606919
   0.59623145  0.51589352  0.13349401
   0.92240988  0.42005407  0.32917328
   0.63085236  0.13288741  0.25130353
   0.92490194  0.29286866  0.62025432
   0.75696608  0.14204076  0.83004153
   0.61390433  0.94869090  0.62855458
   0.23356503  0.26914680  0.49617142
   0.52841709  0.91041573  0.98448185
unknown system                          
           1
     6.391855   -0.049933    0.267181
     3.126931    6.075511   -0.067376
     1.563836    2.226471    6.358122
   Sr   H    Sr   H    Sr   H    Nb   H    Sr   H 
   1   9   1   1   2   2   1   1   1   2
Direct configuration=     7
   0.25276698  0.61791467  0.64494155
   0.27939659  0.52555468  0.01264294
   0.97414022  0.06383320  0.50109365
   0.13897496  0.00397075  0.75420254
   0.51681762  0.80771998  0.39840942
   0.89279317  0.66641254  0.88619815
   0.05003232  0.29504995  0.83927479
   0.67240381  0.49486372  0.75303266
   0.93581094  0.58542313  0.53206373
   0.64005683  0.34513418  0.53591617
   0.26393846  0.14585541  0.17524280
   0.22367014  0.78011184  0.26803094
   0.90944025  0.81823574  0.12582390
   0.59660951  0.51589643  0.13351762
   0.92286646  0.42066669  0.32881216
   0.63092874  0.13291666  0.25124174
   0.92461854  0.29309913  0.62018977
   0.75660670  0.14088430  0.82923916
   0.61433733  0.94864404  0.62849310
   0.23403855  0.26943149  0.49664511
   0.52810388  0.91074450  0.98432512
unknown system                          
           1
     6.388384   -0.056443    0.273374
     3.118902    6.077064   -0.065215
     1.566929    2.225627    6.356742
   Sr   H    Sr   H    Sr   H    Nb   H    Sr   H 
   1   9   1   1   2   2   1   1   1   2
Direct configuration=     8
   0.25318840  0.61734240  0.64487026
   0.27999287  0.52594772  0.01248453
   0.97454324  0.06407375  0.50001837
   0.13800127  0.00368541  0.75414261
   0.51703748  0.80761305  0.39869780
   0.89323785  0.66607704  0.88634698
   0.04711377  0.29330967  0.84239278
   0.67159910  0.49381855  0.75325306
   0.93504715  0.58608421  0.53344901
   0.64033815  0.34605064  0.53415142
   0.26431412  0.14607932  0.17560855
   0.22405922  0.78025934  0.26814780
   0.91004551  0.81916672  0.12533277
   0.59736564  0.51590277  0.13356447
   0.92378074  0.42189249  0.32808915
   0.63108160  0.13297527  0.25111806
   0.92405208  0.29355965  0.62006082
   0.75588673  0.13857095  0.82763504
   0.61520332  0.94855094  0.62836973
   0.23498576  0.27000153  0.49759203
   0.52747800  0.91140156  0.98401178
unknown system                          
           1
     6.391326   -0.056288    0.274067
     3.120470    6.079249   -0.064579
     1.568253    2.226856    6.360292
   Sr   H    Sr   H    Sr   H    Nb   H    Sr   H 
   1   9   1   1   2   2   1   1   1   2
Direct configuration=     9
   0.25328211  0.61713952  0.64488994
   0.28009486  0.52609464  0.01243600
   0.97457475  0.06426194  0.49973256
   0.13768450  0.00375713  0.75403273
   0.51711374  0.80760184  0.39874007
   0.89330478  0.66605396  0.88639404
   0.04628042  0.29292408  0.84325982
   0.67126878  0.49356976  0.75342585
   0.93487588  0.58635373  0.53375510
   0.64037137  0.34626378  0.53372380
   0.26443933  0.14614742  0.17566178
   0.22417114  0.78027579  0.26819049
   0.91023275  0.81946884  0.12515892
   0.59757707  0.51588260  0.13357886
   0.92410172  0.42221664  0.32788663
   0.63114720  0.13304148  0.25103146
   0.92431813  0.29292186  0.62011747
   0.75560024  0.13811226  0.82715328
   0.61538777  0.94853052  0.62835841
   0.23516891  0.27024748  0.49786264
   0.52735656  0.91149775  0.98394714
unknown system                          
           1
     6.396820   -0.055998    0.275360
     3.123400    6.083331   -0.063390
     1.570726    2.229152    6.366921
   Sr   H    Sr   H    Sr   H    Nb   H    Sr   H 
   1   9   1   1   2   2   1   1   1   2
Direct configuration=    10
   0.25345708  0.61676072  0.64492671
   0.28028524  0.52636895  0.01234537
   0.97463358  0.06461329  0.49919902
   0.13709316  0.00389104  0.75382767
   0.51725611  0.80758090  0.39881898
   0.89342972  0.66601086  0.88648188
   0.04472463  0.29220414  0.84487848
   0.67065213  0.49310525  0.75374850
   0.93455607  0.58685694  0.53432642
   0.64043344  0.34666172  0.53292556
   0.26467306  0.14627455  0.17576109
   0.22438005  0.78030649  0.26827016
   0.91058228  0.82003292  0.12483432
   0.59797177  0.51584492  0.13360567
   0.92470093  0.42282187  0.32750849
   0.63126967  0.13316511  0.25086977
   0.92481486  0.29173107  0.62022329
   0.75506552  0.13725586  0.82625414
   0.61573210  0.94849240  0.62833725
   0.23551076  0.27070667  0.49836771
   0.52712986  0.91167734  0.98382650
unknown system                          
           1
     6.401524   -0.054873    0.275285
     3.126763    6.085545   -0.062830
     1.572001    2.230814    6.371828
   Sr   H    Sr   H    Sr   H    Nb   H    Sr   H 
   1   9   1   1   2   2   1   1   1   2
Direct configuration=    11
   0.25355802  0.61649793  0.64497091
   0.28036704  0.52657192  0.01228146
   0.97466109  0.06481289  0.49885315
   0.13685642  0.00383908  0.75370246
   0.51733870  0.80760237  0.39884603
   0.89347181  0.66604484  0.88655458
   0.04366801  0.29174336  0.84580468
   0.67042497  0.49260469  0.75392022
   0.93440016  0.58688842  0.53471213
   0.64061255  0.34679293  0.53251072
   0.26489632  0.14631928  0.17581360
   0.22451325  0.78030368  0.26833829
   0.91081947  0.82038736  0.12458019
   0.59821808  0.51583582  0.13360728
   0.92516249  0.42305606  0.32745536
   0.63136389  0.13328445  0.25073345
   0.92468658  0.29181849  0.62021434
   0.75475503  0.13681529  0.82559815
   0.61591390  0.94844280  0.62833476
   0.23564023  0.27098112  0.49874401
   0.52702400  0.91172021  0.98376122
unknown system                          
           1
     6.411222   -0.052554    0.275128
     3.133696    6.090108   -0.061675
     1.574629    2.234241    6.381942
   Sr   H    Sr   H    Sr   H    Nb   H    Sr   H 
   1   9   1   1   2   2   1   1   1   2
Direct configuration=    12
   0.25376613  0.61595642  0.64506200
   0.28053538  0.52699013  0.01214979
   0.97471764  0.06522417  0.49814076
   0.13636881  0.00373211  0.75344456
   0.51750880  0.80764659  0.39890174
   0.89355847  0.66611484  0.88670431
   0.04149178  0.29079436  0.84771229
   0.66995740  0.49157338  0.75427398
   0.93407896  0.58695333  0.53550654
   0.64098143  0.34706320  0.53165628
   0.26535617  0.14641136  0.17592176
   0.22478762  0.78029786  0.26847863
   0.91130783  0.82111759  0.12405674
   0.59872547  0.51581698  0.13361062
   0.92611309  0.42353842  0.32734593
   0.63155790  0.13353030  0.25045267
   0.92442228  0.29199869  0.62019590
   0.75411579  0.13590758  0.82424707
   0.61628843  0.94834053  0.62832964
   0.23590671  0.27154657  0.49951903
   0.52680592  0.91180860  0.98362676
unknown system                          
           1
     6.410868   -0.051824    0.273974
     3.134207    6.087634   -0.061683
     1.573711    2.233915    6.380428
   Sr   H    Sr   H    Sr   H    Nb   H    Sr   H 
   1   9   1   1   2   2   1   1   1   2
Direct configuration=    13
   0.25379379  0.61592283  0.64504796
   0.28056313  0.52709451  0.01210849
   0.97470825  0.06539640  0.49805046
   0.13639704  0.00361967  0.75333687
   0.51751324  0.80771190  0.39891330
   0.89355437  0.66620403  0.88676724
   0.04087071  0.29057166  0.84790140
   0.67006961  0.49112479  0.75427463
   0.93403799  0.58659124  0.53573478
   0.64131104  0.34700073  0.53159068
   0.26554430  0.14636315  0.17602892
   0.22484480  0.78025837  0.26853852
   0.91143036  0.82122886  0.12385280
   0.59882009  0.51585789  0.13358843
   0.92638085  0.42344285  0.32765636
   0.63160715  0.13361979  0.25038496
   0.92392217  0.29268169  0.62013945
   0.75419199  0.13599221  0.82367841
   0.61631119  0.94829468  0.62829398
   0.23567094  0.27163494  0.49985974
   0.52680900  0.91175081  0.98358961
unknown system                          
           1
     6.410316   -0.050685    0.272175
     3.135005    6.083775   -0.061695
     1.572278    2.233406    6.378067
   Sr   H    Sr   H    Sr   H    Nb   H    Sr   H 
   1   9   1   1   2   2   1   1   1   2
Direct configuration=    14
   0.25383695  0.61587043  0.64502607
   0.28060635  0.52725737  0.01204407
   0.97469352  0.06566510  0.49790960
   0.13644112  0.00344424  0.75316888
   0.51752014  0.80781379  0.39893133
   0.89354793  0.66634317  0.88686541
   0.03990215  0.29022439  0.84819621
   0.67024481  0.49042490  0.75427567
   0.93397429  0.58602631  0.53609078
   0.64182514  0.34690317  0.53148844
   0.26583775  0.14628787  0.17619613
   0.22493400  0.78019675  0.26863195
   0.91162138  0.82140243  0.12353472
   0.59896767  0.51592168  0.13355385
   0.92679858  0.42329365  0.32814067
   0.63168391  0.13375941  0.25027937
   0.92314184  0.29374742  0.62005127
   0.75431071  0.13612425  0.82279139
   0.61634671  0.94822315  0.62823835
   0.23530323  0.27177287  0.50039115
   0.52681382  0.91166066  0.98353167
unknown system                          
           1
     6.406701   -0.050445    0.271139
     3.133441    6.079970   -0.061608
     1.570625    2.232503    6.373637
   Sr   H    Sr   H    Sr   H    Nb   H    Sr   H 
   1   9   1   1   2   2   1   1   1   2
Direct configuration=    15
   0.25381346  0.61595419  0.64498443
   0.28062845  0.52727303  0.01202719
   0.97457868  0.06594661  0.49794960
   0.13633494  0.00367581  0.75298649
   0.51751928  0.80782823  0.39895885
   0.89355057  0.66639412  0.88687390
   0.03962937  0.29025209  0.84826832
   0.66991191  0.49060886  0.75444905
   0.93390908  0.58625881  0.53607174
   0.64173467  0.34699849  0.53143891
   0.26580389  0.14634107  0.17628181
   0.22494747  0.78014924  0.26867011
   0.91167259  0.82147774  0.12339301
   0.59906666  0.51591975  0.13354349
   0.92682282  0.42339341  0.32815132
   0.63168155  0.13378811  0.25027974
   0.92430105  0.29197541  0.62014396
   0.75433405  0.13639220  0.82256546
   0.61629926  0.94822491  0.62817827
   0.23496259  0.27188292  0.50062061
   0.52684964  0.91162803  0.98350073
unknown system                          
           1
     6.407478   -0.050497    0.271361
     3.133777    6.080787   -0.061626
     1.570980    2.232697    6.374588
   Sr   H    Sr   H    Sr   H    Nb   H    Sr   H 
   1   9   1   1   2   2   1   1   1   2
Direct configuration=    16
   0.25381851  0.61593618  0.64499338
   0.28062370  0.52726966  0.01203082
   0.97460337  0.06588609  0.49794101
   0.13635777  0.00362603  0.75302571
   0.51751946  0.80782512  0.39895294
   0.89355001  0.66638317  0.88687207
   0.03968801  0.29024613  0.84825283
   0.66998346  0.49056931  0.75441179
   0.93392310  0.58620883  0.53607584
   0.64175412  0.34697799  0.53144956
   0.26581117  0.14632964  0.17626340
   0.22494457  0.78015945  0.26866191
   0.91166159  0.82146155  0.12342347
   0.59904538  0.51592017  0.13354571
   0.92681761  0.42337196  0.32814903
   0.63168206  0.13378194  0.25027966
   0.92405185  0.29235634  0.62012400
   0.75432904  0.13633460  0.82261403
   0.61630946  0.94822453  0.62819119
   0.23503581  0.27185926  0.50057129
   0.52684194  0.91163504  0.98350738
