  12  12   1   0
  0.1155217E+02  0.4113631E-09  0.5831110E-09  0.5783576E-09  0.5000000E-15
  1.000000000000000E-004
  CAR 
 unknown system                          
      9.61630129    -36.16308105  301     -0.11181745      1.00000000
    -36.163  0.0000E+00  0.0000E+00  0.0000E+00  0.0000E+00
    -36.010  0.0000E+00  0.0000E+00  0.0000E+00  0.0000E+00
    -35.858  0.0000E+00  0.0000E+00  0.0000E+00  0.0000E+00
    -35.705  0.0000E+00  0.0000E+00  0.0000E+00  0.0000E+00
    -35.553  0.0000E+00  0.0000E+00  0.0000E+00  0.0000E+00
    -35.400  0.0000E+00  0.0000E+00  0.0000E+00  0.0000E+00
    -35.247  0.0000E+00  0.0000E+00  0.0000E+00  0.0000E+00
    -35.095  0.0000E+00  0.0000E+00  0.0000E+00  0.0000E+00
    -34.942  0.0000E+00  0.0000E+00  0.0000E+00  0.0000E+00
    -34.790  0.0000E+00  0.0000E+00  0.0000E+00  0.0000E+00
    -34.637  0.0000E+00  0.0000E+00  0.0000E+00  0.0000E+00
    -34.485  0.0000E+00  0.0000E+00  0.0000E+00  0.0000E+00
    -34.332  0.0000E+00  0.0000E+00  0.0000E+00  0.0000E+00
    -34.179  0.0000E+00  0.0000E+00  0.0000E+00  0.0000E+00
    -34.027  0.0000E+00  0.0000E+00  0.1010E-01  0.1010E-01
    -33.874  0.0000E+00  0.0000E+00  0.2020E-01  0.2020E-01
    -33.722  0.0000E+00  0.0000E+00  0.2020E-01  0.2020E-01
    -33.569  0.0000E+00  0.0000E+00  0.2020E-01  0.2020E-01
    -33.416  0.0000E+00  0.0000E+00  0.2020E-01  0.2020E-01
    -33.264  0.0000E+00  0.0000E+00  0.2020E-01  0.2020E-01
    -33.111  0.0000E+00  0.0000E+00  0.2020E-01  0.2020E-01
    -32.959  0.0000E+00  0.0000E+00  0.2020E-01  0.2020E-01
    -32.806  0.0000E+00  0.0000E+00  0.2020E-01  0.2020E-01
    -32.653  0.0000E+00  0.0000E+00  0.2020E-01  0.2020E-01
    -32.501  0.0000E+00  0.0000E+00  0.2020E-01  0.2020E-01
    -32.348  0.0000E+00  0.0000E+00  0.2020E-01  0.2020E-01
    -32.196  0.0000E+00  0.0000E+00  0.2020E-01  0.2020E-01
    -32.043  0.0000E+00  0.0000E+00  0.2020E-01  0.2020E-01
    -31.890  0.0000E+00  0.0000E+00  0.2020E-01  0.2020E-01
    -31.738  0.0000E+00  0.0000E+00  0.2020E-01  0.2020E-01
    -31.585  0.0000E+00  0.0000E+00  0.2020E-01  0.2020E-01
    -31.433  0.0000E+00  0.0000E+00  0.2020E-01  0.2020E-01
    -31.280  0.0000E+00  0.0000E+00  0.2020E-01  0.2020E-01
    -31.127  0.0000E+00  0.0000E+00  0.2020E-01  0.2020E-01
    -30.975  0.0000E+00  0.0000E+00  0.2020E-01  0.2020E-01
    -30.822  0.0000E+00  0.0000E+00  0.2020E-01  0.2020E-01
    -30.670  0.0000E+00  0.0000E+00  0.2020E-01  0.2020E-01
    -30.517  0.0000E+00  0.0000E+00  0.2020E-01  0.2020E-01
    -30.364  0.0000E+00  0.0000E+00  0.2020E-01  0.2020E-01
    -30.212  0.0000E+00  0.0000E+00  0.2020E-01  0.2020E-01
    -30.059  0.2930E+00  0.2930E+00  0.2321E-01  0.2321E-01
    -29.907  0.0000E+00  0.0000E+00  0.4040E-01  0.4040E-01
    -29.754  0.0000E+00  0.0000E+00  0.5051E-01  0.5051E-01
    -29.601  0.0000E+00  0.0000E+00  0.5051E-01  0.5051E-01
    -29.449  0.0000E+00  0.0000E+00  0.5051E-01  0.5051E-01
    -29.296  0.0000E+00  0.0000E+00  0.5051E-01  0.5051E-01
    -29.144  0.0000E+00  0.0000E+00  0.5051E-01  0.5051E-01
    -28.991  0.0000E+00  0.0000E+00  0.5051E-01  0.5051E-01
    -28.838  0.0000E+00  0.0000E+00  0.5051E-01  0.5051E-01
    -28.686  0.0000E+00  0.0000E+00  0.5051E-01  0.5051E-01
    -28.533  0.0000E+00  0.0000E+00  0.5051E-01  0.5051E-01
    -28.381  0.0000E+00  0.0000E+00  0.5051E-01  0.5051E-01
    -28.228  0.0000E+00  0.0000E+00  0.5051E-01  0.5051E-01
    -28.075  0.0000E+00  0.0000E+00  0.5051E-01  0.5051E-01
    -27.923  0.0000E+00  0.0000E+00  0.5051E-01  0.5051E-01
    -27.770  0.0000E+00  0.0000E+00  0.5051E-01  0.5051E-01
    -27.618  0.0000E+00  0.0000E+00  0.5051E-01  0.5051E-01
    -27.465  0.0000E+00  0.0000E+00  0.5051E-01  0.5051E-01
    -27.312  0.0000E+00  0.0000E+00  0.5051E-01  0.5051E-01
    -27.160  0.0000E+00  0.0000E+00  0.5051E-01  0.5051E-01
    -27.007  0.0000E+00  0.0000E+00  0.5051E-01  0.5051E-01
    -26.855  0.0000E+00  0.0000E+00  0.5051E-01  0.5051E-01
    -26.702  0.0000E+00  0.0000E+00  0.5051E-01  0.5051E-01
    -26.549  0.0000E+00  0.0000E+00  0.5051E-01  0.5051E-01
    -26.397  0.0000E+00  0.0000E+00  0.5051E-01  0.5051E-01
    -26.244  0.0000E+00  0.0000E+00  0.5051E-01  0.5051E-01
    -26.092  0.0000E+00  0.0000E+00  0.5051E-01  0.5051E-01
    -25.939  0.0000E+00  0.0000E+00  0.5051E-01  0.5051E-01
    -25.786  0.0000E+00  0.0000E+00  0.5051E-01  0.5051E-01
    -25.634  0.0000E+00  0.0000E+00  0.5051E-01  0.5051E-01
    -25.481  0.0000E+00  0.0000E+00  0.5051E-01  0.5051E-01
    -25.329  0.0000E+00  0.0000E+00  0.5051E-01  0.5051E-01
    -25.176  0.0000E+00  0.0000E+00  0.5051E-01  0.5051E-01
    -25.023  0.0000E+00  0.0000E+00  0.5051E-01  0.5051E-01
    -24.871  0.0000E+00  0.0000E+00  0.5051E-01  0.5051E-01
    -24.718  0.0000E+00  0.0000E+00  0.5051E-01  0.5051E-01
    -24.566  0.0000E+00  0.0000E+00  0.5051E-01  0.5051E-01
    -24.413  0.0000E+00  0.0000E+00  0.5051E-01  0.5051E-01
    -24.260  0.0000E+00  0.0000E+00  0.5051E-01  0.5051E-01
    -24.108  0.0000E+00  0.0000E+00  0.5051E-01  0.5051E-01
    -23.955  0.0000E+00  0.0000E+00  0.5051E-01  0.5051E-01
    -23.803  0.0000E+00  0.0000E+00  0.5051E-01  0.5051E-01
    -23.650  0.0000E+00  0.0000E+00  0.5051E-01  0.5051E-01
    -23.497  0.0000E+00  0.0000E+00  0.5051E-01  0.5051E-01
    -23.345  0.0000E+00  0.0000E+00  0.5051E-01  0.5051E-01
    -23.192  0.0000E+00  0.0000E+00  0.5051E-01  0.5051E-01
    -23.040  0.0000E+00  0.0000E+00  0.5051E-01  0.5051E-01
    -22.887  0.0000E+00  0.0000E+00  0.5051E-01  0.5051E-01
    -22.734  0.0000E+00  0.0000E+00  0.5051E-01  0.5051E-01
    -22.582  0.0000E+00  0.0000E+00  0.5051E-01  0.5051E-01
    -22.429  0.0000E+00  0.0000E+00  0.5051E-01  0.5051E-01
    -22.277  0.0000E+00  0.0000E+00  0.5051E-01  0.5051E-01
    -22.124  0.0000E+00  0.0000E+00  0.5051E-01  0.5051E-01
    -21.971  0.0000E+00  0.0000E+00  0.5051E-01  0.5051E-01
    -21.819  0.0000E+00  0.0000E+00  0.5051E-01  0.5051E-01
    -21.666  0.0000E+00  0.0000E+00  0.5051E-01  0.5051E-01
    -21.514  0.0000E+00  0.0000E+00  0.5051E-01  0.5051E-01
    -21.361  0.0000E+00  0.0000E+00  0.5051E-01  0.5051E-01
    -21.208  0.0000E+00  0.0000E+00  0.5051E-01  0.5051E-01
    -21.056  0.0000E+00  0.0000E+00  0.5051E-01  0.5051E-01
    -20.903  0.0000E+00  0.0000E+00  0.5051E-01  0.5051E-01
    -20.751  0.0000E+00  0.0000E+00  0.5051E-01  0.5051E-01
    -20.598  0.0000E+00  0.0000E+00  0.5051E-01  0.5051E-01
    -20.445  0.0000E+00  0.0000E+00  0.5051E-01  0.5051E-01
    -20.293  0.0000E+00  0.0000E+00  0.5051E-01  0.5051E-01
    -20.140  0.0000E+00  0.0000E+00  0.5051E-01  0.5051E-01
    -19.988  0.0000E+00  0.0000E+00  0.5051E-01  0.5051E-01
    -19.835  0.0000E+00  0.0000E+00  0.5051E-01  0.5051E-01
    -19.683  0.0000E+00  0.0000E+00  0.5051E-01  0.5051E-01
    -19.530  0.0000E+00  0.0000E+00  0.5051E-01  0.5051E-01
    -19.377  0.0000E+00  0.0000E+00  0.5051E-01  0.5051E-01
    -19.225  0.0000E+00  0.0000E+00  0.5051E-01  0.5051E-01
    -19.072  0.0000E+00  0.0000E+00  0.5051E-01  0.5051E-01
    -18.920  0.0000E+00  0.0000E+00  0.5051E-01  0.5051E-01
    -18.767  0.0000E+00  0.0000E+00  0.5051E-01  0.5051E-01
    -18.614  0.0000E+00  0.0000E+00  0.5051E-01  0.5051E-01
    -18.462  0.0000E+00  0.0000E+00  0.5051E-01  0.5051E-01
    -18.309  0.0000E+00  0.0000E+00  0.5051E-01  0.5051E-01
    -18.157  0.0000E+00  0.0000E+00  0.5051E-01  0.5051E-01
    -18.004  0.0000E+00  0.0000E+00  0.5051E-01  0.5051E-01
    -17.851  0.0000E+00  0.0000E+00  0.5051E-01  0.5051E-01
    -17.699  0.0000E+00  0.0000E+00  0.5051E-01  0.5051E-01
    -17.546  0.0000E+00  0.0000E+00  0.5051E-01  0.5051E-01
    -17.394  0.0000E+00  0.0000E+00  0.5051E-01  0.5051E-01
    -17.241  0.0000E+00  0.0000E+00  0.5051E-01  0.5051E-01
    -17.088  0.0000E+00  0.0000E+00  0.5051E-01  0.5051E-01
    -16.936  0.0000E+00  0.0000E+00  0.5051E-01  0.5051E-01
    -16.783  0.0000E+00  0.0000E+00  0.5051E-01  0.5051E-01
    -16.631  0.0000E+00  0.0000E+00  0.5051E-01  0.5051E-01
    -16.478  0.0000E+00  0.0000E+00  0.5051E-01  0.5051E-01
    -16.325  0.0000E+00  0.0000E+00  0.5051E-01  0.5051E-01
    -16.173  0.2377E+00  0.2377E+00  0.6306E-01  0.6306E-01
    -16.020  0.1650E+00  0.1650E+00  0.9972E-01  0.9972E-01
    -15.868  0.0000E+00  0.0000E+00  0.1111E+00  0.1111E+00
    -15.715  0.0000E+00  0.0000E+00  0.1111E+00  0.1111E+00
    -15.562  0.0000E+00  0.0000E+00  0.1111E+00  0.1111E+00
    -15.410  0.0000E+00  0.0000E+00  0.1111E+00  0.1111E+00
    -15.257  0.0000E+00  0.0000E+00  0.1111E+00  0.1111E+00
    -15.105  0.0000E+00  0.0000E+00  0.1111E+00  0.1111E+00
    -14.952  0.0000E+00  0.0000E+00  0.1111E+00  0.1111E+00
    -14.799  0.0000E+00  0.0000E+00  0.1111E+00  0.1111E+00
    -14.647  0.0000E+00  0.0000E+00  0.1111E+00  0.1111E+00
    -14.494  0.0000E+00  0.0000E+00  0.1111E+00  0.1111E+00
    -14.342  0.0000E+00  0.0000E+00  0.1111E+00  0.1111E+00
    -14.189  0.0000E+00  0.0000E+00  0.1111E+00  0.1111E+00
    -14.036  0.0000E+00  0.0000E+00  0.1111E+00  0.1111E+00
    -13.884  0.0000E+00  0.0000E+00  0.1111E+00  0.1111E+00
    -13.731  0.0000E+00  0.0000E+00  0.1111E+00  0.1111E+00
    -13.579  0.0000E+00  0.0000E+00  0.1111E+00  0.1111E+00
    -13.426  0.0000E+00  0.0000E+00  0.1111E+00  0.1111E+00
    -13.273  0.0000E+00  0.0000E+00  0.1111E+00  0.1111E+00
    -13.121  0.0000E+00  0.0000E+00  0.1111E+00  0.1111E+00
    -12.968  0.0000E+00  0.0000E+00  0.1111E+00  0.1111E+00
    -12.816  0.0000E+00  0.0000E+00  0.1111E+00  0.1111E+00
    -12.663  0.0000E+00  0.0000E+00  0.1111E+00  0.1111E+00
    -12.510  0.0000E+00  0.0000E+00  0.1111E+00  0.1111E+00
    -12.358  0.0000E+00  0.0000E+00  0.1111E+00  0.1111E+00
    -12.205  0.0000E+00  0.0000E+00  0.1111E+00  0.1111E+00
    -12.053  0.0000E+00  0.0000E+00  0.1111E+00  0.1111E+00
    -11.900  0.0000E+00  0.0000E+00  0.1111E+00  0.1111E+00
    -11.747  0.0000E+00  0.0000E+00  0.1111E+00  0.1111E+00
    -11.595  0.0000E+00  0.0000E+00  0.1111E+00  0.1111E+00
    -11.442  0.0000E+00  0.0000E+00  0.1111E+00  0.1111E+00
    -11.290  0.0000E+00  0.0000E+00  0.1111E+00  0.1111E+00
    -11.137  0.0000E+00  0.0000E+00  0.1111E+00  0.1111E+00
    -10.984  0.0000E+00  0.0000E+00  0.1111E+00  0.1111E+00
    -10.832  0.0000E+00  0.0000E+00  0.1111E+00  0.1111E+00
    -10.679  0.0000E+00  0.0000E+00  0.1111E+00  0.1111E+00
    -10.527  0.0000E+00  0.0000E+00  0.1111E+00  0.1111E+00
    -10.374  0.0000E+00  0.0000E+00  0.1111E+00  0.1111E+00
    -10.221  0.0000E+00  0.0000E+00  0.1111E+00  0.1111E+00
    -10.069  0.0000E+00  0.0000E+00  0.1111E+00  0.1111E+00
     -9.916  0.0000E+00  0.0000E+00  0.1111E+00  0.1111E+00
     -9.764  0.0000E+00  0.0000E+00  0.1111E+00  0.1111E+00
     -9.611  0.0000E+00  0.0000E+00  0.1111E+00  0.1111E+00
     -9.458  0.0000E+00  0.0000E+00  0.1111E+00  0.1111E+00
     -9.306  0.0000E+00  0.0000E+00  0.1111E+00  0.1111E+00
     -9.153  0.0000E+00  0.0000E+00  0.1111E+00  0.1111E+00
     -9.001  0.0000E+00  0.0000E+00  0.1111E+00  0.1111E+00
     -8.848  0.0000E+00  0.0000E+00  0.1111E+00  0.1111E+00
     -8.695  0.0000E+00  0.0000E+00  0.1111E+00  0.1111E+00
     -8.543  0.0000E+00  0.0000E+00  0.1111E+00  0.1111E+00
     -8.390  0.0000E+00  0.0000E+00  0.1111E+00  0.1111E+00
     -8.238  0.0000E+00  0.0000E+00  0.1111E+00  0.1111E+00
     -8.085  0.0000E+00  0.0000E+00  0.1111E+00  0.1111E+00
     -7.932  0.0000E+00  0.0000E+00  0.1111E+00  0.1111E+00
     -7.780  0.0000E+00  0.0000E+00  0.1111E+00  0.1111E+00
     -7.627  0.0000E+00  0.0000E+00  0.1111E+00  0.1111E+00
     -7.475  0.0000E+00  0.0000E+00  0.1111E+00  0.1111E+00
     -7.322  0.0000E+00  0.0000E+00  0.1111E+00  0.1111E+00
     -7.169  0.0000E+00  0.0000E+00  0.1111E+00  0.1111E+00
     -7.017  0.0000E+00  0.0000E+00  0.1111E+00  0.1111E+00
     -6.864  0.0000E+00  0.0000E+00  0.1111E+00  0.1111E+00
     -6.712  0.0000E+00  0.0000E+00  0.1111E+00  0.1111E+00
     -6.559  0.0000E+00  0.0000E+00  0.1111E+00  0.1111E+00
     -6.406  0.0000E+00  0.0000E+00  0.1111E+00  0.1111E+00
     -6.254  0.2751E-02  0.2751E-02  0.1115E+00  0.1115E+00
     -6.101  0.4585E-02  0.4585E-02  0.1120E+00  0.1120E+00
     -5.949  0.7135E-02  0.7135E-02  0.1131E+00  0.1131E+00
     -5.796  0.7843E-02  0.7843E-02  0.1143E+00  0.1143E+00
     -5.643  0.7397E-02  0.7397E-02  0.1156E+00  0.1156E+00
     -5.491  0.6465E-02  0.6465E-02  0.1166E+00  0.1166E+00
     -5.338  0.5924E-02  0.5924E-02  0.1176E+00  0.1176E+00
     -5.186  0.6105E-02  0.6105E-02  0.1185E+00  0.1185E+00
     -5.033  0.2278E-01  0.2278E-01  0.1198E+00  0.1198E+00
     -4.881  0.0000E+00  0.0000E+00  0.1212E+00  0.1212E+00
     -4.728  0.0000E+00  0.0000E+00  0.1212E+00  0.1212E+00
     -4.575  0.0000E+00  0.0000E+00  0.1212E+00  0.1212E+00
     -4.423  0.0000E+00  0.0000E+00  0.1212E+00  0.1212E+00
     -4.270  0.0000E+00  0.0000E+00  0.1212E+00  0.1212E+00
     -4.118  0.0000E+00  0.0000E+00  0.1212E+00  0.1212E+00
     -3.965  0.0000E+00  0.0000E+00  0.1212E+00  0.1212E+00
     -3.812  0.2049E-01  0.2049E-01  0.1215E+00  0.1215E+00
     -3.660  0.2946E-01  0.2946E-01  0.1239E+00  0.1239E+00
     -3.507  0.4336E-01  0.4336E-01  0.1292E+00  0.1292E+00
     -3.355  0.2335E-01  0.2335E-01  0.1339E+00  0.1339E+00
     -3.202  0.2137E-01  0.2137E-01  0.1382E+00  0.1382E+00
     -3.049  0.3153E-01  0.3153E-01  0.1428E+00  0.1428E+00
     -2.897  0.1665E-01  0.1665E-01  0.1455E+00  0.1455E+00
     -2.744  0.2264E-01  0.2264E-01  0.1490E+00  0.1490E+00
     -2.592  0.3005E-01  0.3005E-01  0.1532E+00  0.1532E+00
     -2.439  0.2704E-01  0.2704E-01  0.1576E+00  0.1576E+00
     -2.286  0.1831E-01  0.1831E-01  0.1626E+00  0.1626E+00
     -2.134  0.1828E-01  0.1828E-01  0.1669E+00  0.1669E+00
     -1.981  0.3273E-01  0.3273E-01  0.1708E+00  0.1708E+00
     -1.829  0.4601E-01  0.4601E-01  0.1766E+00  0.1766E+00
     -1.676  0.1360E-01  0.1360E-01  0.1847E+00  0.1847E+00
     -1.523  0.9519E-02  0.9519E-02  0.1862E+00  0.1862E+00
     -1.371  0.7921E-02  0.7921E-02  0.1875E+00  0.1875E+00
     -1.218  0.7789E-02  0.7789E-02  0.1887E+00  0.1887E+00
     -1.066  0.9132E-02  0.9132E-02  0.1904E+00  0.1904E+00
     -0.913  0.1408E-01  0.1408E-01  0.1918E+00  0.1918E+00
     -0.760  0.0000E+00  0.0000E+00  0.1919E+00  0.1919E+00
     -0.608  0.1158E-01  0.1158E-01  0.1934E+00  0.1934E+00
     -0.455  0.2099E-01  0.2099E-01  0.1957E+00  0.1957E+00
     -0.303  0.2104E-01  0.2104E-01  0.2002E+00  0.2002E+00
     -0.150  0.0000E+00  0.0000E+00  0.2020E+00  0.2020E+00
      0.003  0.0000E+00  0.0000E+00  0.2020E+00  0.2020E+00
      0.155  0.0000E+00  0.0000E+00  0.2020E+00  0.2020E+00
      0.308  0.0000E+00  0.0000E+00  0.2020E+00  0.2020E+00
      0.460  0.0000E+00  0.0000E+00  0.2020E+00  0.2020E+00
      0.613  0.0000E+00  0.0000E+00  0.2020E+00  0.2020E+00
      0.766  0.0000E+00  0.0000E+00  0.2020E+00  0.2020E+00
      0.918  0.0000E+00  0.0000E+00  0.2020E+00  0.2020E+00
      1.071  0.0000E+00  0.0000E+00  0.2020E+00  0.2020E+00
      1.223  0.0000E+00  0.0000E+00  0.2020E+00  0.2020E+00
      1.376  0.0000E+00  0.0000E+00  0.2020E+00  0.2020E+00
      1.529  0.0000E+00  0.0000E+00  0.2020E+00  0.2020E+00
      1.681  0.0000E+00  0.0000E+00  0.2020E+00  0.2020E+00
      1.834  0.0000E+00  0.0000E+00  0.2020E+00  0.2020E+00
      1.986  0.0000E+00  0.0000E+00  0.2020E+00  0.2020E+00
      2.139  0.3107E-01  0.3107E-01  0.2032E+00  0.2032E+00
      2.292  0.1076E-01  0.1076E-01  0.2054E+00  0.2054E+00
      2.444  0.1035E-01  0.1035E-01  0.2070E+00  0.2070E+00
      2.597  0.1543E-01  0.1543E-01  0.2088E+00  0.2088E+00
      2.749  0.1274E-01  0.1274E-01  0.2107E+00  0.2107E+00
      2.902  0.1901E-01  0.1901E-01  0.2131E+00  0.2131E+00
      3.055  0.2302E-01  0.2302E-01  0.2160E+00  0.2160E+00
      3.207  0.2786E-01  0.2786E-01  0.2198E+00  0.2198E+00
      3.360  0.9285E-02  0.9285E-02  0.2222E+00  0.2222E+00
      3.512  0.2139E-01  0.2139E-01  0.2245E+00  0.2245E+00
      3.665  0.2164E-01  0.2164E-01  0.2281E+00  0.2281E+00
      3.818  0.1099E-01  0.1099E-01  0.2323E+00  0.2323E+00
      3.970  0.1667E-01  0.1667E-01  0.2336E+00  0.2336E+00
      4.123  0.3487E-01  0.3487E-01  0.2374E+00  0.2374E+00
      4.275  0.9800E-02  0.9800E-02  0.2407E+00  0.2407E+00
      4.428  0.2910E-01  0.2910E-01  0.2425E+00  0.2425E+00
      4.581  0.2163E-01  0.2163E-01  0.2473E+00  0.2473E+00
      4.733  0.3508E-01  0.3508E-01  0.2513E+00  0.2513E+00
      4.886  0.1748E-01  0.1748E-01  0.2556E+00  0.2556E+00
      5.038  0.1474E-01  0.1474E-01  0.2578E+00  0.2578E+00
      5.191  0.2189E-01  0.2189E-01  0.2610E+00  0.2610E+00
      5.344  0.2140E-01  0.2140E-01  0.2643E+00  0.2643E+00
      5.496  0.2865E-01  0.2865E-01  0.2679E+00  0.2679E+00
      5.649  0.1327E-01  0.1327E-01  0.2718E+00  0.2718E+00
      5.801  0.2710E-01  0.2710E-01  0.2745E+00  0.2745E+00
      5.954  0.3527E-01  0.3527E-01  0.2797E+00  0.2797E+00
      6.107  0.9804E-02  0.9805E-02  0.2825E+00  0.2825E+00
      6.259  0.4019E-01  0.4019E-01  0.2865E+00  0.2865E+00
      6.412  0.1818E-01  0.1817E-01  0.2914E+00  0.2914E+00
      6.564  0.3810E-01  0.3810E-01  0.2942E+00  0.2942E+00
      6.717  0.2645E-01  0.2645E-01  0.3011E+00  0.3011E+00
      6.870  0.4459E-01  0.4460E-01  0.3065E+00  0.3065E+00
      7.022  0.2613E-01  0.2613E-01  0.3119E+00  0.3119E+00
      7.175  0.1773E-01  0.1776E-01  0.3142E+00  0.3142E+00
      7.327  0.4268E-01  0.4272E-01  0.3194E+00  0.3194E+00
      7.480  0.2347E-02  0.2300E-02  0.3232E+00  0.3232E+00
      7.633  0.0000E+00  0.0000E+00  0.3232E+00  0.3232E+00
      7.785  0.0000E+00  0.0000E+00  0.3232E+00  0.3232E+00
      7.938  0.0000E+00  0.0000E+00  0.3232E+00  0.3232E+00
      8.090  0.0000E+00  0.0000E+00  0.3232E+00  0.3232E+00
      8.243  0.0000E+00  0.0000E+00  0.3232E+00  0.3232E+00
      8.396  0.0000E+00  0.0000E+00  0.3232E+00  0.3232E+00
      8.548  0.0000E+00  0.0000E+00  0.3232E+00  0.3232E+00
      8.701  0.0000E+00  0.0000E+00  0.3232E+00  0.3232E+00
      8.853  0.0000E+00  0.0000E+00  0.3232E+00  0.3232E+00
      9.006  0.0000E+00  0.0000E+00  0.3232E+00  0.3232E+00
      9.159  0.0000E+00  0.0000E+00  0.3232E+00  0.3232E+00
      9.311  0.0000E+00  0.0000E+00  0.3232E+00  0.3232E+00
      9.464  0.0000E+00  0.0000E+00  0.3232E+00  0.3232E+00
      9.616  0.0000E+00  0.0000E+00  0.3232E+00  0.3232E+00
      9.61630129    -36.16308105  301     -0.11181745      1.00000000
    -36.163  0.0000E+00  0.0000E+00  0.0000E+00  0.0000E+00  0.0000E+00  0.0000E+00  0.0000E+00  0.0000E+00  0.0000E+00  0.0000E+00  0.0000E+00  0.0000E+00  0.0000E+00  0.0000E+00  0.0000E+00  0.0000E+00  0.0000E+00  0.0000E+00
    -36.010  0.0000E+00  0.0000E+00  0.0000E+00  0.0000E+00  0.0000E+00  0.0000E+00  0.0000E+00  0.0000E+00  0.0000E+00  0.0000E+00  0.0000E+00  0.0000E+00  0.0000E+00  0.0000E+00  0.0000E+00  0.0000E+00  0.0000E+00  0.0000E+00
    -35.858  0.0000E+00  0.0000E+00  0.0000E+00  0.0000E+00  0.0000E+00  0.0000E+00  0.0000E+00  0.0000E+00  0.0000E+00  0.0000E+00  0.0000E+00  0.0000E+00  0.0000E+00  0.0000E+00  0.0000E+00  0.0000E+00  0.0000E+00  0.0000E+00
    -35.705  0.0000E+00  0.0000E+00  0.0000E+00  0.0000E+00  0.0000E+00  0.0000E+00  0.0000E+00  0.0000E+00  0.0000E+00  0.0000E+00  0.0000E+00  0.0000E+00  0.0000E+00  0.0000E+00  0.0000E+00  0.0000E+00  0.0000E+00  0.0000E+00
    -35.553  0.0000E+00  0.0000E+00  0.0000E+00  0.0000E+00  0.0000E+00  0.0000E+00  0.0000E+00  0.0000E+00  0.0000E+00  0.0000E+00  0.0000E+00  0.0000E+00  0.0000E+00  0.0000E+00  0.0000E+00  0.0000E+00  0.0000E+00  0.0000E+00
    -35.400  0.0000E+00  0.0000E+00  0.0000E+00  0.0000E+00  0.0000E+00  0.0000E+00  0.0000E+00  0.0000E+00  0.0000E+00  0.0000E+00  0.0000E+00  0.0000E+00  0.0000E+00  0.0000E+00  0.0000E+00  0.0000E+00  0.0000E+00  0.0000E+00
    -35.247  0.0000E+00  0.0000E+00  0.0000E+00  0.0000E+00  0.0000E+00  0.0000E+00  0.0000E+00  0.0000E+00  0.0000E+00  0.0000E+00  0.0000E+00  0.0000E+00  0.0000E+00  0.0000E+00  0.0000E+00  0.0000E+00  0.0000E+00  0.0000E+00
    -35.095  0.0000E+00  0.0000E+00  0.0000E+00  0.0000E+00  0.0000E+00  0.0000E+00  0.0000E+00  0.0000E+00  0.0000E+00  0.0000E+00  0.0000E+00  0.0000E+00  0.0000E+00  0.0000E+00  0.0000E+00  0.0000E+00  0.0000E+00  0.0000E+00
    -34.942  0.0000E+00  0.0000E+00  0.0000E+00  0.0000E+00  0.0000E+00  0.0000E+00  0.0000E+00  0.0000E+00  0.0000E+00  0.0000E+00  0.0000E+00  0.0000E+00  0.0000E+00  0.0000E+00  0.0000E+00  0.0000E+00  0.0000E+00  0.0000E+00
    -34.790  0.0000E+00  0.0000E+00  0.0000E+00  0.0000E+00  0.0000E+00  0.0000E+00  0.0000E+00  0.0000E+00  0.0000E+00  0.0000E+00  0.0000E+00  0.0000E+00  0.0000E+00  0.0000E+00  0.0000E+00  0.0000E+00  0.0000E+00  0.0000E+00
    -34.637  0.0000E+00  0.0000E+00  0.0000E+00  0.0000E+00  0.0000E+00  0.0000E+00  0.0000E+00  0.0000E+00  0.0000E+00  0.0000E+00  0.0000E+00  0.0000E+00  0.0000E+00  0.0000E+00  0.0000E+00  0.0000E+00  0.0000E+00  0.0000E+00
    -34.485  0.0000E+00  0.0000E+00  0.0000E+00  0.0000E+00  0.0000E+00  0.0000E+00  0.0000E+00  0.0000E+00  0.0000E+00  0.0000E+00  0.0000E+00  0.0000E+00  0.0000E+00  0.0000E+00  0.0000E+00  0.0000E+00  0.0000E+00  0.0000E+00
    -34.332  0.0000E+00  0.0000E+00  0.0000E+00  0.0000E+00  0.0000E+00  0.0000E+00  0.0000E+00  0.0000E+00  0.0000E+00  0.0000E+00  0.0000E+00  0.0000E+00  0.0000E+00  0.0000E+00  0.0000E+00  0.0000E+00  0.0000E+00  0.0000E+00
    -34.179  0.0000E+00  0.0000E+00  0.0000E+00  0.0000E+00  0.0000E+00  0.0000E+00  0.0000E+00  0.0000E+00  0.0000E+00  0.0000E+00  0.0000E+00  0.0000E+00  0.0000E+00  0.0000E+00  0.0000E+00  0.0000E+00  0.0000E+00  0.0000E+00
    -34.027  0.0000E+00  0.0000E+00  0.0000E+00  0.0000E+00  0.0000E+00  0.0000E+00  0.0000E+00  0.0000E+00  0.0000E+00  0.0000E+00  0.0000E+00  0.0000E+00  0.0000E+00  0.0000E+00  0.0000E+00  0.0000E+00  0.0000E+00  0.0000E+00
    -33.874  0.0000E+00  0.0000E+00  0.0000E+00  0.0000E+00  0.0000E+00  0.0000E+00  0.0000E+00  0.0000E+00  0.0000E+00  0.0000E+00  0.0000E+00  0.0000E+00  0.0000E+00  0.0000E+00  0.0000E+00  0.0000E+00  0.0000E+00  0.0000E+00
    -33.722  0.0000E+00  0.0000E+00  0.0000E+00  0.0000E+00  0.0000E+00  0.0000E+00  0.0000E+00  0.0000E+00  0.0000E+00  0.0000E+00  0.0000E+00  0.0000E+00  0.0000E+00  0.0000E+00  0.0000E+00  0.0000E+00  0.0000E+00  0.0000E+00
    -33.569  0.0000E+00  0.0000E+00  0.0000E+00  0.0000E+00  0.0000E+00  0.0000E+00  0.0000E+00  0.0000E+00  0.0000E+00  0.0000E+00  0.0000E+00  0.0000E+00  0.0000E+00  0.0000E+00  0.0000E+00  0.0000E+00  0.0000E+00  0.0000E+00
    -33.416  0.0000E+00  0.0000E+00  0.0000E+00  0.0000E+00  0.0000E+00  0.0000E+00  0.0000E+00  0.0000E+00  0.0000E+00  0.0000E+00  0.0000E+00  0.0000E+00  0.0000E+00  0.0000E+00  0.0000E+00  0.0000E+00  0.0000E+00  0.0000E+00
    -33.264  0.0000E+00  0.0000E+00  0.0000E+00  0.0000E+00  0.0000E+00  0.0000E+00  0.0000E+00  0.0000E+00  0.0000E+00  0.0000E+00  0.0000E+00  0.0000E+00  0.0000E+00  0.0000E+00  0.0000E+00  0.0000E+00  0.0000E+00  0.0000E+00
    -33.111  0.0000E+00  0.0000E+00  0.0000E+00  0.0000E+00  0.0000E+00  0.0000E+00  0.0000E+00  0.0000E+00  0.0000E+00  0.0000E+00  0.0000E+00  0.0000E+00  0.0000E+00  0.0000E+00  0.0000E+00  0.0000E+00  0.0000E+00  0.0000E+00
    -32.959  0.0000E+00  0.0000E+00  0.0000E+00  0.0000E+00  0.0000E+00  0.0000E+00  0.0000E+00  0.0000E+00  0.0000E+00  0.0000E+00  0.0000E+00  0.0000E+00  0.0000E+00  0.0000E+00  0.0000E+00  0.0000E+00  0.0000E+00  0.0000E+00
    -32.806  0.0000E+00  0.0000E+00  0.0000E+00  0.0000E+00  0.0000E+00  0.0000E+00  0.0000E+00  0.0000E+00  0.0000E+00  0.0000E+00  0.0000E+00  0.0000E+00  0.0000E+00  0.0000E+00  0.0000E+00  0.0000E+00  0.0000E+00  0.0000E+00
    -32.653  0.0000E+00  0.0000E+00  0.0000E+00  0.0000E+00  0.0000E+00  0.0000E+00  0.0000E+00  0.0000E+00  0.0000E+00  0.0000E+00  0.0000E+00  0.0000E+00  0.0000E+00  0.0000E+00  0.0000E+00  0.0000E+00  0.0000E+00  0.0000E+00
    -32.501  0.0000E+00  0.0000E+00  0.0000E+00  0.0000E+00  0.0000E+00  0.0000E+00  0.0000E+00  0.0000E+00  0.0000E+00  0.0000E+00  0.0000E+00  0.0000E+00  0.0000E+00  0.0000E+00  0.0000E+00  0.0000E+00  0.0000E+00  0.0000E+00
    -32.348  0.0000E+00  0.0000E+00  0.0000E+00  0.0000E+00  0.0000E+00  0.0000E+00  0.0000E+00  0.0000E+00  0.0000E+00  0.0000E+00  0.0000E+00  0.0000E+00  0.0000E+00  0.0000E+00  0.0000E+00  0.0000E+00  0.0000E+00  0.0000E+00
    -32.196  0.0000E+00  0.0000E+00  0.0000E+00  0.0000E+00  0.0000E+00  0.0000E+00  0.0000E+00  0.0000E+00  0.0000E+00  0.0000E+00  0.0000E+00  0.0000E+00  0.0000E+00  0.0000E+00  0.0000E+00  0.0000E+00  0.0000E+00  0.0000E+00
    -32.043  0.0000E+00  0.0000E+00  0.0000E+00  0.0000E+00  0.0000E+00  0.0000E+00  0.0000E+00  0.0000E+00  0.0000E+00  0.0000E+00  0.0000E+00  0.0000E+00  0.0000E+00  0.0000E+00  0.0000E+00  0.0000E+00  0.0000E+00  0.0000E+00
    -31.890  0.0000E+00  0.0000E+00  0.0000E+00  0.0000E+00  0.0000E+00  0.0000E+00  0.0000E+00  0.0000E+00  0.0000E+00  0.0000E+00  0.0000E+00  0.0000E+00  0.0000E+00  0.0000E+00  0.0000E+00  0.0000E+00  0.0000E+00  0.0000E+00
    -31.738  0.0000E+00  0.0000E+00  0.0000E+00  0.0000E+00  0.0000E+00  0.0000E+00  0.0000E+00  0.0000E+00  0.0000E+00  0.0000E+00  0.0000E+00  0.0000E+00  0.0000E+00  0.0000E+00  0.0000E+00  0.0000E+00  0.0000E+00  0.0000E+00
    -31.585  0.0000E+00  0.0000E+00  0.0000E+00  0.0000E+00  0.0000E+00  0.0000E+00  0.0000E+00  0.0000E+00  0.0000E+00  0.0000E+00  0.0000E+00  0.0000E+00  0.0000E+00  0.0000E+00  0.0000E+00  0.0000E+00  0.0000E+00  0.0000E+00
    -31.433  0.0000E+00  0.0000E+00  0.0000E+00  0.0000E+00  0.0000E+00  0.0000E+00  0.0000E+00  0.0000E+00  0.0000E+00  0.0000E+00  0.0000E+00  0.0000E+00  0.0000E+00  0.0000E+00  0.0000E+00  0.0000E+00  0.0000E+00  0.0000E+00
    -31.280  0.0000E+00  0.0000E+00  0.0000E+00  0.0000E+00  0.0000E+00  0.0000E+00  0.0000E+00  0.0000E+00  0.0000E+00  0.0000E+00  0.0000E+00  0.0000E+00  0.0000E+00  0.0000E+00  0.0000E+00  0.0000E+00  0.0000E+00  0.0000E+00
    -31.127  0.0000E+00  0.0000E+00  0.0000E+00  0.0000E+00  0.0000E+00  0.0000E+00  0.0000E+00  0.0000E+00  0.0000E+00  0.0000E+00  0.0000E+00  0.0000E+00  0.0000E+00  0.0000E+00  0.0000E+00  0.0000E+00  0.0000E+00  0.0000E+00
    -30.975  0.0000E+00  0.0000E+00  0.0000E+00  0.0000E+00  0.0000E+00  0.0000E+00  0.0000E+00  0.0000E+00  0.0000E+00  0.0000E+00  0.0000E+00  0.0000E+00  0.0000E+00  0.0000E+00  0.0000E+00  0.0000E+00  0.0000E+00  0.0000E+00
    -30.822  0.0000E+00  0.0000E+00  0.0000E+00  0.0000E+00  0.0000E+00  0.0000E+00  0.0000E+00  0.0000E+00  0.0000E+00  0.0000E+00  0.0000E+00  0.0000E+00  0.0000E+00  0.0000E+00  0.0000E+00  0.0000E+00  0.0000E+00  0.0000E+00
    -30.670  0.0000E+00  0.0000E+00  0.0000E+00  0.0000E+00  0.0000E+00  0.0000E+00  0.0000E+00  0.0000E+00  0.0000E+00  0.0000E+00  0.0000E+00  0.0000E+00  0.0000E+00  0.0000E+00  0.0000E+00  0.0000E+00  0.0000E+00  0.0000E+00
    -30.517  0.0000E+00  0.0000E+00  0.0000E+00  0.0000E+00  0.0000E+00  0.0000E+00  0.0000E+00  0.0000E+00  0.0000E+00  0.0000E+00  0.0000E+00  0.0000E+00  0.0000E+00  0.0000E+00  0.0000E+00  0.0000E+00  0.0000E+00  0.0000E+00
    -30.364  0.0000E+00  0.0000E+00  0.0000E+00  0.0000E+00  0.0000E+00  0.0000E+00  0.0000E+00  0.0000E+00  0.0000E+00  0.0000E+00  0.0000E+00  0.0000E+00  0.0000E+00  0.0000E+00  0.0000E+00  0.0000E+00  0.0000E+00  0.0000E+00
    -30.212  0.0000E+00  0.0000E+00  0.0000E+00  0.0000E+00  0.0000E+00  0.0000E+00  0.0000E+00  0.0000E+00  0.0000E+00  0.0000E+00  0.0000E+00  0.0000E+00  0.0000E+00  0.0000E+00  0.0000E+00  0.0000E+00  0.0000E+00  0.0000E+00
    -30.059  0.1262E-02  0.1262E-02  0.3183E-03  0.3183E-03  0.6685E-05  0.6684E-05  0.3278E-04  0.3277E-04  0.2328E-04  0.2327E-04  0.4313E-05  0.4313E-05  0.2664E-04  0.2664E-04  0.4921E-06  0.4920E-06  0.2766E-04  0.2766E-04
    -29.907  0.0000E+00  0.0000E+00  0.0000E+00  0.0000E+00  0.0000E+00  0.0000E+00  0.0000E+00  0.0000E+00  0.0000E+00  0.0000E+00  0.0000E+00  0.0000E+00  0.0000E+00  0.0000E+00  0.0000E+00  0.0000E+00  0.0000E+00  0.0000E+00
    -29.754  0.0000E+00  0.0000E+00  0.0000E+00  0.0000E+00  0.0000E+00  0.0000E+00  0.0000E+00  0.0000E+00  0.0000E+00  0.0000E+00  0.0000E+00  0.0000E+00  0.0000E+00  0.0000E+00  0.0000E+00  0.0000E+00  0.0000E+00  0.0000E+00
    -29.601  0.0000E+00  0.0000E+00  0.0000E+00  0.0000E+00  0.0000E+00  0.0000E+00  0.0000E+00  0.0000E+00  0.0000E+00  0.0000E+00  0.0000E+00  0.0000E+00  0.0000E+00  0.0000E+00  0.0000E+00  0.0000E+00  0.0000E+00  0.0000E+00
    -29.449  0.0000E+00  0.0000E+00  0.0000E+00  0.0000E+00  0.0000E+00  0.0000E+00  0.0000E+00  0.0000E+00  0.0000E+00  0.0000E+00  0.0000E+00  0.0000E+00  0.0000E+00  0.0000E+00  0.0000E+00  0.0000E+00  0.0000E+00  0.0000E+00
    -29.296  0.0000E+00  0.0000E+00  0.0000E+00  0.0000E+00  0.0000E+00  0.0000E+00  0.0000E+00  0.0000E+00  0.0000E+00  0.0000E+00  0.0000E+00  0.0000E+00  0.0000E+00  0.0000E+00  0.0000E+00  0.0000E+00  0.0000E+00  0.0000E+00
    -29.144  0.0000E+00  0.0000E+00  0.0000E+00  0.0000E+00  0.0000E+00  0.0000E+00  0.0000E+00  0.0000E+00  0.0000E+00  0.0000E+00  0.0000E+00  0.0000E+00  0.0000E+00  0.0000E+00  0.0000E+00  0.0000E+00  0.0000E+00  0.0000E+00
    -28.991  0.0000E+00  0.0000E+00  0.0000E+00  0.0000E+00  0.0000E+00  0.0000E+00  0.0000E+00  0.0000E+00  0.0000E+00  0.0000E+00  0.0000E+00  0.0000E+00  0.0000E+00  0.0000E+00  0.0000E+00  0.0000E+00  0.0000E+00  0.0000E+00
    -28.838  0.0000E+00  0.0000E+00  0.0000E+00  0.0000E+00  0.0000E+00  0.0000E+00  0.0000E+00  0.0000E+00  0.0000E+00  0.0000E+00  0.0000E+00  0.0000E+00  0.0000E+00  0.0000E+00  0.0000E+00  0.0000E+00  0.0000E+00  0.0000E+00
    -28.686  0.0000E+00  0.0000E+00  0.0000E+00  0.0000E+00  0.0000E+00  0.0000E+00  0.0000E+00  0.0000E+00  0.0000E+00  0.0000E+00  0.0000E+00  0.0000E+00  0.0000E+00  0.0000E+00  0.0000E+00  0.0000E+00  0.0000E+00  0.0000E+00
    -28.533  0.0000E+00  0.0000E+00  0.0000E+00  0.0000E+00  0.0000E+00  0.0000E+00  0.0000E+00  0.0000E+00  0.0000E+00  0.0000E+00  0.0000E+00  0.0000E+00  0.0000E+00  0.0000E+00  0.0000E+00  0.0000E+00  0.0000E+00  0.0000E+00