  11  11   0   0
  0.1087498E+02  0.3603188E-09  0.5718506E-09  0.6982085E-09  0.5000000E-15
  1.000000000000000E-004
  CAR 
 unknown system                          
     10.00080618    -35.00127516  301      2.20115684      1.00000000
    -35.001  0.0000E+00  0.0000E+00
    -34.851  0.0000E+00  0.0000E+00
    -34.701  0.0000E+00  0.0000E+00
    -34.551  0.0000E+00  0.0000E+00
    -34.401  0.0000E+00  0.0000E+00
    -34.251  0.0000E+00  0.0000E+00
    -34.101  0.0000E+00  0.0000E+00
    -33.951  0.0000E+00  0.0000E+00
    -33.801  0.3256E-30  0.4884E-31
    -33.651  0.2198E-20  0.3297E-21
    -33.501  0.1450E-12  0.2174E-13
    -33.351  0.8373E-07  0.1256E-07
    -33.201  0.2820E-03  0.4231E-04
    -33.051 -0.8610E-02 -0.1249E-02
    -32.901  0.1855E+00  0.2658E-01
    -32.751  0.4535E-01  0.3338E-01
    -32.601 -0.7752E-02  0.3222E-01
    -32.451  0.2279E+00  0.6641E-01
    -32.301  0.7652E-03  0.6653E-01
    -32.151  0.9145E-03  0.6667E-01
    -32.001  0.2620E-05  0.6667E-01
    -31.851  0.2494E-10  0.6667E-01
    -31.701  0.0000E+00  0.6667E-01
    -31.551  0.0000E+00  0.6667E-01
    -31.401  0.0000E+00  0.6667E-01
    -31.251  0.0000E+00  0.6667E-01
    -31.101  0.0000E+00  0.6667E-01
    -30.951  0.0000E+00  0.6667E-01
    -30.801  0.0000E+00  0.6667E-01
    -30.651  0.0000E+00  0.6667E-01
    -30.501  0.0000E+00  0.6667E-01
    -30.351  0.0000E+00  0.6667E-01
    -30.201  0.0000E+00  0.6667E-01
    -30.051  0.0000E+00  0.6667E-01
    -29.901  0.9921E-35  0.6667E-01
    -29.751  0.3860E-24  0.6667E-01
    -29.601  0.1483E-15  0.6667E-01
    -29.451  0.5252E-09  0.6667E-01
    -29.301  0.1430E-04  0.6667E-01
    -29.151  0.1217E-02  0.6685E-01
    -29.001  0.6159E-02  0.6778E-01
    -28.851  0.6168E+00  0.1603E+00
    -28.701  0.4034E-01  0.1664E+00
    -28.551  0.2091E-02  0.1667E+00
    -28.401  0.1913E-04  0.1667E+00
    -28.251  0.3976E-09  0.1667E+00
    -28.101  0.6953E-16  0.1667E+00
    -27.951  0.0000E+00  0.1667E+00
    -27.801  0.0000E+00  0.1667E+00
    -27.651  0.0000E+00  0.1667E+00
    -27.501  0.0000E+00  0.1667E+00
    -27.351  0.0000E+00  0.1667E+00
    -27.201  0.0000E+00  0.1667E+00
    -27.051  0.0000E+00  0.1667E+00
    -26.901  0.0000E+00  0.1667E+00
    -26.751  0.0000E+00  0.1667E+00
    -26.601  0.0000E+00  0.1667E+00
    -26.451  0.0000E+00  0.1667E+00
    -26.301  0.0000E+00  0.1667E+00
    -26.151  0.0000E+00  0.1667E+00
    -26.001  0.0000E+00  0.1667E+00
    -25.851  0.0000E+00  0.1667E+00
    -25.701  0.0000E+00  0.1667E+00
    -25.551  0.0000E+00  0.1667E+00
    -25.401  0.0000E+00  0.1667E+00
    -25.251  0.0000E+00  0.1667E+00
    -25.101  0.0000E+00  0.1667E+00
    -24.951  0.0000E+00  0.1667E+00
    -24.801  0.0000E+00  0.1667E+00
    -24.651  0.0000E+00  0.1667E+00
    -24.501  0.0000E+00  0.1667E+00
    -24.351  0.0000E+00  0.1667E+00
    -24.201  0.0000E+00  0.1667E+00
    -24.051  0.0000E+00  0.1667E+00
    -23.901  0.0000E+00  0.1667E+00
    -23.751  0.0000E+00  0.1667E+00
    -23.601  0.0000E+00  0.1667E+00
    -23.451  0.0000E+00  0.1667E+00
    -23.301  0.0000E+00  0.1667E+00
    -23.151  0.0000E+00  0.1667E+00
    -23.001  0.0000E+00  0.1667E+00
    -22.851  0.0000E+00  0.1667E+00
    -22.701  0.0000E+00  0.1667E+00
    -22.551  0.0000E+00  0.1667E+00
    -22.401  0.0000E+00  0.1667E+00
    -22.251  0.0000E+00  0.1667E+00
    -22.101  0.0000E+00  0.1667E+00
    -21.951  0.0000E+00  0.1667E+00
    -21.801  0.0000E+00  0.1667E+00
    -21.651  0.0000E+00  0.1667E+00
    -21.501  0.0000E+00  0.1667E+00
    -21.351  0.0000E+00  0.1667E+00
    -21.201  0.0000E+00  0.1667E+00
    -21.051  0.0000E+00  0.1667E+00
    -20.901  0.0000E+00  0.1667E+00
    -20.751  0.0000E+00  0.1667E+00
    -20.601  0.0000E+00  0.1667E+00
    -20.451  0.0000E+00  0.1667E+00
    -20.301  0.0000E+00  0.1667E+00
    -20.151  0.0000E+00  0.1667E+00
    -20.001  0.0000E+00  0.1667E+00
    -19.851  0.0000E+00  0.1667E+00
    -19.701  0.0000E+00  0.1667E+00
    -19.551  0.0000E+00  0.1667E+00
    -19.401  0.0000E+00  0.1667E+00
    -19.251  0.0000E+00  0.1667E+00
    -19.101  0.0000E+00  0.1667E+00
    -18.951  0.0000E+00  0.1667E+00
    -18.801  0.0000E+00  0.1667E+00
    -18.651  0.0000E+00  0.1667E+00
    -18.501  0.0000E+00  0.1667E+00
    -18.351  0.0000E+00  0.1667E+00
    -18.200  0.0000E+00  0.1667E+00
    -18.050  0.0000E+00  0.1667E+00
    -17.900  0.0000E+00  0.1667E+00
    -17.750  0.0000E+00  0.1667E+00
    -17.600  0.0000E+00  0.1667E+00
    -17.450  0.0000E+00  0.1667E+00
    -17.300  0.0000E+00  0.1667E+00
    -17.150  0.0000E+00  0.1667E+00
    -17.000  0.0000E+00  0.1667E+00
    -16.850  0.0000E+00  0.1667E+00
    -16.700  0.0000E+00  0.1667E+00
    -16.550  0.0000E+00  0.1667E+00
    -16.400  0.0000E+00  0.1667E+00
    -16.250  0.4999E-28  0.1667E+00
    -16.100  0.1076E-18  0.1667E+00
    -15.950  0.2177E-11  0.1667E+00
    -15.800  0.3471E-06  0.1667E+00
    -15.650  0.1967E-03  0.1667E+00
    -15.500 -0.9842E-03  0.1665E+00
    -15.350  0.6477E-01  0.1763E+00
    -15.200  0.4224E-01  0.1826E+00
    -15.050  0.2385E+00  0.2184E+00
    -14.900  0.2864E+00  0.2613E+00
    -14.750  0.1073E+00  0.2774E+00
    -14.600  0.3158E+00  0.3248E+00
    -14.450  0.2233E+00  0.3583E+00
    -14.300  0.5430E-01  0.3664E+00
    -14.150  0.1291E-02  0.3666E+00
    -14.000  0.2036E-03  0.3667E+00
    -13.850  0.9941E-06  0.3667E+00
    -13.700  0.1458E-10  0.3667E+00
    -13.550  0.2243E-17  0.3667E+00
    -13.400  0.0000E+00  0.3667E+00
    -13.250  0.0000E+00  0.3667E+00
    -13.100  0.0000E+00  0.3667E+00
    -12.950  0.0000E+00  0.3667E+00
    -12.800  0.0000E+00  0.3667E+00
    -12.650  0.0000E+00  0.3667E+00
    -12.500  0.0000E+00  0.3667E+00
    -12.350  0.0000E+00  0.3667E+00
    -12.200  0.0000E+00  0.3667E+00
    -12.050  0.0000E+00  0.3667E+00
    -11.900  0.0000E+00  0.3667E+00
    -11.750  0.0000E+00  0.3667E+00
    -11.600  0.0000E+00  0.3667E+00
    -11.450  0.0000E+00  0.3667E+00
    -11.300  0.0000E+00  0.3667E+00
    -11.150  0.0000E+00  0.3667E+00
    -11.000  0.0000E+00  0.3667E+00
    -10.850  0.0000E+00  0.3667E+00
    -10.700  0.0000E+00  0.3667E+00
    -10.550  0.0000E+00  0.3667E+00
    -10.400  0.0000E+00  0.3667E+00
    -10.250  0.0000E+00  0.3667E+00
    -10.100  0.0000E+00  0.3667E+00
     -9.950  0.0000E+00  0.3667E+00
     -9.800  0.0000E+00  0.3667E+00
     -9.650  0.0000E+00  0.3667E+00
     -9.500  0.0000E+00  0.3667E+00
     -9.350  0.0000E+00  0.3667E+00
     -9.200  0.0000E+00  0.3667E+00
     -9.050  0.0000E+00  0.3667E+00
     -8.900  0.0000E+00  0.3667E+00
     -8.750  0.0000E+00  0.3667E+00
     -8.600  0.0000E+00  0.3667E+00
     -8.450  0.0000E+00  0.3667E+00
     -8.300  0.0000E+00  0.3667E+00
     -8.150  0.0000E+00  0.3667E+00
     -8.000  0.0000E+00  0.3667E+00
     -7.850  0.0000E+00  0.3667E+00
     -7.700  0.0000E+00  0.3667E+00
     -7.550  0.0000E+00  0.3667E+00
     -7.400  0.0000E+00  0.3667E+00
     -7.250  0.0000E+00  0.3667E+00
     -7.100  0.0000E+00  0.3667E+00
     -6.950  0.0000E+00  0.3667E+00
     -6.800  0.0000E+00  0.3667E+00
     -6.650  0.2780E-38  0.3667E+00
     -6.500  0.1896E-27  0.3667E+00
     -6.350  0.1260E-18  0.3667E+00
     -6.200  0.7518E-12  0.3667E+00
     -6.050  0.3213E-07  0.3667E+00
     -5.900  0.3543E-05  0.3667E+00
     -5.750  0.9750E-05  0.3667E+00
     -5.600  0.2447E-02  0.3670E+00
     -5.450  0.6668E-02  0.3680E+00
     -5.300  0.8416E-02  0.3693E+00
     -5.150  0.1509E-01  0.3716E+00
     -5.000  0.1689E-01  0.3741E+00
     -4.850  0.1917E-01  0.3770E+00
     -4.700  0.1991E-01  0.3800E+00
     -4.550  0.1451E-01  0.3821E+00
     -4.400  0.1528E-01  0.3844E+00
     -4.250  0.9286E-02  0.3858E+00
     -4.100  0.1560E-01  0.3882E+00
     -3.950  0.1419E-01  0.3903E+00
     -3.800  0.1220E-01  0.3921E+00
     -3.650  0.1989E-01  0.3951E+00
     -3.500  0.2751E-01  0.3992E+00
     -3.350  0.1845E-01  0.4020E+00
     -3.200  0.1382E-01  0.4041E+00
     -3.050  0.1484E-01  0.4063E+00
     -2.900  0.2775E-01  0.4105E+00
     -2.750  0.3328E-01  0.4154E+00
     -2.600  0.5533E-01  0.4238E+00
     -2.450  0.8805E-01  0.4370E+00
     -2.300  0.7784E-01  0.4486E+00
     -2.150  0.9233E-01  0.4625E+00
     -2.000  0.6983E-01  0.4730E+00
     -1.850  0.8054E-01  0.4850E+00
     -1.700  0.7225E-01  0.4959E+00
     -1.550  0.7750E-01  0.5075E+00
     -1.400  0.8511E-01  0.5203E+00
     -1.250  0.8681E-01  0.5333E+00
     -1.100  0.9641E-01  0.5478E+00
     -0.950  0.8974E-01  0.5612E+00
     -0.800  0.4403E-01  0.5678E+00
     -0.650  0.1822E-01  0.5706E+00
     -0.500  0.3136E-01  0.5753E+00
     -0.350  0.3168E-01  0.5800E+00
     -0.200  0.1739E-01  0.5826E+00
     -0.050  0.1817E-01  0.5853E+00
      0.100  0.2838E-01  0.5896E+00
      0.250  0.7651E-01  0.6011E+00
      0.400  0.8560E-01  0.6139E+00
      0.550  0.3583E-01  0.6193E+00
      0.700  0.2219E-01  0.6226E+00
      0.850  0.1718E-01  0.6252E+00
      1.000  0.1166E-01  0.6270E+00
      1.150  0.9490E-02  0.6284E+00
      1.300  0.1904E-01  0.6312E+00
      1.450  0.1864E-01  0.6340E+00
      1.600  0.2414E-01  0.6376E+00
      1.750  0.3224E-01  0.6425E+00
      1.900  0.1497E-01  0.6447E+00
      2.050  0.9458E-02  0.6462E+00
      2.200  0.2558E-01  0.6500E+00
      2.350  0.1023E-01  0.6515E+00
      2.500 -0.6855E-03  0.6514E+00
      2.650  0.2896E-01  0.6558E+00
      2.800  0.1250E-01  0.6576E+00
      2.950 -0.1553E-02  0.6574E+00
      3.100  0.3735E-01  0.6630E+00
      3.250  0.1752E-01  0.6656E+00
      3.401  0.1433E-01  0.6678E+00
      3.551  0.1153E-01  0.6695E+00
      3.701  0.2838E-01  0.6738E+00
      3.851  0.5168E-01  0.6815E+00
      4.001  0.6269E-01  0.6909E+00
      4.151  0.8301E-01  0.7034E+00
      4.301  0.6896E-01  0.7137E+00
      4.451  0.7632E-01  0.7252E+00
      4.601  0.7968E-01  0.7371E+00
      4.751  0.7516E-01  0.7484E+00
      4.901  0.8259E-01  0.7608E+00
      5.051  0.4740E-01  0.7679E+00
      5.201  0.4485E-01  0.7746E+00
      5.351  0.8229E-01  0.7870E+00
      5.501  0.4848E-01  0.7942E+00
      5.651  0.3983E-01  0.8002E+00
      5.801  0.5643E-01  0.8087E+00
      5.951  0.6550E-01  0.8185E+00
      6.101  0.5732E-01  0.8271E+00
      6.251  0.5407E-01  0.8352E+00
      6.401  0.6056E-01  0.8443E+00
      6.551  0.5577E-01  0.8527E+00
      6.701  0.4153E-01  0.8589E+00
      6.851  0.6025E-01  0.8679E+00
      7.001  0.7422E-01  0.8791E+00
      7.151  0.8216E-01  0.8914E+00
      7.301  0.8804E-01  0.9046E+00
      7.451  0.7794E-01  0.9163E+00
      7.601  0.7071E-01  0.9269E+00
      7.751  0.3401E-01  0.9320E+00
      7.901  0.6824E-02  0.9330E+00
      8.051  0.2130E-02  0.9333E+00
      8.201 -0.6818E-04  0.9333E+00
      8.351  0.2913E-05  0.9333E+00
      8.501  0.9257E-09  0.9333E+00
      8.651  0.1838E-14  0.9333E+00
      8.801  0.0000E+00  0.9333E+00
      8.951  0.0000E+00  0.9333E+00
      9.101  0.0000E+00  0.9333E+00
      9.251  0.0000E+00  0.9333E+00
      9.401  0.0000E+00  0.9333E+00
      9.551  0.0000E+00  0.9333E+00
      9.701  0.0000E+00  0.9333E+00
      9.851  0.0000E+00  0.9333E+00
     10.001  0.0000E+00  0.9333E+00
