   14   14   99    2
  0.8213503E+01  0.5005489E-09  0.4145901E-09  0.5858433E-09  0.5000000E-15
  1.000000000000000E-004
  CAR 
 unknown system                          
     33     62     32
 
  0.3742002E-15  0.3742002E-15  0.3742002E-15  0.8333333E-02
    1      -34.695216    -34.695216   1.000000   1.000000
    2      -30.262262    -30.262262   1.000000   1.000000
    3      -30.176376    -30.176376   1.000000   1.000000
    4      -30.038859    -30.038860   1.000000   1.000000
    5      -16.764787    -16.764787   1.000000   1.000000
    6      -16.684594    -16.684594   1.000000   1.000000
    7      -16.654451    -16.654451   1.000000   1.000000
    8       -8.937159     -8.937159   1.000000   1.000000
    9       -6.982219     -6.982218   1.000000   1.000000
   10       -6.183985     -6.183985   1.000000   1.000000
   11       -4.135226     -4.135226   1.000000   1.000000
   12       -2.852495     -2.852495   1.000000   1.000000
   13       -2.598531     -2.598531   1.000000   1.000000
   14       -2.239333     -2.239333   1.000000   1.000000
   15       -1.961097     -1.961097   1.000000   1.000000
   16       -1.500135     -1.500135   1.000000   1.000000
   17        0.203340      0.203339   1.000000   1.000000
   18        2.579135      2.579135   0.000000   0.000000
   19        3.713825      3.713825   0.000000   0.000000
   20        4.139883      4.139883   0.000000   0.000000
   21        4.262485      4.262485   0.000000   0.000000
   22        4.935609      4.935609   0.000000   0.000000
   23        5.243092      5.243092   0.000000   0.000000
   24        5.704128      5.704127   0.000000   0.000000
   25        5.935320      5.935320   0.000000   0.000000
   26        6.507465      6.507465   0.000000   0.000000
   27        7.007643      7.007643   0.000000   0.000000
   28        7.252966      7.252966   0.000000   0.000000
   29        7.739253      7.739254   0.000000   0.000000
   30        8.043541      8.043541   0.000000   0.000000
   31        8.494704      8.494704   0.000000   0.000000
   32        9.155599      9.155599   0.000000   0.000000
 
  0.2000000E+00  0.3797689E-15  0.3671568E-15  0.1666667E-01
    1      -34.695115    -34.695114   1.000000   1.000000
    2      -30.262511    -30.262511   1.000000   1.000000
    3      -30.176582    -30.176582   1.000000   1.000000
    4      -30.038909    -30.038909   1.000000   1.000000
    5      -16.764073    -16.764073   1.000000   1.000000
    6      -16.694180    -16.694180   1.000000   1.000000
    7      -16.654546    -16.654546   1.000000   1.000000
    8       -8.764660     -8.764660   1.000000   1.000000
    9       -7.183801     -7.183801   1.000000   1.000000
   10       -6.172708     -6.172708   1.000000   1.000000
   11       -4.007891     -4.007890   1.000000   1.000000
   12       -3.021786     -3.021785   1.000000   1.000000
   13       -2.575906     -2.575906   1.000000   1.000000
   14       -2.274569     -2.274569   1.000000   1.000000
   15       -2.057935     -2.057935   1.000000   1.000000
   16       -1.329732     -1.329732   1.000000   1.000000
   17        0.228028      0.228028   1.000000   1.000000
   18        2.687744      2.687744   0.000000   0.000000
   19        3.424070      3.424070   0.000000   0.000000
   20        4.050943      4.050943   0.000000   0.000000
   21        4.467217      4.467218   0.000000   0.000000
   22        4.863868      4.863868   0.000000   0.000000
   23        5.201959      5.201958   0.000000   0.000000
   24        5.573675      5.573675   0.000000   0.000000
   25        5.810691      5.810691   0.000000   0.000000
   26        6.651421      6.651421   0.000000   0.000000
   27        6.900152      6.900151   0.000000   0.000000
   28        7.335083      7.335083   0.000000   0.000000
   29        7.832617      7.832617   0.000000   0.000000
   30        8.153277      8.153277   0.000000   0.000000
   31        8.546581      8.546581   0.000000   0.000000
   32        9.163085      9.163085   0.000000   0.000000
 
  0.4000000E+00  0.3842056E-15  0.3356252E-15  0.1666667E-01
    1      -34.694951    -34.694951   1.000000   1.000000
    2      -30.262919    -30.262919   1.000000   1.000000
    3      -30.176906    -30.176906   1.000000   1.000000
    4      -30.038989    -30.038989   1.000000   1.000000
    5      -16.763150    -16.763150   1.000000   1.000000
    6      -16.709751    -16.709751   1.000000   1.000000
    7      -16.654259    -16.654259   1.000000   1.000000
    8       -8.333680     -8.333679   1.000000   1.000000
    9       -7.653507     -7.653507   1.000000   1.000000
   10       -6.138128     -6.138128   1.000000   1.000000
   11       -3.755385     -3.755385   1.000000   1.000000
   12       -3.265233     -3.265233   1.000000   1.000000
   13       -2.879894     -2.879894   1.000000   1.000000
   14       -2.330445     -2.330444   1.000000   1.000000
   15       -1.839926     -1.839926   1.000000   1.000000
   16       -1.132390     -1.132390   1.000000   1.000000
   17        0.218470      0.218469   1.000000   1.000000
   18        2.746836      2.746836   0.000000   0.000000
   19        3.501482      3.501482   0.000000   0.000000
   20        3.854776      3.854777   0.000000   0.000000
   21        4.337942      4.337942   0.000000   0.000000
   22        4.747891      4.747891   0.000000   0.000000
   23        5.025217      5.025217   0.000000   0.000000
   24        5.341912      5.341912   0.000000   0.000000
   25        5.821211      5.821211   0.000000   0.000000
   26        6.569020      6.569019   0.000000   0.000000
   27        6.886305      6.886304   0.000000   0.000000
   28        7.461132      7.461132   0.000000   0.000000
   29        8.020170      8.020170   0.000000   0.000000
   30        8.307568      8.307568   0.000000   0.000000
   31        8.979367      8.979366   0.000000   0.000000
   32        9.676186      9.676186   0.000000   0.000000
 
  0.3748535E-15  0.1666667E+00  0.3564548E-15  0.1666667E-01
    1      -34.694170    -34.694169   1.000000   1.000000
    2      -30.262797    -30.262797   1.000000   1.000000
    3      -30.178008    -30.178008   1.000000   1.000000
    4      -30.039398    -30.039398   1.000000   1.000000
    5      -16.761965    -16.761965   1.000000   1.000000
    6      -16.690270    -16.690270   1.000000   1.000000
    7      -16.673954    -16.673954   1.000000   1.000000
    8       -8.787042     -8.787042   1.000000   1.000000
    9       -6.978837     -6.978837   1.000000   1.000000
   10       -6.255217     -6.255217   1.000000   1.000000
   11       -4.123176     -4.123176   1.000000   1.000000
   12       -2.872393     -2.872393   1.000000   1.000000
   13       -2.614429     -2.614428   1.000000   1.000000
   14       -2.407684     -2.407684   1.000000   1.000000
   15       -2.046122     -2.046122   1.000000   1.000000
   16       -1.658863     -1.658863   1.000000   1.000000
   17        0.626589      0.626588   1.009563   1.009563
   18        2.760357      2.760357   0.000000   0.000000
   19        3.595131      3.595131   0.000000   0.000000
   20        3.960728      3.960728   0.000000   0.000000
   21        4.255029      4.255029   0.000000   0.000000
   22        4.602963      4.602963   0.000000   0.000000
   23        5.355750      5.355750   0.000000   0.000000
   24        5.776939      5.776939   0.000000   0.000000
   25        5.973544      5.973544   0.000000   0.000000
   26        6.626469      6.626469   0.000000   0.000000
   27        6.985019      6.985019   0.000000   0.000000
   28        7.256035      7.256034   0.000000   0.000000
   29        7.772937      7.772936   0.000000   0.000000
   30        8.345588      8.345588   0.000000   0.000000
   31        8.808107      8.808106   0.000000   0.000000
   32        9.177825      9.177837   0.000000   0.000000
 
  0.2000000E+00  0.1666667E+00  0.1214450E-14  0.1666667E-01
    1      -34.694054    -34.694053   1.000000   1.000000
    2      -30.263029    -30.263029   1.000000   1.000000
    3      -30.178290    -30.178290   1.000000   1.000000
    4      -30.039419    -30.039419   1.000000   1.000000
    5      -16.761543    -16.761543   1.000000   1.000000
    6      -16.692948    -16.692948   1.000000   1.000000
    7      -16.679934    -16.679934   1.000000   1.000000
    8       -8.631005     -8.631005   1.000000   1.000000
    9       -7.146952     -7.146952   1.000000   1.000000
   10       -6.239425     -6.239425   1.000000   1.000000
   11       -4.049185     -4.049185   1.000000   1.000000
   12       -3.026304     -3.026304   1.000000   1.000000
   13       -2.637341     -2.637340   1.000000   1.000000
   14       -2.369609     -2.369609   1.000000   1.000000
   15       -2.061691     -2.061691   1.000000   1.000000
   16       -1.536708     -1.536708   1.000000   1.000000
   17        0.565390      0.565390   1.014794   1.014795
   18        2.911679      2.911679   0.000000   0.000000
   19        3.235535      3.235535   0.000000   0.000000
   20        3.975905      3.975905   0.000000   0.000000
   21        4.362741      4.362741   0.000000   0.000000
   22        4.556287      4.556287   0.000000   0.000000
   23        5.507131      5.507131   0.000000   0.000000
   24        5.737878      5.737877   0.000000   0.000000
   25        5.936033      5.936033   0.000000   0.000000
   26        6.253204      6.253204   0.000000   0.000000
   27        6.877007      6.877007   0.000000   0.000000
   28        7.337036      7.337036   0.000000   0.000000
   29        7.917236      7.917236   0.000000   0.000000
   30        8.396576      8.396576   0.000000   0.000000
   31        8.813547      8.813547   0.000000   0.000000
   32        9.516718      9.516717   0.000000   0.000000
 
  0.4000000E+00  0.1666667E+00  0.2984587E-15  0.1666667E-01
    1      -34.693876    -34.693875   1.000000   1.000000
    2      -30.263443    -30.263443   1.000000   1.000000
    3      -30.178638    -30.178638   1.000000   1.000000
    4      -30.039515    -30.039516   1.000000   1.000000
    5      -16.760760    -16.760760   1.000000   1.000000
    6      -16.705405    -16.705405   1.000000   1.000000
    7      -16.681611    -16.681611   1.000000   1.000000
    8       -8.231421     -8.231421   1.000000   1.000000
    9       -7.563748     -7.563748   1.000000   1.000000
   10       -6.210746     -6.210746   1.000000   1.000000
   11       -3.825605     -3.825605   1.000000   1.000000
   12       -3.270470     -3.270470   1.000000   1.000000
   13       -2.858201     -2.858201   1.000000   1.000000
   14       -2.389815     -2.389815   1.000000   1.000000
   15       -1.921391     -1.921391   1.000000   1.000000
   16       -1.464925     -1.464925   1.000000   1.000000
   17        0.659329      0.659328   0.962772   0.962772
   18        2.808587      2.808587   0.000000   0.000000
   19        3.398403      3.398403   0.000000   0.000000
   20        3.862472      3.862472   0.000000   0.000000
   21        4.216394      4.216394   0.000000   0.000000
   22        4.608781      4.608781   0.000000   0.000000
   23        5.225800      5.225800   0.000000   0.000000
   24        5.561998      5.561998   0.000000   0.000000
   25        5.845346      5.845345   0.000000   0.000000
   26        6.385728      6.385728   0.000000   0.000000
   27        6.999464      6.999464   0.000000   0.000000
   28        7.243942      7.243942   0.000000   0.000000
   29        7.970301      7.970301   0.000000   0.000000
   30        8.649820      8.649821   0.000000   0.000000
   31        9.284157      9.284152   0.000000   0.000000
   32        9.630100      9.630055   0.000000   0.000000
 
 -0.4000000E+00  0.1666667E+00  0.4215963E-15  0.1666667E-01
    1      -34.693881    -34.693881   1.000000   1.000000
    2      -30.263462    -30.263462   1.000000   1.000000
    3      -30.178569    -30.178569   1.000000   1.000000
    4      -30.039550    -30.039551   1.000000   1.000000
    5      -16.760558    -16.760558   1.000000   1.000000
    6      -16.706266    -16.706266   1.000000   1.000000
    7      -16.681005    -16.681005   1.000000   1.000000
    8       -8.217811     -8.217810   1.000000   1.000000
    9       -7.578576     -7.578575   1.000000   1.000000
   10       -6.207236     -6.207236   1.000000   1.000000
   11       -3.811901     -3.811900   1.000000   1.000000
   12       -3.242405     -3.242405   1.000000   1.000000
   13       -2.848101     -2.848101   1.000000   1.000000
   14       -2.403817     -2.403817   1.000000   1.000000
   15       -2.017367     -2.017367   1.000000   1.000000
   16       -1.514482     -1.514482   1.000000   1.000000
   17        0.809733      0.809732   0.884014   0.884015
   18        2.734260      2.734260   0.000000   0.000000
   19        3.607313      3.607313   0.000000   0.000000
   20        3.737706      3.737706   0.000000   0.000000
   21        4.154731      4.154731   0.000000   0.000000
   22        4.780409      4.780409   0.000000   0.000000
   23        5.124657      5.124657   0.000000   0.000000
   24        5.499433      5.499433   0.000000   0.000000
   25        5.987459      5.987459   0.000000   0.000000
   26        6.549386      6.549386   0.000000   0.000000
   27        6.976334      6.976333   0.000000   0.000000
   28        7.364022      7.364022   0.000000   0.000000
   29        7.928529      7.928528   0.000000   0.000000
   30        8.335137      8.335137   0.000000   0.000000
   31        8.566436      8.566436   0.000000   0.000000
   32        9.580363      9.580364   0.000000   0.000000
 
 -0.2000000E+00  0.1666667E+00  0.3891409E-15  0.1666667E-01
    1      -34.694063    -34.694063   1.000000   1.000000
    2      -30.263061    -30.263061   1.000000   1.000000
    3      -30.178183    -30.178183   1.000000   1.000000
    4      -30.039480    -30.039480   1.000000   1.000000
    5      -16.761215    -16.761215   1.000000   1.000000
    6      -16.695070    -16.695070   1.000000   1.000000
    7      -16.678270    -16.678270   1.000000   1.000000
    8       -8.619379     -8.619379   1.000000   1.000000
    9       -7.157103     -7.157103   1.000000   1.000000
   10       -6.248293     -6.248293   1.000000   1.000000
   11       -3.997040     -3.997039   1.000000   1.000000
   12       -3.011085     -3.011085   1.000000   1.000000
   13       -2.573017     -2.573017   1.000000   1.000000
   14       -2.456655     -2.456655   1.000000   1.000000
   15       -2.167760     -2.167760   1.000000   1.000000
   16       -1.612692     -1.612692   1.000000   1.000000
   17        0.774448      0.774448   0.931150   0.931151
   18        2.755943      2.755943   0.000000   0.000000
   19        3.610341      3.610341   0.000000   0.000000
   20        3.894185      3.894185   0.000000   0.000000
   21        4.195208      4.195209   0.000000   0.000000
   22        4.584952      4.584952   0.000000   0.000000
   23        5.328133      5.328133   0.000000   0.000000
   24        5.683636      5.683636   0.000000   0.000000
   25        6.010255      6.010255   0.000000   0.000000
   26        6.800778      6.800778   0.000000   0.000000
   27        7.149336      7.149336   0.000000   0.000000
   28        7.313886      7.313886   0.000000   0.000000
   29        7.448426      7.448426   0.000000   0.000000
   30        8.161660      8.161660   0.000000   0.000000
   31        8.644313      8.644313   0.000000   0.000000
   32        9.326318      9.326318   0.000000   0.000000
 
  0.1268686E-14  0.3333333E+00  0.1256330E-14  0.1666667E-01
    1      -34.692076    -34.692075   1.000000   1.000000
    2      -30.264010    -30.264009   1.000000   1.000000
    3      -30.181215    -30.181215   1.000000   1.000000
    4      -30.040370    -30.040370   1.000000   1.000000
    5      -16.757089    -16.757089   1.000000   1.000000
    6      -16.742653    -16.742653   1.000000   1.000000
    7      -16.670216    -16.670216   1.000000   1.000000
    8       -8.403539     -8.403539   1.000000   1.000000
    9       -7.056034     -7.056034   1.000000   1.000000
   10       -6.420461     -6.420461   1.000000   1.000000
   11       -4.128307     -4.128307   1.000000   1.000000
   12       -2.937910     -2.937910   1.000000   1.000000
   13       -2.718106     -2.718106   1.000000   1.000000
   14       -2.520120     -2.520120   1.000000   1.000000
   15       -2.230922     -2.230922   1.000000   1.000000
   16       -1.829323     -1.829323   1.000000   1.000000
   17        1.357747      1.357746   0.065749   0.065750
   18        3.042460      3.042460   0.000000   0.000000
   19        3.362122      3.362123   0.000000   0.000000
   20        3.856447      3.856447   0.000000   0.000000
   21        3.944219      3.944219   0.000000   0.000000
   22        4.581989      4.581990   0.000000   0.000000
   23        5.310851      5.310850   0.000000   0.000000
   24        5.783005      5.783005   0.000000   0.000000
   25        6.112200      6.112201   0.000000   0.000000
   26        6.618487      6.618487   0.000000   0.000000
   27        7.085583      7.085583   0.000000   0.000000
   28        7.414462      7.414461   0.000000   0.000000
   29        7.756813      7.756813   0.000000   0.000000
   30        8.219335      8.219335   0.000000   0.000000
   31        8.631927      8.631927   0.000000   0.000000
   32        9.132751      9.132750   0.000000   0.000000
 
  0.2000000E+00  0.3333333E+00  0.3096425E-15  0.1666667E-01
    1      -34.691940    -34.691939   1.000000   1.000000
    2      -30.264240    -30.264240   1.000000   1.000000
    3      -30.181554    -30.181554   1.000000   1.000000
    4      -30.040397    -30.040397   1.000000   1.000000
    5      -16.756706    -16.756706   1.000000   1.000000
    6      -16.741296    -16.741296   1.000000   1.000000
    7      -16.678918    -16.678918   1.000000   1.000000
    8       -8.277718     -8.277717   1.000000   1.000000
    9       -7.149386     -7.149386   1.000000   1.000000
   10       -6.399342     -6.399342   1.000000   1.000000
   11       -4.142314     -4.142313   1.000000   1.000000
   12       -3.058146     -3.058146   1.000000   1.000000
   13       -2.685259     -2.685259   1.000000   1.000000
   14       -2.463260     -2.463260   1.000000   1.000000
   15       -2.194702     -2.194702   1.000000   1.000000
   16       -1.876506     -1.876506   1.000000   1.000000
   17        1.323365      1.323365   0.120275   0.120276
   18        2.978514      2.978514   0.000000   0.000000
   19        3.230522      3.230522   0.000000   0.000000
   20        3.816611      3.816611   0.000000   0.000000
   21        4.211152      4.211152   0.000000   0.000000
   22        4.385142      4.385143   0.000000   0.000000
   23        5.508940      5.508940   0.000000   0.000000
   24        5.932874      5.932873   0.000000   0.000000
   25        6.038575      6.038575   0.000000   0.000000
   26        6.516783      6.516783   0.000000   0.000000
   27        6.753143      6.753143   0.000000   0.000000
   28        7.308868      7.308868   0.000000   0.000000
   29        7.849040      7.849040   0.000000   0.000000
   30        8.201165      8.201165   0.000000   0.000000
   31        8.939058      8.939058   0.000000   0.000000
   32        9.473817      9.473833   0.000000   0.000000
 
  0.4000000E+00  0.3333333E+00  0.1234487E-14  0.1666667E-01
    1      -34.691729    -34.691729   1.000000   1.000000
    2      -30.264651    -30.264651   1.000000   1.000000
    3      -30.181991    -30.181991   1.000000   1.000000
    4      -30.040501    -30.040501   1.000000   1.000000
    5      -16.756024    -16.756024   1.000000   1.000000
    6      -16.739394    -16.739394   1.000000   1.000000
    7      -16.692839    -16.692839   1.000000   1.000000
    8       -7.961728     -7.961728   1.000000   1.000000
    9       -7.403557     -7.403556   1.000000   1.000000
   10       -6.386573     -6.386573   1.000000   1.000000
   11       -4.090878     -4.090878   1.000000   1.000000
   12       -3.235410     -3.235409   1.000000   1.000000
   13       -2.749763     -2.749763   1.000000   1.000000
   14       -2.480650     -2.480650   1.000000   1.000000
   15       -2.072230     -2.072230   1.000000   1.000000
   16       -1.925182     -1.925182   1.000000   1.000000
   17        1.401477      1.401476   0.073746   0.073747
   18        2.854936      2.854936   0.000000   0.000000
   19        3.226854      3.226854   0.000000   0.000000
   20        3.824640      3.824640   0.000000   0.000000
   21        4.100120      4.100120   0.000000   0.000000
   22        4.586038      4.586039   0.000000   0.000000
   23        5.261285      5.261285   0.000000   0.000000
   24        5.594645      5.594645   0.000000   0.000000
   25        6.181360      6.181360   0.000000   0.000000
   26        6.673817      6.673816   0.000000   0.000000
   27        6.791602      6.791602   0.000000   0.000000
   28        7.279598      7.279598   0.000000   0.000000
   29        7.730885      7.730885   0.000000   0.000000
   30        8.785694      8.785694   0.000000   0.000000
   31        9.066680      9.066680   0.000000   0.000000
   32        9.380348      9.380346   0.000000   0.000000
 
 -0.4000000E+00  0.3333333E+00  0.4061212E-15  0.1666667E-01
    1      -34.691735    -34.691734   1.000000   1.000000
    2      -30.264672    -30.264672   1.000000   1.000000
    3      -30.181925    -30.181925   1.000000   1.000000
    4      -30.040539    -30.040539   1.000000   1.000000
    5      -16.755786    -16.755786   1.000000   1.000000
    6      -16.739771    -16.739771   1.000000   1.000000
    7      -16.692777    -16.692778   1.000000   1.000000
    8       -7.952724     -7.952724   1.000000   1.000000
    9       -7.406571     -7.406571   1.000000   1.000000
   10       -6.390057     -6.390057   1.000000   1.000000
   11       -4.080344     -4.080344   1.000000   1.000000
   12       -3.238143     -3.238143   1.000000   1.000000
   13       -2.714957     -2.714957   1.000000   1.000000
   14       -2.538707     -2.538707   1.000000   1.000000
   15       -2.087142     -2.087142   1.000000   1.000000
   16       -1.955911     -1.955911   1.000000   1.000000
   17        1.512428      1.512427  -0.006970  -0.006969
   18        2.727175      2.727175   0.000000   0.000000
   19        3.390753      3.390753   0.000000   0.000000
   20        3.738303      3.738303   0.000000   0.000000
   21        4.233233      4.233233   0.000000   0.000000
   22        4.652470      4.652471   0.000000   0.000000
   23        5.222960      5.222960   0.000000   0.000000
   24        5.580603      5.580603   0.000000   0.000000
   25        6.041924      6.041925   0.000000   0.000000
   26        6.688864      6.688864   0.000000   0.000000
   27        6.894697      6.894696   0.000000   0.000000
   28        7.466599      7.466599   0.000000   0.000000
   29        7.663904      7.663904   0.000000   0.000000
   30        8.290070      8.290070   0.000000   0.000000
   31        8.878567      8.878567   0.000000   0.000000
   32        9.531819      9.531818   0.000000   0.000000
 
 -0.2000000E+00  0.3333333E+00  0.1265781E-14  0.1666667E-01
    1      -34.691949    -34.691948   1.000000   1.000000
    2      -30.264275    -30.264275   1.000000   1.000000
    3      -30.181446    -30.181446   1.000000   1.000000
    4      -30.040459    -30.040459   1.000000   1.000000
    5      -16.756308    -16.756308   1.000000   1.000000
    6      -16.741815    -16.741815   1.000000   1.000000
    7      -16.678934    -16.678934   1.000000   1.000000
    8       -8.266478     -8.266478   1.000000   1.000000
    9       -7.136986     -7.136986   1.000000   1.000000
   10       -6.433232     -6.433232   1.000000   1.000000
   11       -4.097378     -4.097377   1.000000   1.000000
   12       -3.012382     -3.012382   1.000000   1.000000
   13       -2.725327     -2.725327   1.000000   1.000000
   14       -2.567591     -2.567591   1.000000   1.000000
   15       -2.183028     -2.183028   1.000000   1.000000
   16       -1.908773     -1.908773   1.000000   1.000000
   17        1.465515      1.465514  -0.011802  -0.011802
   18        2.919250      2.919250   0.000000   0.000000
   19        3.576559      3.576559   0.000000   0.000000
   20        3.631899      3.631899   0.000000   0.000000
   21        4.060407      4.060408   0.000000   0.000000
   22        4.507614      4.507614   0.000000   0.000000
   23        5.377076      5.377076   0.000000   0.000000
   24        5.810440      5.810440   0.000000   0.000000
   25        6.249606      6.249606   0.000000   0.000000
   26        6.605367      6.605367   0.000000   0.000000
   27        6.953544      6.953544   0.000000   0.000000
   28        7.253150      7.253150   0.000000   0.000000
   29        7.572183      7.572183   0.000000   0.000000
   30        8.374674      8.374674   0.000000   0.000000
   31        8.631791      8.631791   0.000000   0.000000
   32        9.138876      9.138876   0.000000   0.000000
 
 -0.5215146E-15  0.5000000E+00  0.3852082E-15  0.8333333E-02
    1      -34.691028    -34.691027   1.000000   1.000000
    2      -30.264696    -30.264696   1.000000   1.000000
    3      -30.182790    -30.182790   1.000000   1.000000
    4      -30.040809    -30.040809   1.000000   1.000000
    5      -16.772480    -16.772480   1.000000   1.000000
    6      -16.752366    -16.752366   1.000000   1.000000
    7      -16.666552    -16.666552   1.000000   1.000000
    8       -8.110179     -8.110178   1.000000   1.000000
    9       -7.221193     -7.221192   1.000000   1.000000
   10       -6.491659     -6.491659   1.000000   1.000000
   11       -4.144435     -4.144435   1.000000   1.000000
   12       -2.955939     -2.955939   1.000000   1.000000
   13       -2.769998     -2.769998   1.000000   1.000000
   14       -2.514508     -2.514508   1.000000   1.000000
   15       -2.363994     -2.363994   1.000000   1.000000
   16       -1.872449     -1.872449   1.000000   1.000000
   17        1.762241      1.762241   0.000000   0.000000
   18        3.023547      3.023547   0.000000   0.000000
   19        3.287292      3.287292   0.000000   0.000000
   20        3.680533      3.680533   0.000000   0.000000
   21        4.013177      4.013177   0.000000   0.000000
   22        4.727389      4.727389   0.000000   0.000000
   23        5.398492      5.398492   0.000000   0.000000
   24        5.546390      5.546390   0.000000   0.000000
   25        6.407680      6.407680   0.000000   0.000000
   26        6.725694      6.725694   0.000000   0.000000
   27        6.746296      6.746296   0.000000   0.000000
   28        7.317814      7.317814   0.000000   0.000000
   29        7.431435      7.431435   0.000000   0.000000
   30        7.957578      7.957577   0.000000   0.000000
   31        9.071812      9.071812   0.000000   0.000000
   32        9.236797      9.236796   0.000000   0.000000
 
  0.2000000E+00  0.5000000E+00  0.3750890E-15  0.1666667E-01
    1      -34.690887    -34.690886   1.000000   1.000000
    2      -30.264941    -30.264941   1.000000   1.000000
    3      -30.183100    -30.183100   1.000000   1.000000
    4      -30.040867    -30.040867   1.000000   1.000000
    5      -16.770490    -16.770490   1.000000   1.000000
    6      -16.752469    -16.752469   1.000000   1.000000
    7      -16.674852    -16.674852   1.000000   1.000000
    8       -8.007466     -8.007466   1.000000   1.000000
    9       -7.235258     -7.235258   1.000000   1.000000
   10       -6.500148     -6.500148   1.000000   1.000000
   11       -4.197032     -4.197032   1.000000   1.000000
   12       -3.037042     -3.037042   1.000000   1.000000
   13       -2.742516     -2.742516   1.000000   1.000000
   14       -2.520815     -2.520815   1.000000   1.000000
   15       -2.283519     -2.283519   1.000000   1.000000
   16       -1.961367     -1.961367   1.000000   1.000000
   17        1.775165      1.775165   0.000000   0.000000
   18        2.870166      2.870166   0.000000   0.000000
   19        3.324359      3.324359   0.000000   0.000000
   20        3.699076      3.699076   0.000000   0.000000
   21        4.223303      4.223303   0.000000   0.000000
   22        4.372658      4.372658   0.000000   0.000000
   23        5.522510      5.522510   0.000000   0.000000
   24        5.926183      5.926183   0.000000   0.000000
   25        6.221875      6.221875   0.000000   0.000000
   26        6.561196      6.561196   0.000000   0.000000
   27        6.862536      6.862536   0.000000   0.000000
   28        7.169074      7.169074   0.000000   0.000000
   29        7.375175      7.375175   0.000000   0.000000
   30        8.062383      8.062383   0.000000   0.000000
   31        8.894693      8.894692   0.000000   0.000000
   32        9.656566      9.656565   0.000000   0.000000
 
  0.4000000E+00  0.5000000E+00  0.1206604E-14  0.1666667E-01
    1      -34.690658    -34.690657   1.000000   1.000000
    2      -30.265341    -30.265341   1.000000   1.000000
    3      -30.183603    -30.183603   1.000000   1.000000
    4      -30.040963    -30.040964   1.000000   1.000000
    5      -16.767265    -16.767265   1.000000   1.000000
    6      -16.752763    -16.752763   1.000000   1.000000
    7      -16.688113    -16.688113   1.000000   1.000000
    8       -7.769594     -7.769594   1.000000   1.000000
    9       -7.345456     -7.345456   1.000000   1.000000
   10       -6.497168     -6.497168   1.000000   1.000000
   11       -4.263886     -4.263886   1.000000   1.000000
   12       -3.246392     -3.246392   1.000000   1.000000
   13       -2.659481     -2.659481   1.000000   1.000000
   14       -2.496639     -2.496639   1.000000   1.000000
   15       -2.209226     -2.209226   1.000000   1.000000
   16       -2.032305     -2.032305   1.000000   1.000000